 Enter ifcurve (0=recti, 1=orth curvi, 2=apprx curvi, -1 = skip
 And atom ordering flag, 0= never changes, 1= use the first order thenceforth,
  2= deduce it (does read on fail), 3= always read it
 Reading file: 
 ./conjugated_carbonyls_3_C0S0.log                                              
                                          
  Entering Gaussian System, Link 0=g16                                          
  
 Gaussian format, type: g94, g98, g03= F F F
  #P Geom=AllCheck Guess=TCheck SCRF=Check Test GenChk RB3LYP/6-311G(d,p    
 energy type= B3LYP   
 Original G94 input coords:
  8  1.363872 -3.241482  0.000000
  6  0.774434 -2.183936  0.000001
  6 -0.774434 -2.183936 -0.000001
  8 -1.363872 -3.241482  0.000000
  6 -1.464708 -0.870129  0.000000
  6 -2.864388 -0.871146  0.000000
  6 -3.574096  0.319070  0.000000
  6 -2.873340  1.525088  0.000000
  6 -1.483544  1.535933  0.000000
  6 -0.742396  0.344520  0.000000
  6  0.742396  0.344520  0.000000
  6  1.483544  1.535933  0.000000
  6  2.873340  1.525088  0.000000
  6  3.574096  0.319070  0.000000
  6  2.864388 -0.871146  0.000000
  6  1.464708 -0.870129  0.000000
  1 -3.367417 -1.830241  0.000000
  1 -4.657587  0.312973  0.000000
  1 -3.411718  2.466109  0.000000
  1 -0.980437  2.493241  0.000000
  1  0.980437  2.493241  0.000000
  1  3.411718  2.466109  0.000000
  1  4.657587  0.312973  0.000000
  1  3.367417 -1.830241  0.000000
 nber atoms=          24
  SCF Done:  E(RB3LYP) =  -688.925185200     A.U. after    1 cycles             
  
          23          40 "  -688.925185200"
After scan for Atom:   Atom  AN      X      Y      Z        X      Y      Z        X      Y      Z   
After scan for Atom:   Atom  AN      X      Y      Z        X      Y      Z        X      Y      Z   
After scan for Atom:   Atom  AN      X      Y      Z        X      Y      Z        X      Y      Z   
After scan for Atom:   Atom  AN      X      Y      Z        X      Y      Z        X      Y      Z   
After scan for Atom:   Atom  AN      X      Y      Z        X      Y      Z        X      Y      Z   
After scan for Atom:   Atom  AN      X      Y      Z        X      Y      Z        X      Y      Z   
After scan for Atom:   Atom  AN      X      Y      Z        X      Y      Z        X      Y      Z   
After scan for Atom:   Atom  AN      X      Y      Z        X      Y      Z        X      Y      Z   
After scan for Atom:   Atom  AN      X      Y      Z        X      Y      Z        X      Y      Z   
After scan for Atom:   Atom  AN      X      Y      Z        X      Y      Z        X      Y      Z   
After scan for Atom:   Atom  AN      X      Y      Z        X      Y      Z        X      Y      Z   
After scan for Atom:   Atom  AN      X      Y      Z        X      Y      Z        X      Y      Z   
After scan for Atom:   Atom  AN      X      Y      Z        X      Y      Z        X      Y      Z   
After scan for Atom:   Atom  AN      X      Y      Z        X      Y      Z        X      Y      Z   
After scan for Atom:   Atom  AN      X      Y      Z        X      Y      Z        X      Y      Z   
After scan for Atom:   Atom  AN      X      Y      Z        X      Y      Z        X      Y      Z   
After scan for Atom:   Atom  AN      X      Y      Z        X      Y      Z        X      Y      Z   
After scan for Atom:   Atom  AN      X      Y      Z        X      Y      Z        X      Y      Z   
After scan for Atom:   Atom  AN      X      Y      Z        X      Y      Z        X      Y      Z   
After scan for Atom:   Atom  AN      X      Y      Z        X      Y      Z        X      Y      Z   
After scan for Atom:   Atom  AN      X      Y      Z        X      Y      Z        X      Y      Z   
After scan for Atom:   Atom  AN      X      Y      Z        X      Y      Z        X      Y      Z   
 g94    frequencies=
     0.0    0.0    0.0    0.0    0.0    0.0   25.0   84.6  101.7  151.9
   243.0  259.0  318.7  366.1  386.1  389.2  401.2  430.6  448.9  463.2
   555.6  566.1  616.5  630.7  682.7  692.6  718.0  744.1  781.2  796.2
   797.0  843.9  897.1  905.4  937.0  981.7  988.2 1015.9 1016.3 1021.6
  1021.8 1072.2 1080.3 1113.6 1140.5 1186.3 1193.8 1239.3 1249.4 1289.7
  1301.7 1312.1 1333.5 1358.0 1471.3 1481.9 1508.2 1527.4 1601.9 1621.9
  1634.0 1641.4 1751.6 1776.5 3170.5 3171.5 3185.4 3186.9 3197.5 3201.6
  3202.3 3213.5
 g94    symmetries=
                                                 A      A      A      A
       A      A      A      A      A      A      A      A      A      A
       A      A      A      A      A      A      A      A      A      A
       A      A      A      A      A      A      A      A      A      A
       A      A      A      A      A      A      A      A      A      A
       A      A      A      A      A      A      A      A      A      A
       A      A      A      A      A      A      A      A      A      A
       A      A
 atomic masses:
 15.9949 12.0000 12.0000 15.9949 12.0000 12.0000 12.0000 12.0000 12.0000 12.0000
 12.0000 12.0000 12.0000 12.0000 12.0000 12.0000  1.0078  1.0078  1.0078  1.0078
  1.0078  1.0078  1.0078  1.0078
 looking for force constants in 
 ./conjugated_carbonyls_3_C0S0.fchk                                             
  
 Cartesian Force Constants                  R   N=        2628                  
  
 n3=          72        2628
 g94-fc frequencies=
    -4.1   -4.1   -1.9   -0.0   -0.0    0.0   25.0   84.6  101.7  151.9
   243.0  259.0  318.7  366.1  386.1  389.2  401.2  430.6  448.9  463.2
   555.6  566.1  616.5  630.7  682.7  692.6  718.0  744.2  781.2  796.3
   797.0  843.9  897.1  905.5  937.0  981.7  988.3 1015.9 1016.3 1021.7
  1021.9 1072.2 1080.3 1113.6 1140.5 1186.3 1193.9 1239.4 1249.4 1289.7
  1301.7 1312.1 1333.6 1358.0 1471.4 1481.9 1508.2 1527.5 1601.9 1621.9
  1634.0 1641.4 1751.7 1776.6 3170.5 3171.6 3185.4 3187.0 3197.6 3201.6
  3202.4 3213.6
 at 99999: n3=          72
 symm operator            1 :  F  nop=           0
 symm operator            2 :  T  nop=           1
 symm operator            3 :  F  nop=           1
 symm operator            4 :  F  nop=           1
 symm operator            5 :  T  nop=           2
 symm operator            6 :  F  nop=           2
 symm operator            7 :  T  nop=           3
 swap           2           3
   1   1.36387   0.00000  -3.24148
   2   0.77443   0.00000  -2.18394
   3  -0.77443  -0.00000  -2.18394
   4  -1.36387   0.00000  -3.24148
   5  -1.46471   0.00000  -0.87013
   6  -2.86439   0.00000  -0.87115
   7  -3.57410   0.00000   0.31907
   8  -2.87334   0.00000   1.52509
   9  -1.48354   0.00000   1.53593
  10  -0.74240   0.00000   0.34452
  11   0.74240   0.00000   0.34452
  12   1.48354   0.00000   1.53593
  13   2.87334   0.00000   1.52509
  14   3.57410   0.00000   0.31907
  15   2.86439   0.00000  -0.87115
  16   1.46471   0.00000  -0.87013
  17  -3.36742   0.00000  -1.83024
  18  -4.65759   0.00000   0.31297
  19  -3.41172   0.00000   2.46611
  20  -0.98044   0.00000   2.49324
  21   0.98044   0.00000   2.49324
  22   3.41172   0.00000   2.46611
  23   4.65759   0.00000   0.31297
  24   3.36742   0.00000  -1.83024
 swap           1           2
   1   0.00000   1.36387  -3.24148
   2   0.00000   0.77443  -2.18394
   3  -0.00000  -0.77443  -2.18394
   4   0.00000  -1.36387  -3.24148
   5   0.00000  -1.46471  -0.87013
   6   0.00000  -2.86439  -0.87115
   7   0.00000  -3.57410   0.31907
   8   0.00000  -2.87334   1.52509
   9   0.00000  -1.48354   1.53593
  10   0.00000  -0.74240   0.34452
  11   0.00000   0.74240   0.34452
  12   0.00000   1.48354   1.53593
  13   0.00000   2.87334   1.52509
  14   0.00000   3.57410   0.31907
  15   0.00000   2.86439  -0.87115
  16   0.00000   1.46471  -0.87013
  17   0.00000  -3.36742  -1.83024
  18   0.00000  -4.65759   0.31297
  19   0.00000  -3.41172   2.46611
  20   0.00000  -0.98044   2.49324
  21   0.00000   0.98044   2.49324
  22   0.00000   3.41172   2.46611
  23   0.00000   4.65759   0.31297
  24   0.00000   3.36742  -1.83024
 The point group of the molecule is C2V
 enforcing symm op           1  jsymt=          -1          -1           1
 enforcing symm op           6  jsymt=           1          -1           1
 enforcing symm op           7  jsymt=          -1           1           1
 cartesian coord symmetries:
 A1 :   24 A2 :   12 B1 :   12 B2 :   24
 Symmetry rotation matrix:
   0.00000   0.00000   1.00000
  -1.00000   0.00000   0.00000
   0.00000  -1.00000   0.00000

 Projecting out zero-frequency components
 generating redundant internal coords
         300        3600          24
 search for int coords
   1 str   2   1   1.211
   2 str   3   2   1.549
   3 str   4   3   1.211
   4 str   5   3   1.484
   5 str   6   5   1.400
   6 str   7   6   1.386
   7 str   8   7   1.395
   8 str   9   8   1.390
   9 str  10   5   1.413
  10 str  10   9   1.403
  11 str  11  10   1.485
  12 str  12  11   1.403
  13 str  13  12   1.390
  14 str  14  13   1.395
  15 str  15  14   1.386
  16 str  16   2   1.484
  17 str  16  11   1.413
  18 str  16  15   1.400
  19 str  17   6   1.083
  20 str  18   7   1.084
  21 str  19   8   1.084
  22 str  20   9   1.081
  23 str  21  12   1.081
  24 str  22  13   1.084
  25 str  23  14   1.084
  26 str  24  15   1.083
 nber stretches=          26
  27 ben   1   2   3
  28 prop tor   1   2   3   4
  29 prop tor   1   2   3   5
  30 ben   1   2  16
  31 prop tor   1   2  16  11
  32 prop tor   1   2  16  15
  33 ben   2   3   4
  34 ben   2   3   5
  35 prop tor   2   3   5   6
  36 prop tor   2   3   5  10
  37 ben   2  16  11
  38 ben   2  16  15
  39 ben   3   2  16
  40 prop tor   3   2  16  11
  41 prop tor   3   2  16  15
  42 ben   3   5   6
  43 prop tor   3   5   6   7
  44 prop tor   3   5   6  17
  45 ben   3   5  10
  46 prop tor   3   5  10   9
  47 prop tor   3   5  10  11
  48 ben   4   3   5
  49 prop tor   4   3   5   6
  50 prop tor   4   3   5  10
  51 ben   5   6   7
  52 prop tor   5   6   7   8
  53 prop tor   5   6   7  18
  54 ben   5   6  17
  55 ben   5  10   9
  56 ben   5  10  11
  57 prop tor   5  10  11  12
  58 prop tor   5  10  11  16
  59 ben   6   5  10
  60 prop tor   6   5  10   9
  61 prop tor   6   5  10  11
  62 ben   6   7   8
  63 prop tor   6   7   8   9
  64 prop tor   6   7   8  19
  65 ben   6   7  18
  66 ben   7   6  17
  67 ben   7   8   9
  68 prop tor   7   8   9  10
  69 prop tor   7   8   9  20
  70 ben   7   8  19
  71 ben   8   7  18
  72 ben   8   9  10
  73 prop tor   8   9  10   5
  74 prop tor   8   9  10  11
  75 ben   8   9  20
  76 ben   9   8  19
  77 ben   9  10  11
  78 prop tor   9  10  11  12
  79 prop tor   9  10  11  16
  80 prop tor  10   5   6   7
  81 prop tor  10   5   6  17
  82 ben  10   9  20
  83 ben  10  11  12
  84 prop tor  10  11  12  13
  85 prop tor  10  11  12  21
  86 ben  10  11  16
  87 prop tor  10  11  16   2
  88 prop tor  10  11  16  15
  89 ben  11  12  13
  90 prop tor  11  12  13  14
  91 prop tor  11  12  13  22
  92 ben  11  12  21
  93 ben  11  16  15
  94 ben  12  11  16
  95 prop tor  12  11  16   2
  96 prop tor  12  11  16  15
  97 ben  12  13  14
  98 prop tor  12  13  14  15
  99 prop tor  12  13  14  23
 100 ben  12  13  22
 101 ben  13  12  21
 102 ben  13  14  15
 103 prop tor  13  14  15  16
 104 prop tor  13  14  15  24
 105 ben  13  14  23
 106 ben  14  13  22
 107 ben  14  15  16
 108 prop tor  14  15  16   2
 109 prop tor  14  15  16  11
 110 ben  14  15  24
 111 ben  15  14  23
 112 prop tor  16   2   3   4
 113 prop tor  16   2   3   5
 114 prop tor  16  11  12  13
 115 prop tor  16  11  12  21
 116 ben  16  15  24
 117 prop tor  17   6   7   8
 118 prop tor  17   6   7  18
 119 prop tor  18   7   8   9
 120 prop tor  18   7   8  19
 121 prop tor  19   8   9  10
 122 prop tor  19   8   9  20
 123 prop tor  20   9  10   5
 124 prop tor  20   9  10  11
 125 prop tor  21  12  13  14
 126 prop tor  21  12  13  22
 127 prop tor  22  13  14  15
 128 prop tor  22  13  14  23
 129 prop tor  23  14  15  16
 130 prop tor  23  14  15  24
 131 prop tor  24  15  16   2
 132 prop tor  24  15  16  11
 nber bend=              42
 nber lin bend=           0
 nber prop tor=          64
 nber impr tor=           0
 nber tot redund int=         132
 Eigenvalues of G in red int coords
    Gval -0.00000000 -0.00000000 -0.00000000 -0.00000000 -0.00000000 -0.00000000 -0.00000000 -0.00000000
    Gval -0.00000000 -0.00000000 -0.00000000 -0.00000000 -0.00000000 -0.00000000 -0.00000000 -0.00000000
    Gval -0.00000000 -0.00000000 -0.00000000 -0.00000000 -0.00000000 -0.00000000 -0.00000000 -0.00000000
    Gval -0.00000000 -0.00000000 -0.00000000 -0.00000000 -0.00000000 -0.00000000 -0.00000000 -0.00000000
    Gval -0.00000000 -0.00000000  0.00000000  0.00000000  0.00000000  0.00000000  0.00000000  0.00000000
    Gval  0.00000000  0.00000000  0.00000000  0.00000000  0.00000000  0.00000000  0.00000000  0.00000000
    Gval  0.00000000  0.00000000  0.00000000  0.00000000  0.00000000  0.00000000  0.00000000  0.00000000
    Gval  0.00000000  0.00000000  0.00000000  0.00000000  0.00000000  0.00000000  0.00000000  0.00000000
    Gval  0.00000000  0.00000000  0.00000686  0.00001102  0.00001192  0.00002011  0.00002200  0.00002623
    Gval  0.00003533  0.00004721  0.00004769  0.00004991  0.00005493  0.00005972  0.00006099  0.00007802
    Gval  0.00007842  0.00009775  0.00010118  0.00010940  0.00011330  0.00012793  0.00013005  0.00013491
    Gval  0.00015730  0.00020249  0.00023305  0.00026167  0.00026729  0.00029708  0.00031705  0.00037571
    Gval  0.00038107  0.00041828  0.00042011  0.00044024  0.00044636  0.00059320  0.00059324  0.00059736
    Gval  0.00059748  0.00061794  0.00062180  0.00062389  0.00065570  0.00065581  0.00068851  0.00089579
    Gval  0.00095020  0.00105465  0.00105574  0.00112174  0.00112207  0.00116069  0.00116086  0.00117396
    Gval  0.00117401  0.00118290  0.00167668  0.00183216  0.00186191  0.00216513  0.00264063  0.00281010
    Gval  0.00348561  0.00353633  0.00403128  0.00403475
  6.861249812501028E-006  6.861249812501028E-006
  1.102223483682823E-005  6.861249812501028E-006
  1.191807535950014E-005  6.861249812501028E-006
  2.010988833844613E-005  6.861249812501028E-006
  2.199979824403980E-005  6.861249812501028E-006
  2.622681071048538E-005  6.861249812501028E-006
  3.533032500857029E-005  6.861249812501028E-006
  4.720554796901559E-005  6.861249812501028E-006
  4.769261104022902E-005  6.861249812501028E-006
  4.991446427188346E-005  6.861249812501028E-006
  5.493236292848729E-005  6.861249812501028E-006
  5.971914301409239E-005  6.861249812501028E-006
  6.098741194823052E-005  6.861249812501028E-006
  7.802099092413008E-005  6.861249812501028E-006
  7.842196694043035E-005  6.861249812501028E-006
  9.774726383638211E-005  6.861249812501028E-006
  1.011808948503547E-004  6.861249812501028E-006
  1.093959268483994E-004  6.861249812501028E-006
  1.132975316395172E-004  6.861249812501028E-006
  1.279288471025089E-004  6.861249812501028E-006
  1.300454170317276E-004  6.861249812501028E-006
  1.349097833139332E-004  6.861249812501028E-006
  1.573030421383419E-004  6.861249812501028E-006
  2.024939795837969E-004  6.861249812501028E-006
  2.330485394526780E-004  6.861249812501028E-006
  2.616746095152439E-004  6.861249812501028E-006
  2.672853484280632E-004  6.861249812501028E-006
  2.970752677385907E-004  6.861249812501028E-006
  3.170478218944555E-004  6.861249812501028E-006
  3.757058096369827E-004  6.861249812501028E-006
  3.810661669011602E-004  6.861249812501028E-006
  4.182832710933740E-004  6.861249812501028E-006
  4.201103553256595E-004  6.861249812501028E-006
  4.402359220555762E-004  6.861249812501028E-006
  4.463613452226125E-004  6.861249812501028E-006
  5.932025642483498E-004  6.861249812501028E-006
  5.932427744800795E-004  6.861249812501028E-006
  5.973552035254502E-004  6.861249812501028E-006
  5.974806978434349E-004  6.861249812501028E-006
  6.179402004447836E-004  6.861249812501028E-006
  6.218004641944714E-004  6.861249812501028E-006
  6.238916821676641E-004  6.861249812501028E-006
  6.557027369307267E-004  6.861249812501028E-006
  6.558066568498157E-004  6.861249812501028E-006
  6.885119024432014E-004  6.861249812501028E-006
  8.957910566855356E-004  6.861249812501028E-006
  9.501968951596539E-004  6.861249812501028E-006
  1.054649163262650E-003  6.861249812501028E-006
  1.055742568939824E-003  6.861249812501028E-006
  1.121740124264613E-003  6.861249812501028E-006
  1.122071441940503E-003  6.861249812501028E-006
  1.160686377734970E-003  6.861249812501028E-006
  1.160856351532878E-003  6.861249812501028E-006
  1.173955539250292E-003  6.861249812501028E-006
  1.174007859396244E-003  6.861249812501028E-006
  1.182901647000650E-003  6.861249812501028E-006
  1.676677452287798E-003  6.861249812501028E-006
  1.832160124693491E-003  6.861249812501028E-006
  1.861909945496972E-003  6.861249812501028E-006
  2.165126016807096E-003  6.861249812501028E-006
  2.640634123808186E-003  6.861249812501028E-006
  2.810101086754951E-003  6.861249812501028E-006
  3.485608871376158E-003  6.861249812501028E-006
  3.536326148086117E-003  6.861249812501028E-006
  4.031280965338331E-003  6.861249812501028E-006
  4.034754860552459E-003  6.861249812501028E-006
 cut=1d-8, nber non-redundant internal coords=          66
 Check on Eigenvals of non-red overlap matrix:
  0.00000686  0.00001102  0.00001192  0.00002011  0.00002200  0.00002623  0.00003533  0.00004721
  0.00004769  0.00004991  0.00005493  0.00005972  0.00006099  0.00007802  0.00007842  0.00009775
  0.00010118  0.00010940  0.00011330  0.00012793  0.00013005  0.00013491  0.00015730  0.00020249
  0.00023305  0.00026167  0.00026729  0.00029708  0.00031705  0.00037571  0.00038107  0.00041828
  0.00042011  0.00044024  0.00044636  0.00059320  0.00059324  0.00059736  0.00059748  0.00061794
  0.00062180  0.00062389  0.00065570  0.00065581  0.00068851  0.00089579  0.00095020  0.00105465
  0.00105574  0.00112174  0.00112207  0.00116069  0.00116086  0.00117396  0.00117401  0.00118290
  0.00167668  0.00183216  0.00186191  0.00216513  0.00264063  0.00281010  0.00348561  0.00353633
  0.00403128  0.00403475
 Checking for correct frequencies
 recalc frequencies=
    -0.0   -0.0    0.0    0.0    0.0    0.0   25.0   84.6  101.7  151.9
   243.0  259.0  318.7  366.1  386.1  389.2  401.2  430.6  448.9  463.2
   555.6  566.1  616.5  630.7  682.7  692.6  718.0  744.2  781.2  796.3
   797.0  843.9  897.1  905.5  937.0  981.7  988.3 1015.9 1016.3 1021.7
  1021.9 1072.2 1080.3 1113.6 1140.5 1186.3 1193.9 1239.4 1249.4 1289.7
  1301.7 1312.1 1333.6 1358.0 1471.4 1481.9 1508.2 1527.5 1601.9 1621.9
  1634.0 1641.4 1751.7 1776.6 3170.5 3171.6 3185.4 3187.0 3197.6 3201.6
  3202.4 3213.6
 recalc symmetries=
     A1     B2     B2     B1     A2     B1     A2     B1     A2     B1 
     A1     A2     B2     A1     B1     B2     A1     A2     B1     A1 
     B1     A2     B2     B2     B2     A1     A2     B1     B1     A1 
     A2     A2     B1     A2     B2     A2     B1     B1     A2     A1 
     B2     B2     A1     A1     B2     B2     A1     B2     A1     A1 
     B2     A1     B2     A1     A1     B2     B2     A1     A1     B2 
     A1     B2     A1     B2     B2     A1     B2     A1     B2     A1 
     B2     A1 
 recalc freqs check OK
 Zero-point lengths:
 10.0000 10.0000 10.0000 10.0000 10.0000 10.0000 49.5673 26.9511 24.5823 20.1173
 15.9043 15.4053 13.8862 12.9560 12.6161 12.5666 12.3774 11.9465 11.7006 11.5191
 10.5178 10.4194  9.9845  9.8713  9.4883  9.4200  9.2521  9.0879  8.8699  8.7856
  8.7814  8.5341  8.2768  8.2387  8.0989  7.9122  7.8860  7.7781  7.7765  7.7561
  7.7553  7.5711  7.5426  7.4290  7.3408  7.1977  7.1750  7.0420  7.0137  6.9031
  6.8714  6.8441  6.7887  6.7274  6.4630  6.4399  6.3835  6.3432  6.1940  6.1557
  6.1329  6.1191  5.9234  5.8817  4.4028  4.4021  4.3925  4.3914  4.3841  4.3814
  4.3809  4.3732
 highest evec of mol 1
  0.0000 -0.0003  0.0005
  0.0000  0.0000 -0.0007
  0.0000 -0.0000 -0.0007
  0.0000  0.0003  0.0005
  0.0000 -0.0002 -0.0014
  0.0000 -0.0080 -0.0172
  0.0000 -0.0197 -0.0023
  0.0000 -0.0304  0.0436
  0.0000  0.0917  0.1706
  0.0000  0.0038 -0.0027
  0.0000 -0.0038 -0.0027
  0.0000 -0.0917  0.1706
  0.0000  0.0304  0.0436
  0.0000  0.0197 -0.0023
  0.0000  0.0080 -0.0172
  0.0000  0.0002 -0.0014
  0.0000  0.0286  0.0536
  0.0000  0.0589  0.0013
  0.0000  0.0814 -0.1389
  0.0000 -0.3124 -0.5729
  0.0000  0.3124 -0.5729
  0.0000 -0.0814 -0.1389
  0.0000 -0.0589  0.0013
  0.0000 -0.0286  0.0536
 generating redundant internal coords
         300        3600          24
 Adding extra bonds for z output only
           8           6           6           8           6           6
           6           6           6           6           6           6
           6           6           6           6           1           1
           1           1           1           1           1           1
 search for int coords
   1 str   2   1   1.211
   2 str   3   2   1.549
   3 str   4   3   1.211
   4 str   5   3   1.484
   5 str   6   5   1.400
   6 str   7   6   1.386
   7 str   8   7   1.395
   8 str   9   8   1.390
   9 str  10   5   1.413
  10 str  10   9   1.403
  11 str  11  10   1.485
  12 str  12  11   1.403
  13 str  13  12   1.390
  14 str  14  13   1.395
  15 str  15  14   1.386
  16 str  16   2   1.484
  17 str  16  11   1.413
  18 str  16  15   1.400
  19 str  17   6   1.083
  20 str  18   7   1.084
  21 str  19   8   1.084
  22 str  20   9   1.081
  23 str  21  12   1.081
  24 str  22  13   1.084
  25 str  23  14   1.084
  26 str  24  15   1.083
 nber stretches=          26
  27 ben   1   2   3
  28 prop tor   1   2   3   4
  29 prop tor   1   2   3   5
  30 ben   1   2  16
  31 prop tor   1   2  16  11
  32 prop tor   1   2  16  15
  33 ben   2   3   4
  34 ben   2   3   5
  35 prop tor   2   3   5   6
  36 prop tor   2   3   5  10
  37 ben   2  16  11
  38 ben   2  16  15
  39 ben   3   2  16
  40 prop tor   3   2  16  11
  41 prop tor   3   2  16  15
  42 ben   3   5   6
  43 prop tor   3   5   6   7
  44 prop tor   3   5   6  17
  45 ben   3   5  10
  46 prop tor   3   5  10   9
  47 prop tor   3   5  10  11
  48 ben   4   3   5
  49 prop tor   4   3   5   6
  50 prop tor   4   3   5  10
  51 ben   5   6   7
  52 prop tor   5   6   7   8
  53 prop tor   5   6   7  18
  54 ben   5   6  17
  55 ben   5  10   9
  56 ben   5  10  11
  57 prop tor   5  10  11  12
  58 prop tor   5  10  11  16
  59 ben   6   5  10
  60 prop tor   6   5  10   9
  61 prop tor   6   5  10  11
  62 ben   6   7   8
  63 prop tor   6   7   8   9
  64 prop tor   6   7   8  19
  65 ben   6   7  18
  66 ben   7   6  17
  67 ben   7   8   9
  68 prop tor   7   8   9  10
  69 prop tor   7   8   9  20
  70 ben   7   8  19
  71 ben   8   7  18
  72 ben   8   9  10
  73 prop tor   8   9  10   5
  74 prop tor   8   9  10  11
  75 ben   8   9  20
  76 ben   9   8  19
  77 ben   9  10  11
  78 prop tor   9  10  11  12
  79 prop tor   9  10  11  16
  80 prop tor  10   5   6   7
  81 prop tor  10   5   6  17
  82 ben  10   9  20
  83 ben  10  11  12
  84 prop tor  10  11  12  13
  85 prop tor  10  11  12  21
  86 ben  10  11  16
  87 prop tor  10  11  16   2
  88 prop tor  10  11  16  15
  89 ben  11  12  13
  90 prop tor  11  12  13  14
  91 prop tor  11  12  13  22
  92 ben  11  12  21
  93 ben  11  16  15
  94 ben  12  11  16
  95 prop tor  12  11  16   2
  96 prop tor  12  11  16  15
  97 ben  12  13  14
  98 prop tor  12  13  14  15
  99 prop tor  12  13  14  23
 100 ben  12  13  22
 101 ben  13  12  21
 102 ben  13  14  15
 103 prop tor  13  14  15  16
 104 prop tor  13  14  15  24
 105 ben  13  14  23
 106 ben  14  13  22
 107 ben  14  15  16
 108 prop tor  14  15  16   2
 109 prop tor  14  15  16  11
 110 ben  14  15  24
 111 ben  15  14  23
 112 prop tor  16   2   3   4
 113 prop tor  16   2   3   5
 114 prop tor  16  11  12  13
 115 prop tor  16  11  12  21
 116 ben  16  15  24
 117 prop tor  17   6   7   8
 118 prop tor  17   6   7  18
 119 prop tor  18   7   8   9
 120 prop tor  18   7   8  19
 121 prop tor  19   8   9  10
 122 prop tor  19   8   9  20
 123 prop tor  20   9  10   5
 124 prop tor  20   9  10  11
 125 prop tor  21  12  13  14
 126 prop tor  21  12  13  22
 127 prop tor  22  13  14  15
 128 prop tor  22  13  14  23
 129 prop tor  23  14  15  16
 130 prop tor  23  14  15  24
 131 prop tor  24  15  16   2
 132 prop tor  24  15  16  11
 nber bend=              42
 nber lin bend=           0
 nber prop tor=          64
 nber impr tor=           0
 nber tot redund int=         132
 Reading file: 
 ./conjugated_carbonyls_3_C-1S0.log                                             
                                          
  Entering Gaussian System, Link 0=g16                                          
  
 Gaussian format, type: g94, g98, g03= F F F
  #P Geom=AllCheck Guess=TCheck SCRF=Check Test GenChk UB3LYP/6-311G(d,p    
 energy type= B3LYP   
 Original G94 input coords:
  8  1.396064 -3.247086  0.000000
  6  0.741140 -2.184541  0.000000
  6 -0.741140 -2.184541  0.000000
  8 -1.396064 -3.247086  0.000000
  6 -1.423415 -0.874781  0.000000
  6 -2.834981 -0.872411  0.000000
  6 -3.558584  0.302520  0.000000
  6 -2.879601  1.533545  0.000000
  6 -1.495387  1.554832  0.000000
  6 -0.730276  0.369443  0.000000
  6  0.730276  0.369443  0.000000
  6  1.495387  1.554832  0.000000
  6  2.879601  1.533545  0.000000
  6  3.558584  0.302520  0.000000
  6  2.834981 -0.872411  0.000000
  6  1.423415 -0.874781  0.000000
  1 -3.317474 -1.842907  0.000000
  1 -4.644755  0.278539  0.000000
  1 -3.434951  2.466778  0.000000
  1 -0.994796  2.516071  0.000000
  1  0.994796  2.516071  0.000000
  1  3.434951  2.466778  0.000000
  1  4.644755  0.278539  0.000000
  1  3.317474 -1.842907  0.000000
 nber atoms=          24
  SCF Done:  E(UB3LYP) =  -688.987367311     A.U. after    1 cycles             
  
          23          40 "  -688.987367311"
After scan for Atom:   Atom  AN      X      Y      Z        X      Y      Z        X      Y      Z   
After scan for Atom:   Atom  AN      X      Y      Z        X      Y      Z        X      Y      Z   
After scan for Atom:   Atom  AN      X      Y      Z        X      Y      Z        X      Y      Z   
After scan for Atom:   Atom  AN      X      Y      Z        X      Y      Z        X      Y      Z   
After scan for Atom:   Atom  AN      X      Y      Z        X      Y      Z        X      Y      Z   
After scan for Atom:   Atom  AN      X      Y      Z        X      Y      Z        X      Y      Z   
After scan for Atom:   Atom  AN      X      Y      Z        X      Y      Z        X      Y      Z   
After scan for Atom:   Atom  AN      X      Y      Z        X      Y      Z        X      Y      Z   
After scan for Atom:   Atom  AN      X      Y      Z        X      Y      Z        X      Y      Z   
After scan for Atom:   Atom  AN      X      Y      Z        X      Y      Z        X      Y      Z   
After scan for Atom:   Atom  AN      X      Y      Z        X      Y      Z        X      Y      Z   
After scan for Atom:   Atom  AN      X      Y      Z        X      Y      Z        X      Y      Z   
After scan for Atom:   Atom  AN      X      Y      Z        X      Y      Z        X      Y      Z   
After scan for Atom:   Atom  AN      X      Y      Z        X      Y      Z        X      Y      Z   
After scan for Atom:   Atom  AN      X      Y      Z        X      Y      Z        X      Y      Z   
After scan for Atom:   Atom  AN      X      Y      Z        X      Y      Z        X      Y      Z   
After scan for Atom:   Atom  AN      X      Y      Z        X      Y      Z        X      Y      Z   
After scan for Atom:   Atom  AN      X      Y      Z        X      Y      Z        X      Y      Z   
After scan for Atom:   Atom  AN      X      Y      Z        X      Y      Z        X      Y      Z   
After scan for Atom:   Atom  AN      X      Y      Z        X      Y      Z        X      Y      Z   
After scan for Atom:   Atom  AN      X      Y      Z        X      Y      Z        X      Y      Z   
After scan for Atom:   Atom  AN      X      Y      Z        X      Y      Z        X      Y      Z   
 g94    frequencies=
     0.0    0.0    0.0    0.0    0.0    0.0   52.8   91.5  122.9  157.1
   245.1  272.6  318.6  365.3  386.2  400.5  413.9  440.7  452.7  465.5
   565.4  571.8  610.8  632.4  674.6  691.5  695.6  728.4  755.6  765.4
   783.1  799.6  849.7  859.6  909.7  929.7  933.1  986.8  988.5 1010.3
  1045.2 1053.4 1070.2 1103.6 1130.0 1164.9 1169.7 1230.0 1230.5 1257.5
  1275.2 1322.5 1350.6 1363.4 1451.6 1452.6 1488.4 1501.6 1546.0 1548.3
  1588.6 1596.9 1624.0 1634.1 3129.6 3130.3 3146.9 3150.6 3166.5 3180.7
  3184.7 3185.5
 g94    symmetries=
                                                 A      A      A      A
       A      A      A      A      A      A      A      A      A      A
       A      A      A      A      A      A      A      A      A      A
       A      A      A      A      A      A      A      A      A      A
       A      A      A      A      A      A      A      A      A      A
       A      A      A      A      A      A      A      A      A      A
       A      A      A      A      A      A      A      A      A      A
       A      A
 atomic masses:
 15.9949 12.0000 12.0000 15.9949 12.0000 12.0000 12.0000 12.0000 12.0000 12.0000
 12.0000 12.0000 12.0000 12.0000 12.0000 12.0000  1.0078  1.0078  1.0078  1.0078
  1.0078  1.0078  1.0078  1.0078
 looking for force constants in 
 ./conjugated_carbonyls_3_C-1S0.fchk                                            
  
 Cartesian Force Constants                  R   N=        2628                  
  
 n3=          72        2628
 g94-fc frequencies=
    -2.7   -2.1   -0.0   -0.0    0.0    1.4   52.8   91.5  122.9  157.1
   245.1  272.6  318.6  365.3  386.3  400.5  413.9  440.7  452.7  465.5
   565.4  571.8  610.8  632.4  674.6  691.5  695.7  728.4  755.6  765.4
   783.1  799.6  849.8  859.6  909.7  929.7  933.1  986.8  988.5 1010.4
  1045.2 1053.4 1070.3 1103.6 1130.0 1164.9 1169.7 1230.0 1230.5 1257.5
  1275.3 1322.5 1350.6 1363.4 1451.7 1452.6 1488.4 1501.7 1546.0 1548.3
  1588.6 1596.9 1624.0 1634.1 3129.7 3130.4 3147.0 3150.6 3166.5 3180.7
  3184.8 3185.5
 at 99999: n3=          72
 symm operator            1 :  F  nop=           0
 symm operator            2 :  T  nop=           1
 symm operator            3 :  F  nop=           1
 symm operator            4 :  F  nop=           1
 symm operator            5 :  T  nop=           2
 symm operator            6 :  F  nop=           2
 symm operator            7 :  T  nop=           3
 swap           2           3
   1   1.39606   0.00000  -3.24709
   2   0.74114   0.00000  -2.18454
   3  -0.74114   0.00000  -2.18454
   4  -1.39606   0.00000  -3.24709
   5  -1.42342   0.00000  -0.87478
   6  -2.83498   0.00000  -0.87241
   7  -3.55858   0.00000   0.30252
   8  -2.87960   0.00000   1.53354
   9  -1.49539   0.00000   1.55483
  10  -0.73028   0.00000   0.36944
  11   0.73028   0.00000   0.36944
  12   1.49539   0.00000   1.55483
  13   2.87960   0.00000   1.53354
  14   3.55858   0.00000   0.30252
  15   2.83498   0.00000  -0.87241
  16   1.42342   0.00000  -0.87478
  17  -3.31747   0.00000  -1.84291
  18  -4.64475   0.00000   0.27854
  19  -3.43495   0.00000   2.46678
  20  -0.99480   0.00000   2.51607
  21   0.99480   0.00000   2.51607
  22   3.43495   0.00000   2.46678
  23   4.64475   0.00000   0.27854
  24   3.31747   0.00000  -1.84291
 swap           1           2
   1   0.00000   1.39606  -3.24709
   2   0.00000   0.74114  -2.18454
   3   0.00000  -0.74114  -2.18454
   4   0.00000  -1.39606  -3.24709
   5   0.00000  -1.42342  -0.87478
   6   0.00000  -2.83498  -0.87241
   7   0.00000  -3.55858   0.30252
   8   0.00000  -2.87960   1.53354
   9   0.00000  -1.49539   1.55483
  10   0.00000  -0.73028   0.36944
  11   0.00000   0.73028   0.36944
  12   0.00000   1.49539   1.55483
  13   0.00000   2.87960   1.53354
  14   0.00000   3.55858   0.30252
  15   0.00000   2.83498  -0.87241
  16   0.00000   1.42342  -0.87478
  17   0.00000  -3.31747  -1.84291
  18   0.00000  -4.64475   0.27854
  19   0.00000  -3.43495   2.46678
  20   0.00000  -0.99480   2.51607
  21   0.00000   0.99480   2.51607
  22   0.00000   3.43495   2.46678
  23   0.00000   4.64475   0.27854
  24   0.00000   3.31747  -1.84291
 The point group of the molecule is C2V
 enforcing symm op           1  jsymt=          -1          -1           1
 enforcing symm op           6  jsymt=           1          -1           1
 enforcing symm op           7  jsymt=          -1           1           1
 cartesian coord symmetries:
 A1 :   24 A2 :   12 B1 :   12 B2 :   24
 Symmetry rotation matrix:
   0.00000   0.00000   1.00000
  -1.00000   0.00000   0.00000
   0.00000  -1.00000   0.00000

 Projecting out zero-frequency components
 generating redundant internal coords
         300        3600          24
 search for int coords
   1 str   2   1   1.248
   2 str   3   2   1.482
   3 str   4   3   1.248
   4 str   5   3   1.477
   5 str   6   5   1.412
   6 str   7   6   1.380
   7 str   8   7   1.406
   8 str   9   8   1.384
   9 str  10   5   1.424
  10 str  10   9   1.411
  11 str  11  10   1.461
  12 str  12  11   1.411
  13 str  13  12   1.384
  14 str  14  13   1.406
  15 str  15  14   1.380
  16 str  16   2   1.477
  17 str  16  11   1.424
  18 str  16  15   1.412
  19 str  17   6   1.084
  20 str  18   7   1.086
  21 str  19   8   1.086
  22 str  20   9   1.084
  23 str  21  12   1.084
  24 str  22  13   1.086
  25 str  23  14   1.086
  26 str  24  15   1.084
 nber stretches=          26
  27 ben   1   2   3
  28 prop tor   1   2   3   4
  29 prop tor   1   2   3   5
  30 ben   1   2  16
  31 prop tor   1   2  16  11
  32 prop tor   1   2  16  15
  33 ben   2   3   4
  34 ben   2   3   5
  35 prop tor   2   3   5   6
  36 prop tor   2   3   5  10
  37 ben   2  16  11
  38 ben   2  16  15
  39 ben   3   2  16
  40 prop tor   3   2  16  11
  41 prop tor   3   2  16  15
  42 ben   3   5   6
  43 prop tor   3   5   6   7
  44 prop tor   3   5   6  17
  45 ben   3   5  10
  46 prop tor   3   5  10   9
  47 prop tor   3   5  10  11
  48 ben   4   3   5
  49 prop tor   4   3   5   6
  50 prop tor   4   3   5  10
  51 ben   5   6   7
  52 prop tor   5   6   7   8
  53 prop tor   5   6   7  18
  54 ben   5   6  17
  55 ben   5  10   9
  56 ben   5  10  11
  57 prop tor   5  10  11  12
  58 prop tor   5  10  11  16
  59 ben   6   5  10
  60 prop tor   6   5  10   9
  61 prop tor   6   5  10  11
  62 ben   6   7   8
  63 prop tor   6   7   8   9
  64 prop tor   6   7   8  19
  65 ben   6   7  18
  66 ben   7   6  17
  67 ben   7   8   9
  68 prop tor   7   8   9  10
  69 prop tor   7   8   9  20
  70 ben   7   8  19
  71 ben   8   7  18
  72 ben   8   9  10
  73 prop tor   8   9  10   5
  74 prop tor   8   9  10  11
  75 ben   8   9  20
  76 ben   9   8  19
  77 ben   9  10  11
  78 prop tor   9  10  11  12
  79 prop tor   9  10  11  16
  80 prop tor  10   5   6   7
  81 prop tor  10   5   6  17
  82 ben  10   9  20
  83 ben  10  11  12
  84 prop tor  10  11  12  13
  85 prop tor  10  11  12  21
  86 ben  10  11  16
  87 prop tor  10  11  16   2
  88 prop tor  10  11  16  15
  89 ben  11  12  13
  90 prop tor  11  12  13  14
  91 prop tor  11  12  13  22
  92 ben  11  12  21
  93 ben  11  16  15
  94 ben  12  11  16
  95 prop tor  12  11  16   2
  96 prop tor  12  11  16  15
  97 ben  12  13  14
  98 prop tor  12  13  14  15
  99 prop tor  12  13  14  23
 100 ben  12  13  22
 101 ben  13  12  21
 102 ben  13  14  15
 103 prop tor  13  14  15  16
 104 prop tor  13  14  15  24
 105 ben  13  14  23
 106 ben  14  13  22
 107 ben  14  15  16
 108 prop tor  14  15  16   2
 109 prop tor  14  15  16  11
 110 ben  14  15  24
 111 ben  15  14  23
 112 prop tor  16   2   3   4
 113 prop tor  16   2   3   5
 114 prop tor  16  11  12  13
 115 prop tor  16  11  12  21
 116 ben  16  15  24
 117 prop tor  17   6   7   8
 118 prop tor  17   6   7  18
 119 prop tor  18   7   8   9
 120 prop tor  18   7   8  19
 121 prop tor  19   8   9  10
 122 prop tor  19   8   9  20
 123 prop tor  20   9  10   5
 124 prop tor  20   9  10  11
 125 prop tor  21  12  13  14
 126 prop tor  21  12  13  22
 127 prop tor  22  13  14  15
 128 prop tor  22  13  14  23
 129 prop tor  23  14  15  16
 130 prop tor  23  14  15  24
 131 prop tor  24  15  16   2
 132 prop tor  24  15  16  11
 nber bend=              42
 nber lin bend=           0
 nber prop tor=          64
 nber impr tor=           0
 nber tot redund int=         132
 Eigenvalues of G in red int coords
    Gval -0.00000000 -0.00000000 -0.00000000 -0.00000000 -0.00000000 -0.00000000 -0.00000000 -0.00000000
    Gval -0.00000000 -0.00000000 -0.00000000 -0.00000000 -0.00000000 -0.00000000 -0.00000000 -0.00000000
    Gval -0.00000000 -0.00000000 -0.00000000 -0.00000000 -0.00000000 -0.00000000 -0.00000000 -0.00000000
    Gval -0.00000000 -0.00000000 -0.00000000 -0.00000000 -0.00000000 -0.00000000 -0.00000000 -0.00000000
    Gval -0.00000000  0.00000000  0.00000000  0.00000000  0.00000000  0.00000000  0.00000000  0.00000000
    Gval  0.00000000  0.00000000  0.00000000  0.00000000  0.00000000  0.00000000  0.00000000  0.00000000
    Gval  0.00000000  0.00000000  0.00000000  0.00000000  0.00000000  0.00000000  0.00000000  0.00000000
    Gval  0.00000000  0.00000000  0.00000000  0.00000000  0.00000000  0.00000000  0.00000000  0.00000000
    Gval  0.00000000  0.00000000  0.00000690  0.00001096  0.00001163  0.00002018  0.00002161  0.00002592
    Gval  0.00003555  0.00004702  0.00004778  0.00004903  0.00005480  0.00005962  0.00006091  0.00007802
    Gval  0.00007860  0.00009760  0.00010022  0.00010946  0.00011273  0.00012817  0.00012926  0.00013208
    Gval  0.00015634  0.00020236  0.00023025  0.00026457  0.00026952  0.00029502  0.00032183  0.00037655
    Gval  0.00037793  0.00040387  0.00042908  0.00043848  0.00044543  0.00059320  0.00059324  0.00059727
    Gval  0.00059743  0.00061783  0.00062187  0.00062752  0.00065500  0.00065537  0.00069302  0.00088685
    Gval  0.00095568  0.00105005  0.00105119  0.00111640  0.00111665  0.00115771  0.00115789  0.00116927
    Gval  0.00116935  0.00120734  0.00166402  0.00181567  0.00185415  0.00215296  0.00261420  0.00279930
    Gval  0.00347295  0.00352354  0.00401787  0.00402203
  6.900473341557713E-006  6.900473341557713E-006
  1.096367433821180E-005  6.900473341557713E-006
  1.163428963870920E-005  6.900473341557713E-006
  2.018233581486473E-005  6.900473341557713E-006
  2.160546816327146E-005  6.900473341557713E-006
  2.592367150864336E-005  6.900473341557713E-006
  3.554595209200179E-005  6.900473341557713E-006
  4.702168168916232E-005  6.900473341557713E-006
  4.777693008978089E-005  6.900473341557713E-006
  4.902543943502430E-005  6.900473341557713E-006
  5.480390301265209E-005  6.900473341557713E-006
  5.962023504908143E-005  6.900473341557713E-006
  6.091241902271265E-005  6.900473341557713E-006
  7.801605039146457E-005  6.900473341557713E-006
  7.860485693567301E-005  6.900473341557713E-006
  9.759886098653326E-005  6.900473341557713E-006
  1.002182703365898E-004  6.900473341557713E-006
  1.094577861242125E-004  6.900473341557713E-006
  1.127289923545993E-004  6.900473341557713E-006
  1.281725365546244E-004  6.900473341557713E-006
  1.292622678075750E-004  6.900473341557713E-006
  1.320839854114870E-004  6.900473341557713E-006
  1.563440368910672E-004  6.900473341557713E-006
  2.023627849000425E-004  6.900473341557713E-006
  2.302513009197348E-004  6.900473341557713E-006
  2.645714845742036E-004  6.900473341557713E-006
  2.695218269233261E-004  6.900473341557713E-006
  2.950218596454726E-004  6.900473341557713E-006
  3.218322930465005E-004  6.900473341557713E-006
  3.765467772077278E-004  6.900473341557713E-006
  3.779292828322108E-004  6.900473341557713E-006
  4.038672845700316E-004  6.900473341557713E-006
  4.290819001692087E-004  6.900473341557713E-006
  4.384813932692297E-004  6.900473341557713E-006
  4.454333170323819E-004  6.900473341557713E-006
  5.932025708744616E-004  6.900473341557713E-006
  5.932425923011347E-004  6.900473341557713E-006
  5.972697994434132E-004  6.900473341557713E-006
  5.974348581794533E-004  6.900473341557713E-006
  6.178269905817777E-004  6.900473341557713E-006
  6.218722408549631E-004  6.900473341557713E-006
  6.275223893510141E-004  6.900473341557713E-006
  6.549980541085953E-004  6.900473341557713E-006
  6.553665547678727E-004  6.900473341557713E-006
  6.930228379566950E-004  6.900473341557713E-006
  8.868486916651817E-004  6.900473341557713E-006
  9.556824282558218E-004  6.900473341557713E-006
  1.050046053132738E-003  6.900473341557713E-006
  1.051193803203107E-003  6.900473341557713E-006
  1.116401328577547E-003  6.900473341557713E-006
  1.116645241271111E-003  6.900473341557713E-006
  1.157705052498823E-003  6.900473341557713E-006
  1.157894589773517E-003  6.900473341557713E-006
  1.169273864754710E-003  6.900473341557713E-006
  1.169345618513291E-003  6.900473341557713E-006
  1.207335630386643E-003  6.900473341557713E-006
  1.664021789284857E-003  6.900473341557713E-006
  1.815671747111607E-003  6.900473341557713E-006
  1.854146849595051E-003  6.900473341557713E-006
  2.152962215009741E-003  6.900473341557713E-006
  2.614196663561434E-003  6.900473341557713E-006
  2.799296359597015E-003  6.900473341557713E-006
  3.472946972581863E-003  6.900473341557713E-006
  3.523541823887104E-003  6.900473341557713E-006
  4.017872113049357E-003  6.900473341557713E-006
  4.022029592989739E-003  6.900473341557713E-006
 cut=1d-8, nber non-redundant internal coords=          66
 Check on Eigenvals of non-red overlap matrix:
  0.00000690  0.00001096  0.00001163  0.00002018  0.00002161  0.00002592  0.00003555  0.00004702
  0.00004778  0.00004903  0.00005480  0.00005962  0.00006091  0.00007802  0.00007860  0.00009760
  0.00010022  0.00010946  0.00011273  0.00012817  0.00012926  0.00013208  0.00015634  0.00020236
  0.00023025  0.00026457  0.00026952  0.00029502  0.00032183  0.00037655  0.00037793  0.00040387
  0.00042908  0.00043848  0.00044543  0.00059320  0.00059324  0.00059727  0.00059743  0.00061783
  0.00062187  0.00062752  0.00065500  0.00065537  0.00069302  0.00088685  0.00095568  0.00105005
  0.00105119  0.00111640  0.00111665  0.00115771  0.00115789  0.00116927  0.00116935  0.00120734
  0.00166402  0.00181567  0.00185415  0.00215296  0.00261420  0.00279930  0.00347295  0.00352354
  0.00401787  0.00402203
 Checking for correct frequencies
 recalc frequencies=
    -0.0   -0.0   -0.0    0.0    0.0    0.0   52.8   91.5  122.9  157.1
   245.1  272.6  318.6  365.3  386.3  400.5  413.9  440.7  452.7  465.5
   565.4  571.8  610.8  632.4  674.6  691.5  695.7  728.4  755.6  765.4
   783.1  799.6  849.8  859.6  909.7  929.7  933.1  986.8  988.5 1010.4
  1045.2 1053.4 1070.3 1103.6 1130.0 1164.9 1169.7 1230.0 1230.5 1257.5
  1275.3 1322.5 1350.6 1363.4 1451.7 1452.6 1488.4 1501.7 1546.0 1548.3
  1588.6 1596.9 1624.0 1634.1 3129.7 3130.4 3147.0 3150.6 3166.5 3180.7
  3184.8 3185.5
 recalc symmetries=
     B2     A2     B1     B1     B2     A1     A2     B1     A2     B1 
     A1     A2     B2     A1     B1     B2     A1     A2     B1     A1 
     B1     A2     B2     B2     B2     A1     A2     B1     B1     A2 
     A2     A1     A2     B1     A2     B1     B2     B1     A2     B2 
     A1     B2     A1     A1     B2     A1     B2     A1     B2     A1 
     B2     A1     B2     A1     B2     A1     B2     A1     B2     A1 
     B2     A1     A1     B2     B2     A1     B2     A1     B2     A1 
     B2     A1 
 recalc freqs check OK
 Zero-point lengths:
 10.0000 10.0000 10.0000 10.0000 10.0000 10.0000 34.1320 25.9203 22.3585 19.7788
 15.8356 15.0155 13.8889 12.9714 12.6142 12.3874 12.1854 11.8090 11.6522 11.4901
 10.4257 10.3671 10.0307  9.8581  9.5447  9.4275  9.3993  9.1858  9.0187  8.9606
  8.8592  8.7672  8.5045  8.4557  8.2194  8.1306  8.1157  7.8920  7.8851  7.7994
  7.6683  7.6383  7.5780  7.4626  7.3749  7.2635  7.2487  7.0688  7.0673  6.9910
  6.9422  6.8170  6.7458  6.7140  6.5067  6.5045  6.4259  6.3975  6.3050  6.3004
  6.2199  6.2037  6.1517  6.1327  4.4315  4.4309  4.4192  4.4167  4.4056  4.3957
  4.3929  4.3924
 highest evec of mol 2
  0.0000  0.0020 -0.0006
  0.0000 -0.0016  0.0028
  0.0000  0.0016  0.0028
  0.0000 -0.0020 -0.0006
  0.0000 -0.0026  0.0013
  0.0000  0.0814  0.1663
  0.0000  0.0469 -0.0048
  0.0000  0.0146 -0.0272
  0.0000 -0.0313 -0.0587
  0.0000 -0.0024  0.0002
  0.0000  0.0024  0.0002
  0.0000  0.0313 -0.0587
  0.0000 -0.0146 -0.0272
  0.0000 -0.0469 -0.0048
  0.0000 -0.0814  0.1663
  0.0000  0.0026  0.0013
  0.0000 -0.2829 -0.5477
  0.0000 -0.1400 -0.0017
  0.0000 -0.0473  0.0798
  0.0000  0.1061  0.1965
  0.0000 -0.1061  0.1965
  0.0000  0.0473  0.0798
  0.0000  0.1400 -0.0017
  0.0000  0.2829 -0.5477
 Enter nber and list of atoms to keep of mol #2
 keep list:          24           1           2           3           4
           5           6           7           8           9          10
          11          12          13          14          15          16
          17          18          19          20          21          22
          23          24
 reordering atoms
           1   1.39606400000000     
           2  0.741140000000000     
           3 -0.741140000000000     
           4  -1.39606400000000     
           5  -1.42341500000000     
           6  -2.83498100000000     
           7  -3.55858400000000     
           8  -2.87960100000000     
           9  -1.49538700000000     
          10 -0.730276000000000     
          11  0.730276000000000     
          12   1.49538700000000     
          13   2.87960100000000     
          14   3.55858400000000     
          15   2.83498100000000     
          16   1.42341500000000     
          17  -3.31747400000000     
          18  -4.64475500000000     
          19  -3.43495100000000     
          20 -0.994796000000000     
          21  0.994796000000000     
          22   3.43495100000000     
          23   4.64475500000000     
          24   3.31747400000000     
           1           1
           2           2
           3           3
           4           4
           5           5
           6           6
           7           7
           8           8
           9           9
          10          10
          11          11
          12          12
          13          13
          14          14
          15          15
          16          16
          17          17
          18          18
          19          19
          20          20
          21          21
          22          22
          23          23
          24          24
 initial cartes coords mol 1
   8  -0.00000   2.69891   1.36387
   6   0.00000   1.64136   0.77443
   6  -0.00000   1.64136  -0.77443
   8   0.00000   2.69891  -1.36387
   6   0.00000   0.32756  -1.46471
   6   0.00000   0.32857  -2.86439
   6   0.00000  -0.86164  -3.57410
   6   0.00000  -2.06766  -2.87334
   6   0.00000  -2.07850  -1.48354
   6   0.00000  -0.88709  -0.74240
   6  -0.00000  -0.88709   0.74240
   6  -0.00000  -2.07850   1.48354
   6  -0.00000  -2.06766   2.87334
   6  -0.00000  -0.86164   3.57410
   6  -0.00000   0.32857   2.86439
   6  -0.00000   0.32756   1.46471
   1   0.00000   1.28767  -3.36742
   1   0.00000  -0.85554  -4.65759
   1   0.00000  -3.00868  -3.41172
   1   0.00000  -3.03581  -0.98044
   1  -0.00000  -3.03581   0.98044
   1  -0.00000  -3.00868   3.41172
   1  -0.00000  -0.85554   4.65759
   1  -0.00000   1.28767   3.36742
 initial cartes coords mol 2
   8   0.00000   2.70712   1.39606
   6   0.00000   1.64458   0.74114
   6   0.00000   1.64458  -0.74114
   8   0.00000   2.70712  -1.39606
   6   0.00000   0.33482  -1.42342
   6   0.00000   0.33245  -2.83498
   6   0.00000  -0.84248  -3.55858
   6   0.00000  -2.07351  -2.87960
   6   0.00000  -2.09480  -1.49539
   6   0.00000  -0.90941  -0.73028
   6   0.00000  -0.90941   0.73028
   6   0.00000  -2.09480   1.49539
   6   0.00000  -2.07351   2.87960
   6   0.00000  -0.84248   3.55858
   6   0.00000   0.33245   2.83498
   6   0.00000   0.33482   1.42342
   1   0.00000   1.30294  -3.31747
   1   0.00000  -0.81850  -4.64475
   1   0.00000  -3.00674  -3.43495
   1   0.00000  -3.05603  -0.99480
   1   0.00000  -3.05603   0.99480
   1   0.00000  -3.00674   3.43495
   1   0.00000  -0.81850   4.64475
   1   0.00000   1.30294   3.31747
 loop 1 0
 mod cartes coords mol 2
   8   0.00000   2.70712   1.39606
   6   0.00000   1.64458   0.74114
   6   0.00000   1.64458  -0.74114
   8   0.00000   2.70712  -1.39606
   6   0.00000   0.33482  -1.42342
   6   0.00000   0.33245  -2.83498
   6   0.00000  -0.84248  -3.55858
   6   0.00000  -2.07351  -2.87960
   6   0.00000  -2.09480  -1.49539
   6   0.00000  -0.90941  -0.73028
   6   0.00000  -0.90941   0.73028
   6   0.00000  -2.09480   1.49539
   6   0.00000  -2.07351   2.87960
   6   0.00000  -0.84248   3.55858
   6   0.00000   0.33245   2.83498
   6   0.00000   0.33482   1.42342
   1   0.00000   1.30294  -3.31747
   1   0.00000  -0.81850  -4.64475
   1   0.00000  -3.00674  -3.43495
   1   0.00000  -3.05603  -0.99480
   1   0.00000  -3.05603   0.99480
   1   0.00000  -3.00674   3.43495
   1   0.00000  -0.81850   4.64475
   1   0.00000   1.30294   3.31747
 read in order, maxerr=  0.05 for atom  17
 final axis swaps:           1           1           1
 final xyz swap pattern=           1
 reorder list:
   1   2   3   4   5   6   7   8   9  10  11  12  13  14  15  16  17  18  19  20
  21  22  23  24
 axis signs=           1           1           1
  8     0.000000  2.707123  1.396064    -0.000000  2.698910  1.363872
  6     0.000000  1.644578  0.741140     0.000001  1.641364  0.774434
  6     0.000000  1.644578 -0.741140    -0.000001  1.641364 -0.774434
  8     0.000000  2.707123 -1.396064     0.000000  2.698910 -1.363872
  6     0.000000  0.334818 -1.423415     0.000000  0.327557 -1.464708
  6     0.000000  0.332448 -2.834981     0.000000  0.328574 -2.864388
  6     0.000000 -0.842483 -3.558584     0.000000 -0.861642 -3.574096
  6     0.000000 -2.073508 -2.879601     0.000000 -2.067660 -2.873340
  6     0.000000 -2.094795 -1.495387     0.000000 -2.078505 -1.483544
  6     0.000000 -0.909406 -0.730276     0.000000 -0.887092 -0.742396
  6     0.000000 -0.909406  0.730276    -0.000000 -0.887092  0.742396
  6     0.000000 -2.094795  1.495387    -0.000000 -2.078505  1.483544
  6     0.000000 -2.073508  2.879601    -0.000000 -2.067660  2.873340
  6     0.000000 -0.842483  3.558584    -0.000000 -0.861642  3.574096
  6     0.000000  0.332448  2.834981    -0.000000  0.328574  2.864388
  6     0.000000  0.334818  1.423415    -0.000000  0.327557  1.464708
  1     0.000000  1.302944 -3.317474     0.000000  1.287669 -3.367417
  1     0.000000 -0.818502 -4.644755     0.000000 -0.855545 -4.657587
  1     0.000000 -3.006741 -3.434951     0.000000 -3.008681 -3.411718
  1     0.000000 -3.056034 -0.994796     0.000000 -3.035813 -0.980437
  1     0.000000 -3.056034  0.994796    -0.000000 -3.035813  0.980437
  1     0.000000 -3.006741  3.434951    -0.000000 -3.008681  3.411718
  1     0.000000 -0.818502  4.644755    -0.000000 -0.855545  4.657587
  1     0.000000  1.302944  3.317474    -0.000000  1.287669  3.367417
 generating redundant internal coords
         300        3600          24
 Adding extra bonds for z output only
           8           6           6           8           6           6
           6           6           6           6           6           6
           6           6           6           6           1           1
           1           1           1           1           1           1
 search for int coords
   1 str   2   1   1.248
   2 str   3   2   1.482
   3 str   4   3   1.248
   4 str   5   3   1.477
   5 str   6   5   1.412
   6 str   7   6   1.380
   7 str   8   7   1.406
   8 str   9   8   1.384
   9 str  10   5   1.424
  10 str  10   9   1.411
  11 str  11  10   1.461
  12 str  12  11   1.411
  13 str  13  12   1.384
  14 str  14  13   1.406
  15 str  15  14   1.380
  16 str  16   2   1.477
  17 str  16  11   1.424
  18 str  16  15   1.412
  19 str  17   6   1.084
  20 str  18   7   1.086
  21 str  19   8   1.086
  22 str  20   9   1.084
  23 str  21  12   1.084
  24 str  22  13   1.086
  25 str  23  14   1.086
  26 str  24  15   1.084
 nber stretches=          26
  27 ben   1   2   3
  28 prop tor   1   2   3   4
  29 prop tor   1   2   3   5
  30 ben   1   2  16
  31 prop tor   1   2  16  11
  32 prop tor   1   2  16  15
  33 ben   2   3   4
  34 ben   2   3   5
  35 prop tor   2   3   5   6
  36 prop tor   2   3   5  10
  37 ben   2  16  11
  38 ben   2  16  15
  39 ben   3   2  16
  40 prop tor   3   2  16  11
  41 prop tor   3   2  16  15
  42 ben   3   5   6
  43 prop tor   3   5   6   7
  44 prop tor   3   5   6  17
  45 ben   3   5  10
  46 prop tor   3   5  10   9
  47 prop tor   3   5  10  11
  48 ben   4   3   5
  49 prop tor   4   3   5   6
  50 prop tor   4   3   5  10
  51 ben   5   6   7
  52 prop tor   5   6   7   8
  53 prop tor   5   6   7  18
  54 ben   5   6  17
  55 ben   5  10   9
  56 ben   5  10  11
  57 prop tor   5  10  11  12
  58 prop tor   5  10  11  16
  59 ben   6   5  10
  60 prop tor   6   5  10   9
  61 prop tor   6   5  10  11
  62 ben   6   7   8
  63 prop tor   6   7   8   9
  64 prop tor   6   7   8  19
  65 ben   6   7  18
  66 ben   7   6  17
  67 ben   7   8   9
  68 prop tor   7   8   9  10
  69 prop tor   7   8   9  20
  70 ben   7   8  19
  71 ben   8   7  18
  72 ben   8   9  10
  73 prop tor   8   9  10   5
  74 prop tor   8   9  10  11
  75 ben   8   9  20
  76 ben   9   8  19
  77 ben   9  10  11
  78 prop tor   9  10  11  12
  79 prop tor   9  10  11  16
  80 prop tor  10   5   6   7
  81 prop tor  10   5   6  17
  82 ben  10   9  20
  83 ben  10  11  12
  84 prop tor  10  11  12  13
  85 prop tor  10  11  12  21
  86 ben  10  11  16
  87 prop tor  10  11  16   2
  88 prop tor  10  11  16  15
  89 ben  11  12  13
  90 prop tor  11  12  13  14
  91 prop tor  11  12  13  22
  92 ben  11  12  21
  93 ben  11  16  15
  94 ben  12  11  16
  95 prop tor  12  11  16   2
  96 prop tor  12  11  16  15
  97 ben  12  13  14
  98 prop tor  12  13  14  15
  99 prop tor  12  13  14  23
 100 ben  12  13  22
 101 ben  13  12  21
 102 ben  13  14  15
 103 prop tor  13  14  15  16
 104 prop tor  13  14  15  24
 105 ben  13  14  23
 106 ben  14  13  22
 107 ben  14  15  16
 108 prop tor  14  15  16   2
 109 prop tor  14  15  16  11
 110 ben  14  15  24
 111 ben  15  14  23
 112 prop tor  16   2   3   4
 113 prop tor  16   2   3   5
 114 prop tor  16  11  12  13
 115 prop tor  16  11  12  21
 116 ben  16  15  24
 117 prop tor  17   6   7   8
 118 prop tor  17   6   7  18
 119 prop tor  18   7   8   9
 120 prop tor  18   7   8  19
 121 prop tor  19   8   9  10
 122 prop tor  19   8   9  20
 123 prop tor  20   9  10   5
 124 prop tor  20   9  10  11
 125 prop tor  21  12  13  14
 126 prop tor  21  12  13  22
 127 prop tor  22  13  14  15
 128 prop tor  22  13  14  23
 129 prop tor  23  14  15  16
 130 prop tor  23  14  15  24
 131 prop tor  24  15  16   2
 132 prop tor  24  15  16  11
 nber bend=              42
 nber lin bend=           0
 nber prop tor=          64
 nber impr tor=           0
 nber tot redund int=         132
 generating redundant internal coords
         300        3600          24
 search for int coords
   1 str   2   1   1.211
   2 str   3   2   1.549
   3 str   4   3   1.211
   4 str   5   3   1.484
   5 str   6   5   1.400
   6 str   7   6   1.386
   7 str   8   7   1.395
   8 str   9   8   1.390
   9 str  10   5   1.413
  10 str  10   9   1.403
  11 str  11  10   1.485
  12 str  12  11   1.403
  13 str  13  12   1.390
  14 str  14  13   1.395
  15 str  15  14   1.386
  16 str  16   2   1.484
  17 str  16  11   1.413
  18 str  16  15   1.400
  19 str  17   6   1.083
  20 str  18   7   1.084
  21 str  19   8   1.084
  22 str  20   9   1.081
  23 str  21  12   1.081
  24 str  22  13   1.084
  25 str  23  14   1.084
  26 str  24  15   1.083
 nber stretches=          26
  27 ben   1   2   3
  28 prop tor   1   2   3   4
  29 prop tor   1   2   3   5
  30 ben   1   2  16
  31 prop tor   1   2  16  11
  32 prop tor   1   2  16  15
  33 ben   2   3   4
  34 ben   2   3   5
  35 prop tor   2   3   5   6
  36 prop tor   2   3   5  10
  37 ben   2  16  11
  38 ben   2  16  15
  39 ben   3   2  16
  40 prop tor   3   2  16  11
  41 prop tor   3   2  16  15
  42 ben   3   5   6
  43 prop tor   3   5   6   7
  44 prop tor   3   5   6  17
  45 ben   3   5  10
  46 prop tor   3   5  10   9
  47 prop tor   3   5  10  11
  48 ben   4   3   5
  49 prop tor   4   3   5   6
  50 prop tor   4   3   5  10
  51 ben   5   6   7
  52 prop tor   5   6   7   8
  53 prop tor   5   6   7  18
  54 ben   5   6  17
  55 ben   5  10   9
  56 ben   5  10  11
  57 prop tor   5  10  11  12
  58 prop tor   5  10  11  16
  59 ben   6   5  10
  60 prop tor   6   5  10   9
  61 prop tor   6   5  10  11
  62 ben   6   7   8
  63 prop tor   6   7   8   9
  64 prop tor   6   7   8  19
  65 ben   6   7  18
  66 ben   7   6  17
  67 ben   7   8   9
  68 prop tor   7   8   9  10
  69 prop tor   7   8   9  20
  70 ben   7   8  19
  71 ben   8   7  18
  72 ben   8   9  10
  73 prop tor   8   9  10   5
  74 prop tor   8   9  10  11
  75 ben   8   9  20
  76 ben   9   8  19
  77 ben   9  10  11
  78 prop tor   9  10  11  12
  79 prop tor   9  10  11  16
  80 prop tor  10   5   6   7
  81 prop tor  10   5   6  17
  82 ben  10   9  20
  83 ben  10  11  12
  84 prop tor  10  11  12  13
  85 prop tor  10  11  12  21
  86 ben  10  11  16
  87 prop tor  10  11  16   2
  88 prop tor  10  11  16  15
  89 ben  11  12  13
  90 prop tor  11  12  13  14
  91 prop tor  11  12  13  22
  92 ben  11  12  21
  93 ben  11  16  15
  94 ben  12  11  16
  95 prop tor  12  11  16   2
  96 prop tor  12  11  16  15
  97 ben  12  13  14
  98 prop tor  12  13  14  15
  99 prop tor  12  13  14  23
 100 ben  12  13  22
 101 ben  13  12  21
 102 ben  13  14  15
 103 prop tor  13  14  15  16
 104 prop tor  13  14  15  24
 105 ben  13  14  23
 106 ben  14  13  22
 107 ben  14  15  16
 108 prop tor  14  15  16   2
 109 prop tor  14  15  16  11
 110 ben  14  15  24
 111 ben  15  14  23
 112 prop tor  16   2   3   4
 113 prop tor  16   2   3   5
 114 prop tor  16  11  12  13
 115 prop tor  16  11  12  21
 116 ben  16  15  24
 117 prop tor  17   6   7   8
 118 prop tor  17   6   7  18
 119 prop tor  18   7   8   9
 120 prop tor  18   7   8  19
 121 prop tor  19   8   9  10
 122 prop tor  19   8   9  20
 123 prop tor  20   9  10   5
 124 prop tor  20   9  10  11
 125 prop tor  21  12  13  14
 126 prop tor  21  12  13  22
 127 prop tor  22  13  14  15
 128 prop tor  22  13  14  23
 129 prop tor  23  14  15  16
 130 prop tor  23  14  15  24
 131 prop tor  24  15  16   2
 132 prop tor  24  15  16  11
 nber bend=              42
 nber lin bend=           0
 nber prop tor=          64
 nber impr tor=           0
 nber tot redund int=         132
 Eigenvalues of G in red int coords
    Gval -0.00000000 -0.00000000 -0.00000000 -0.00000000 -0.00000000 -0.00000000 -0.00000000 -0.00000000
    Gval -0.00000000 -0.00000000 -0.00000000 -0.00000000 -0.00000000 -0.00000000 -0.00000000 -0.00000000
    Gval -0.00000000 -0.00000000 -0.00000000 -0.00000000 -0.00000000 -0.00000000 -0.00000000 -0.00000000
    Gval -0.00000000 -0.00000000 -0.00000000 -0.00000000 -0.00000000 -0.00000000 -0.00000000 -0.00000000
    Gval -0.00000000 -0.00000000 -0.00000000 -0.00000000 -0.00000000 -0.00000000  0.00000000  0.00000000
    Gval  0.00000000  0.00000000  0.00000000  0.00000000  0.00000000  0.00000000  0.00000000  0.00000000
    Gval  0.00000000  0.00000000  0.00000000  0.00000000  0.00000000  0.00000000  0.00000000  0.00000000
    Gval  0.00000000  0.00000000  0.00000000  0.00000000  0.00000000  0.00000000  0.00000000  0.00000000
    Gval  0.00000000  0.00000000  0.00000686  0.00001102  0.00001192  0.00002011  0.00002200  0.00002623
    Gval  0.00003533  0.00004721  0.00004769  0.00004991  0.00005493  0.00005972  0.00006099  0.00007802
    Gval  0.00007842  0.00009775  0.00010118  0.00010940  0.00011330  0.00012793  0.00013005  0.00013491
    Gval  0.00015730  0.00020249  0.00023305  0.00026167  0.00026729  0.00029708  0.00031705  0.00037571
    Gval  0.00038107  0.00041828  0.00042011  0.00044024  0.00044636  0.00059320  0.00059324  0.00059736
    Gval  0.00059748  0.00061794  0.00062180  0.00062389  0.00065570  0.00065581  0.00068851  0.00089579
    Gval  0.00095020  0.00105465  0.00105574  0.00112174  0.00112207  0.00116069  0.00116086  0.00117396
    Gval  0.00117401  0.00118290  0.00167668  0.00183216  0.00186191  0.00216513  0.00264063  0.00281010
    Gval  0.00348561  0.00353633  0.00403128  0.00403475
  6.861249812500736E-006  6.861249812500736E-006
  1.102223483682826E-005  6.861249812500736E-006
  1.191807535950010E-005  6.861249812500736E-006
  2.010988833844590E-005  6.861249812500736E-006
  2.199979824403964E-005  6.861249812500736E-006
  2.622681071048520E-005  6.861249812500736E-006
  3.533032500857021E-005  6.861249812500736E-006
  4.720554796901538E-005  6.861249812500736E-006
  4.769261104022911E-005  6.861249812500736E-006
  4.991446427188343E-005  6.861249812500736E-006
  5.493236292848729E-005  6.861249812500736E-006
  5.971914301409234E-005  6.861249812500736E-006
  6.098741194823063E-005  6.861249812500736E-006
  7.802099092413004E-005  6.861249812500736E-006
  7.842196694043041E-005  6.861249812500736E-006
  9.774726383638180E-005  6.861249812500736E-006
  1.011808948503549E-004  6.861249812500736E-006
  1.093959268483992E-004  6.861249812500736E-006
  1.132975316395172E-004  6.861249812500736E-006
  1.279288471025090E-004  6.861249812500736E-006
  1.300454170317274E-004  6.861249812500736E-006
  1.349097833139337E-004  6.861249812500736E-006
  1.573030421383416E-004  6.861249812500736E-006
  2.024939795837969E-004  6.861249812500736E-006
  2.330485394526779E-004  6.861249812500736E-006
  2.616746095152445E-004  6.861249812500736E-006
  2.672853484280631E-004  6.861249812500736E-006
  2.970752677385908E-004  6.861249812500736E-006
  3.170478218944562E-004  6.861249812500736E-006
  3.757058096369828E-004  6.861249812500736E-006
  3.810661669011603E-004  6.861249812500736E-006
  4.182832710933747E-004  6.861249812500736E-006
  4.201103553256589E-004  6.861249812500736E-006
  4.402359220555768E-004  6.861249812500736E-006
  4.463613452226130E-004  6.861249812500736E-006
  5.932025642483501E-004  6.861249812500736E-006
  5.932427744800800E-004  6.861249812500736E-006
  5.973552035254497E-004  6.861249812500736E-006
  5.974806978434347E-004  6.861249812500736E-006
  6.179402004447846E-004  6.861249812500736E-006
  6.218004641944724E-004  6.861249812500736E-006
  6.238916821676634E-004  6.861249812500736E-006
  6.557027369307269E-004  6.861249812500736E-006
  6.558066568498163E-004  6.861249812500736E-006
  6.885119024432000E-004  6.861249812500736E-006
  8.957910566855388E-004  6.861249812500736E-006
  9.501968951596542E-004  6.861249812500736E-006
  1.054649163262649E-003  6.861249812500736E-006
  1.055742568939825E-003  6.861249812500736E-006
  1.121740124264613E-003  6.861249812500736E-006
  1.122071441940501E-003  6.861249812500736E-006
  1.160686377734970E-003  6.861249812500736E-006
  1.160856351532878E-003  6.861249812500736E-006
  1.173955539250294E-003  6.861249812500736E-006
  1.174007859396244E-003  6.861249812500736E-006
  1.182901647000647E-003  6.861249812500736E-006
  1.676677452287801E-003  6.861249812500736E-006
  1.832160124693492E-003  6.861249812500736E-006
  1.861909945496976E-003  6.861249812500736E-006
  2.165126016807097E-003  6.861249812500736E-006
  2.640634123808188E-003  6.861249812500736E-006
  2.810101086754959E-003  6.861249812500736E-006
  3.485608871376157E-003  6.861249812500736E-006
  3.536326148086117E-003  6.861249812500736E-006
  4.031280965338329E-003  6.861249812500736E-006
  4.034754860552457E-003  6.861249812500736E-006
 cut=1d-8, nber non-redundant internal coords=          66
 Check on Eigenvals of non-red overlap matrix:
  0.00000686  0.00001102  0.00001192  0.00002011  0.00002200  0.00002623  0.00003533  0.00004721
  0.00004769  0.00004991  0.00005493  0.00005972  0.00006099  0.00007802  0.00007842  0.00009775
  0.00010118  0.00010940  0.00011330  0.00012793  0.00013005  0.00013491  0.00015730  0.00020249
  0.00023305  0.00026167  0.00026729  0.00029708  0.00031705  0.00037571  0.00038107  0.00041828
  0.00042011  0.00044024  0.00044636  0.00059320  0.00059324  0.00059736  0.00059748  0.00061794
  0.00062180  0.00062389  0.00065570  0.00065581  0.00068851  0.00089579  0.00095020  0.00105465
  0.00105574  0.00112174  0.00112207  0.00116069  0.00116086  0.00117396  0.00117401  0.00118290
  0.00167668  0.00183216  0.00186191  0.00216513  0.00264063  0.00281010  0.00348561  0.00353633
  0.00403128  0.00403475
 generating redundant internal coords
         300        3600          24
 search for int coords
   1 str   2   1   1.248
   2 str   3   2   1.482
   3 str   4   3   1.248
   4 str   5   3   1.477
   5 str   6   5   1.412
   6 str   7   6   1.380
   7 str   8   7   1.406
   8 str   9   8   1.384
   9 str  10   5   1.424
  10 str  10   9   1.411
  11 str  11  10   1.461
  12 str  12  11   1.411
  13 str  13  12   1.384
  14 str  14  13   1.406
  15 str  15  14   1.380
  16 str  16   2   1.477
  17 str  16  11   1.424
  18 str  16  15   1.412
  19 str  17   6   1.084
  20 str  18   7   1.086
  21 str  19   8   1.086
  22 str  20   9   1.084
  23 str  21  12   1.084
  24 str  22  13   1.086
  25 str  23  14   1.086
  26 str  24  15   1.084
 nber stretches=          26
  27 ben   1   2   3
  28 prop tor   1   2   3   4
  29 prop tor   1   2   3   5
  30 ben   1   2  16
  31 prop tor   1   2  16  11
  32 prop tor   1   2  16  15
  33 ben   2   3   4
  34 ben   2   3   5
  35 prop tor   2   3   5   6
  36 prop tor   2   3   5  10
  37 ben   2  16  11
  38 ben   2  16  15
  39 ben   3   2  16
  40 prop tor   3   2  16  11
  41 prop tor   3   2  16  15
  42 ben   3   5   6
  43 prop tor   3   5   6   7
  44 prop tor   3   5   6  17
  45 ben   3   5  10
  46 prop tor   3   5  10   9
  47 prop tor   3   5  10  11
  48 ben   4   3   5
  49 prop tor   4   3   5   6
  50 prop tor   4   3   5  10
  51 ben   5   6   7
  52 prop tor   5   6   7   8
  53 prop tor   5   6   7  18
  54 ben   5   6  17
  55 ben   5  10   9
  56 ben   5  10  11
  57 prop tor   5  10  11  12
  58 prop tor   5  10  11  16
  59 ben   6   5  10
  60 prop tor   6   5  10   9
  61 prop tor   6   5  10  11
  62 ben   6   7   8
  63 prop tor   6   7   8   9
  64 prop tor   6   7   8  19
  65 ben   6   7  18
  66 ben   7   6  17
  67 ben   7   8   9
  68 prop tor   7   8   9  10
  69 prop tor   7   8   9  20
  70 ben   7   8  19
  71 ben   8   7  18
  72 ben   8   9  10
  73 prop tor   8   9  10   5
  74 prop tor   8   9  10  11
  75 ben   8   9  20
  76 ben   9   8  19
  77 ben   9  10  11
  78 prop tor   9  10  11  12
  79 prop tor   9  10  11  16
  80 prop tor  10   5   6   7
  81 prop tor  10   5   6  17
  82 ben  10   9  20
  83 ben  10  11  12
  84 prop tor  10  11  12  13
  85 prop tor  10  11  12  21
  86 ben  10  11  16
  87 prop tor  10  11  16   2
  88 prop tor  10  11  16  15
  89 ben  11  12  13
  90 prop tor  11  12  13  14
  91 prop tor  11  12  13  22
  92 ben  11  12  21
  93 ben  11  16  15
  94 ben  12  11  16
  95 prop tor  12  11  16   2
  96 prop tor  12  11  16  15
  97 ben  12  13  14
  98 prop tor  12  13  14  15
  99 prop tor  12  13  14  23
 100 ben  12  13  22
 101 ben  13  12  21
 102 ben  13  14  15
 103 prop tor  13  14  15  16
 104 prop tor  13  14  15  24
 105 ben  13  14  23
 106 ben  14  13  22
 107 ben  14  15  16
 108 prop tor  14  15  16   2
 109 prop tor  14  15  16  11
 110 ben  14  15  24
 111 ben  15  14  23
 112 prop tor  16   2   3   4
 113 prop tor  16   2   3   5
 114 prop tor  16  11  12  13
 115 prop tor  16  11  12  21
 116 ben  16  15  24
 117 prop tor  17   6   7   8
 118 prop tor  17   6   7  18
 119 prop tor  18   7   8   9
 120 prop tor  18   7   8  19
 121 prop tor  19   8   9  10
 122 prop tor  19   8   9  20
 123 prop tor  20   9  10   5
 124 prop tor  20   9  10  11
 125 prop tor  21  12  13  14
 126 prop tor  21  12  13  22
 127 prop tor  22  13  14  15
 128 prop tor  22  13  14  23
 129 prop tor  23  14  15  16
 130 prop tor  23  14  15  24
 131 prop tor  24  15  16   2
 132 prop tor  24  15  16  11
 nber bend=              42
 nber lin bend=           0
 nber prop tor=          64
 nber impr tor=           0
 nber tot redund int=         132
 Eigenvalues of G in red int coords
    Gval -0.00000000 -0.00000000 -0.00000000 -0.00000000 -0.00000000 -0.00000000 -0.00000000 -0.00000000
    Gval -0.00000000 -0.00000000 -0.00000000 -0.00000000 -0.00000000 -0.00000000 -0.00000000 -0.00000000
    Gval -0.00000000 -0.00000000 -0.00000000 -0.00000000 -0.00000000 -0.00000000 -0.00000000 -0.00000000
    Gval -0.00000000 -0.00000000 -0.00000000 -0.00000000 -0.00000000 -0.00000000 -0.00000000 -0.00000000
    Gval -0.00000000 -0.00000000 -0.00000000 -0.00000000  0.00000000  0.00000000  0.00000000  0.00000000
    Gval  0.00000000  0.00000000  0.00000000  0.00000000  0.00000000  0.00000000  0.00000000  0.00000000
    Gval  0.00000000  0.00000000  0.00000000  0.00000000  0.00000000  0.00000000  0.00000000  0.00000000
    Gval  0.00000000  0.00000000  0.00000000  0.00000000  0.00000000  0.00000000  0.00000000  0.00000000
    Gval  0.00000000  0.00000000  0.00000690  0.00001096  0.00001163  0.00002018  0.00002161  0.00002592
    Gval  0.00003555  0.00004702  0.00004778  0.00004903  0.00005480  0.00005962  0.00006091  0.00007802
    Gval  0.00007860  0.00009760  0.00010022  0.00010946  0.00011273  0.00012817  0.00012926  0.00013208
    Gval  0.00015634  0.00020236  0.00023025  0.00026457  0.00026952  0.00029502  0.00032183  0.00037655
    Gval  0.00037793  0.00040387  0.00042908  0.00043848  0.00044543  0.00059320  0.00059324  0.00059727
    Gval  0.00059743  0.00061783  0.00062187  0.00062752  0.00065500  0.00065537  0.00069302  0.00088685
    Gval  0.00095568  0.00105005  0.00105119  0.00111640  0.00111665  0.00115771  0.00115789  0.00116927
    Gval  0.00116935  0.00120734  0.00166402  0.00181567  0.00185415  0.00215296  0.00261420  0.00279930
    Gval  0.00347295  0.00352354  0.00401787  0.00402203
  6.900473341557624E-006  6.900473341557624E-006
  1.096367433821179E-005  6.900473341557624E-006
  1.163428963870908E-005  6.900473341557624E-006
  2.018233581486477E-005  6.900473341557624E-006
  2.160546816327133E-005  6.900473341557624E-006
  2.592367150864319E-005  6.900473341557624E-006
  3.554595209200165E-005  6.900473341557624E-006
  4.702168168916227E-005  6.900473341557624E-006
  4.777693008978088E-005  6.900473341557624E-006
  4.902543943502391E-005  6.900473341557624E-006
  5.480390301265199E-005  6.900473341557624E-006
  5.962023504908136E-005  6.900473341557624E-006
  6.091241902271255E-005  6.900473341557624E-006
  7.801605039146450E-005  6.900473341557624E-006
  7.860485693567296E-005  6.900473341557624E-006
  9.759886098653346E-005  6.900473341557624E-006
  1.002182703365897E-004  6.900473341557624E-006
  1.094577861242123E-004  6.900473341557624E-006
  1.127289923545992E-004  6.900473341557624E-006
  1.281725365546244E-004  6.900473341557624E-006
  1.292622678075746E-004  6.900473341557624E-006
  1.320839854114865E-004  6.900473341557624E-006
  1.563440368910668E-004  6.900473341557624E-006
  2.023627849000421E-004  6.900473341557624E-006
  2.302513009197346E-004  6.900473341557624E-006
  2.645714845742036E-004  6.900473341557624E-006
  2.695218269233260E-004  6.900473341557624E-006
  2.950218596454714E-004  6.900473341557624E-006
  3.218322930465005E-004  6.900473341557624E-006
  3.765467772077277E-004  6.900473341557624E-006
  3.779292828322110E-004  6.900473341557624E-006
  4.038672845700318E-004  6.900473341557624E-006
  4.290819001692092E-004  6.900473341557624E-006
  4.384813932692291E-004  6.900473341557624E-006
  4.454333170323812E-004  6.900473341557624E-006
  5.932025708744616E-004  6.900473341557624E-006
  5.932425923011346E-004  6.900473341557624E-006
  5.972697994434121E-004  6.900473341557624E-006
  5.974348581794523E-004  6.900473341557624E-006
  6.178269905817762E-004  6.900473341557624E-006
  6.218722408549622E-004  6.900473341557624E-006
  6.275223893510162E-004  6.900473341557624E-006
  6.549980541085947E-004  6.900473341557624E-006
  6.553665547678723E-004  6.900473341557624E-006
  6.930228379566945E-004  6.900473341557624E-006
  8.868486916651841E-004  6.900473341557624E-006
  9.556824282558217E-004  6.900473341557624E-006
  1.050046053132736E-003  6.900473341557624E-006
  1.051193803203105E-003  6.900473341557624E-006
  1.116401328577548E-003  6.900473341557624E-006
  1.116645241271112E-003  6.900473341557624E-006
  1.157705052498824E-003  6.900473341557624E-006
  1.157894589773518E-003  6.900473341557624E-006
  1.169273864754711E-003  6.900473341557624E-006
  1.169345618513292E-003  6.900473341557624E-006
  1.207335630386648E-003  6.900473341557624E-006
  1.664021789284859E-003  6.900473341557624E-006
  1.815671747111610E-003  6.900473341557624E-006
  1.854146849595051E-003  6.900473341557624E-006
  2.152962215009743E-003  6.900473341557624E-006
  2.614196663561434E-003  6.900473341557624E-006
  2.799296359597016E-003  6.900473341557624E-006
  3.472946972581868E-003  6.900473341557624E-006
  3.523541823887106E-003  6.900473341557624E-006
  4.017872113049359E-003  6.900473341557624E-006
  4.022029592989741E-003  6.900473341557624E-006
 cut=1d-8, nber non-redundant internal coords=          66
 Check on Eigenvals of non-red overlap matrix:
  0.00000690  0.00001096  0.00001163  0.00002018  0.00002161  0.00002592  0.00003555  0.00004702
  0.00004778  0.00004903  0.00005480  0.00005962  0.00006091  0.00007802  0.00007860  0.00009760
  0.00010022  0.00010946  0.00011273  0.00012817  0.00012926  0.00013208  0.00015634  0.00020236
  0.00023025  0.00026457  0.00026952  0.00029502  0.00032183  0.00037655  0.00037793  0.00040387
  0.00042908  0.00043848  0.00044543  0.00059320  0.00059324  0.00059727  0.00059743  0.00061783
  0.00062187  0.00062752  0.00065500  0.00065537  0.00069302  0.00088685  0.00095568  0.00105005
  0.00105119  0.00111640  0.00111665  0.00115771  0.00115789  0.00116927  0.00116935  0.00120734
  0.00166402  0.00181567  0.00185415  0.00215296  0.00261420  0.00279930  0.00347295  0.00352354
  0.00401787  0.00402203
 d1=
   1.9  -3.6   0.0  -0.0  -5.5  12.4  -0.0   0.0  -0.0   0.0   1.3  -0.0   3.5   0.0  -4.8  -0.0   0.9   0.0  -0.0   4.4
  -4.2  -0.0   4.1  -0.0   0.0  -0.0  -3.7  -2.4   0.0  -0.0   2.7   0.0  -0.0  -0.5  -0.0   0.1   0.0  -0.2   0.0  -0.6
   0.0   0.0  -0.0  -0.0  -0.0  -0.0   0.0   1.1  -0.0  -0.0   0.5  -0.6   0.0  -0.0  -0.3  -0.0  -0.0   0.0  -0.0  -0.0
  -0.0  -0.0   0.0  -0.0   0.0   0.0
 d2=
   1.9  -4.2   0.0   0.0   3.6  12.9   0.0   0.0   0.0   0.0  -1.5  -0.0  -3.9  -0.0  -4.8   0.0   1.2   0.0  -0.0  -4.7
   4.1  -0.0  -4.1  -0.0   0.0  -3.7  -0.0  -2.4  -0.0   0.0   2.6   0.0  -0.0  -0.5  -0.0  -0.1   0.0   0.2   0.0   0.6
   0.0   0.0   0.0  -0.0   0.0  -0.0   0.0  -1.1  -0.0  -0.0   0.5   0.7  -0.0  -0.0  -0.2  -0.0   0.0  -0.0   0.0   0.0
   0.0   0.0  -0.0   0.0  -0.0  -0.0
 curvilinear- renormalizn of Dush matrix done
  mol 1 sym            1  -> mol 2 sym            1
  mol 1 sym            2  -> mol 2 sym            2
  mol 1 sym            3  -> mol 2 sym            3
  mol 1 sym            4  -> mol 2 sym            4

 Dushinsky matrix, ncs 2 in terms of ncs 1

   mode   freq    coeff     %      %tot     of    at

   1 B2     -0.  0.0000     0.0     0.0  24 B2    631.
   2 A2     -0.  0.0000     0.0     0.0   7 A2     25.
   3 B1     -0.  0.0000     0.0     0.0   8 B1     85.
   4 B1      0.  0.0000     0.0     0.0   8 B1     85.
   5 B2      0.  0.0000     0.0     0.0  24 B2    631.
   6 A1      0. -0.0000     0.0     0.0  26 A1    693.
   7 A2     53.  0.9948    99.0    97.8   7 A2     25.
   8 B1     91.  0.9973    99.5    99.8   8 B1     85.
   9 A2    123. -0.9913    98.3    99.2   9 A2    102.
  10 B1    157.  0.9962    99.2   101.0  10 B1    152.
  11 A1    245.  0.9991    99.8   100.0  11 A1    243.
  12 A2    273.  0.9954    99.1   103.2  12 A2    259.
  13 B2    319.  0.9996    99.9    95.8  13 B2    319.
  14 A1    365.  0.9977    99.5    97.5  14 A1    366.
  15 B1    386. -0.9953    99.1    96.4  15 B1    386.
  16 B2    401.  0.9994    99.9   102.2  16 B2    389.
  17 A1    414.  0.9909    98.2    98.6  17 A1    401.
  18 A2    441. -0.9901    98.0    99.6  18 A2    431.
  19 B1    453.  0.9907    98.1   100.6  19 B1    449.
  20 A1    466. -0.9944    98.9   101.0  20 A1    463.
  21 B1    565.  0.9915    98.3    98.3  21 B1    556.
  22 A2    572.  0.9925    98.5   100.5  22 A2    566.
  23 B2    611.  0.9712    94.3   100.6  23 B2    616.
  24 B2    632.  0.9715    94.4   100.4  24 B2    631.
  25 B2    675.  0.9983    99.7    98.4  25 B2    683.
  26 A1    691. -0.9977    99.5    99.5  26 A1    693.
  27 A2    696. -0.9873    97.5   100.3  27 A2    718.
  28 B1    728. -0.9830    96.6    99.4  28 B1    744.
  29 B1    756.  0.9670    93.5    99.4  29 B1    781.
  30 A2    765.  0.9863    97.3   100.2  31 A2    797.
  31 A2    783.  0.9424    88.8   101.9  32 A2    844.
  32 A1    800.  0.9981    99.6    99.4  30 A1    796.
  33 A2    850.  0.9518    90.6    99.4  34 A2    905.
  34 B1    860.  0.9690    93.9    98.9  33 B1    897.
  35 A2    910.  0.9381    88.0   100.0  36 A2    982.
  36 B1    930.  0.8991    80.8   100.0  37 B1    988.
                -0.3717    13.8          38 B1   1016.
  37 B2    933. -0.9945    98.9   102.2  35 B2    937.
  38 B1    987.  0.4041    16.3    99.4  37 B1    988.
                 0.9028    81.5          38 B1   1016.
  39 A2    988.  0.3260    10.6    99.4  36 A2    982.
                 0.9388    88.1          39 A2   1016.
  40 B2   1010. -0.9950    99.0    99.7  41 B2   1022.
  41 A1   1045. -0.8315    69.1    99.0  40 A1   1022.
                -0.5377    28.9          43 A1   1080.
  42 B2   1053.  0.9930    98.6   100.0  42 B2   1072.
  43 A1   1070. -0.5106    26.1    98.5  40 A1   1022.
                 0.8415    70.8          43 A1   1080.
  44 A1   1104. -0.9805    96.1    99.7  44 A1   1114.
  45 B2   1130.  0.9944    98.9   100.4  45 B2   1140.
  46 A1   1165. -0.9501    90.3    99.7  47 A1   1194.
  47 B2   1170. -0.9905    98.1    99.6  46 B2   1186.
  48 A1   1230.  0.9068    82.2    99.9  49 A1   1249.
  49 B2   1230. -0.9888    97.8   101.1  48 B2   1239.
  50 A1   1257.  0.3229    10.4    99.8  49 A1   1249.
                 0.8444    71.3          50 A1   1290.
  51 B2   1275. -0.9823    96.5    99.5  51 B2   1302.
  52 A1   1323. -0.9637    92.9   100.2  52 A1   1312.
  53 B2   1351. -0.9753    95.1   100.4  53 B2   1334.
  54 A1   1363. -0.9481    89.9    99.5  54 A1   1358.
  55 B2   1452. -0.8495    72.2    99.7  56 B2   1482.
  56 A1   1453.  0.9513    90.5    99.6  55 A1   1471.
  57 B2   1488. -0.3713    13.8    99.8  56 B2   1482.
                 0.9090    82.6          57 B2   1508.
  58 A1   1502.  0.8583    73.7    99.0  58 A1   1527.
  59 B2   1546. -0.3217    10.3   100.6  56 B2   1482.
                -0.4033    16.3          62 B2   1641.
                 0.7815    61.1          64 B2   1777.
  60 A1   1548.  0.4081    16.7   100.0  58 A1   1527.
                 0.7544    56.9          59 A1   1602.
                -0.4673    21.8          63 A1   1752.
  61 B2   1589.  0.9573    91.6   100.1  60 B2   1622.
  62 A1   1597.  0.5361    28.7   100.4  59 A1   1602.
                 0.8139    66.2          63 A1   1752.
  63 A1   1624. -0.9532    90.9   100.0  61 A1   1634.
  64 B2   1634.  0.8298    68.9   100.1  62 B2   1641.
                 0.5190    26.9          64 B2   1777.
  65 B2   3130.  0.9624    92.6   100.0  65 B2   3170.
  66 A1   3130.  0.9623    92.6   100.0  66 A1   3172.
  67 B2   3147. -0.9453    89.4   100.0  67 B2   3185.
  68 A1   3151. -0.9392    88.2   100.0  68 A1   3187.
  69 B2   3166.  0.9178    84.2   100.0  69 B2   3198.
                 0.3849    14.8          71 B2   3202.
  70 A1   3181. -0.4309    18.6   100.0  70 A1   3202.
                -0.8905    79.3          72 A1   3213.
  71 B2   3185.  0.3685    13.6   100.0  69 B2   3198.
                -0.9031    81.6          71 B2   3202.
  72 A1   3185.  0.8662    75.0   100.0  70 A1   3202.
                -0.4506    20.3          72 A1   3213.
 nber times 1st assigned=           1           0
 nber times 1st assigned=           2           0
 nber times 1st assigned=           3           0
 nber times 1st assigned=           4           0
 nber times 1st assigned=           5           0
 nber times 1st assigned=           6           0
 nber times 1st assigned=           8           2
 nber times 1st assigned=           9           0
 nber times 1st assigned=          10           0
 nber times 1st assigned=          11           0
 nber times 1st assigned=          12           0
 nber times 1st assigned=          13           0
 nber times 1st assigned=          14           0
 nber times 1st assigned=          15           0
 nber times 1st assigned=          16           0
 nber times 1st assigned=          17           0
 nber times 1st assigned=          18           0
 nber times 1st assigned=          19           0
 nber times 1st assigned=          20           0
 nber times 1st assigned=          21           0
 nber times 1st assigned=          22           0
 nber times 1st assigned=          23           0
 nber times 1st assigned=          24           2
 nber times 1st assigned=          25           0
 nber times 1st assigned=          27           0
 nber times 1st assigned=          28           0
 nber times 1st assigned=          29           0
 nber times 1st assigned=          30           0
 nber times 1st assigned=          31           0
 nber times 1st assigned=          32           0
 nber times 1st assigned=          33           0
 nber times 1st assigned=          34           0
 nber times 1st assigned=          35           0
 nber times 1st assigned=          36           0
 nber times 1st assigned=          37           0
 nber times 1st assigned=          38           0
 nber times 1st assigned=          39           0
 nber times 1st assigned=          40           0
 nber times 1st assigned=          41           0
 nber times 1st assigned=          42           0
 nber times 1st assigned=          43           0
 nber times 1st assigned=          44           0
 nber times 1st assigned=          45           0
 nber times 1st assigned=          46           0
 nber times 1st assigned=          47           0
 nber times 1st assigned=          48           0
 nber times 1st assigned=          49           0
 nber times 1st assigned=          50           0
 nber times 1st assigned=          51           0
 nber times 1st assigned=          52           0
 nber times 1st assigned=          53           0
 nber times 1st assigned=          54           0
 nber times 1st assigned=          55           0
 nber times 1st assigned=          56           0
 nber times 1st assigned=          57           0
 nber times 1st assigned=          58           0
 nber times 1st assigned=          59           0
 nber times 1st assigned=          60           0
 nber times 1st assigned=          61           0
 nber times 1st assigned=          62           0
 nber times 1st assigned=          63           0
 nber times 1st assigned=          64           0
 nber times 1st assigned=          65           0
 nber times 1st assigned=          66           0
 nber times 1st assigned=          67           0
 nber times 1st assigned=          68           0
 nber times 1st assigned=          69           0
 nber times 1st assigned=          70           0
 nber times 1st assigned=          71           0
 nber times 1st assigned=          72           0
 Dushinsky matrix written to .out file
 modes represented=   65.8669966891896     

 Dushinsky matrix, ncs 1 in terms of ncs 2

   mode   freq    coeff     %      %tot     of    at

   7 A2     25.  0.9948    99.0    98.2   7 A2     53.
   8 B1     85.  0.9973    99.5   100.7   8 B1     91.
   9 A2    102. -0.9913    98.3   100.0   9 A2    123.
  10 B1    152.  0.9962    99.2   101.3  10 B1    157.
  11 A1    243.  0.9991    99.8   100.2  11 A1    245.
  12 A2    259.  0.9954    99.1   103.1  12 A2    273.
  13 B2    319.  0.9996    99.9    96.2  13 B2    319.
  14 A1    366.  0.9977    99.5    98.1  14 A1    365.
  15 B1    386. -0.9953    99.1    97.0  15 B1    386.
  16 B2    389.  0.9994    99.9   102.9  16 B2    401.
  17 A1    401.  0.9909    98.2    99.0  17 A1    414.
  18 A2    431. -0.9901    98.0    99.1  18 A2    441.
  19 B1    449.  0.9907    98.1   100.1  19 B1    453.
  20 A1    463. -0.9944    98.9   100.8  20 A1    466.
  21 B1    556.  0.9915    98.3    97.7  21 B1    565.
  22 A2    566.  0.9925    98.5   100.6  22 A2    572.
  23 B2    616.  0.9712    94.3   101.2  23 B2    611.
  24 B2    631.  0.9715    94.4   100.3  24 B2    632.
  25 B2    683.  0.9983    99.7    98.2  25 B2    675.
  26 A1    693. -0.9977    99.5    99.5  26 A1    691.
  27 A2    718. -0.9873    97.5   100.0  27 A2    696.
  28 B1    744. -0.9830    96.6    99.1  28 B1    728.
  29 B1    781.  0.9670    93.5    99.1  29 B1    756.
  30 A1    796.  0.9981    99.6    99.2  32 A1    800.
  31 A2    797.  0.9863    97.3    99.8  30 A2    765.
  32 A2    844.  0.9424    88.8   101.4  31 A2    783.
  33 B1    897.  0.9690    93.9    98.9  34 B1    860.
  34 A2    905.  0.9518    90.6   100.0  33 A2    850.
  35 B2    937. -0.9945    98.9   101.6  37 B2    933.
  36 A2    982.  0.9381    88.0   100.0  35 A2    910.
                 0.3260    10.6          39 A2    988.
  37 B1    988.  0.8991    80.8   100.0  36 B1    930.
                 0.4041    16.3          38 B1    987.
  38 B1   1016. -0.3717    13.8    99.5  36 B1    930.
                 0.9028    81.5          38 B1    987.
  39 A2   1016.  0.9388    88.1    99.5  39 A2    988.
  40 A1   1022. -0.8315    69.1    97.8  41 A1   1045.
                -0.5106    26.1          43 A1   1070.
  41 B2   1022. -0.9950    99.0    99.6  40 B2   1010.
  42 B2   1072.  0.9930    98.6   100.1  42 B2   1053.
  43 A1   1080. -0.5377    28.9    99.6  41 A1   1045.
                 0.8415    70.8          43 A1   1070.
  44 A1   1114. -0.9805    96.1    99.7  44 A1   1104.
  45 B2   1140.  0.9944    98.9   100.3  45 B2   1130.
  46 B2   1186. -0.9905    98.1    99.6  47 B2   1170.
  47 A1   1194. -0.9501    90.3    99.7  46 A1   1165.
  48 B2   1239. -0.9888    97.8   100.9  49 B2   1230.
  49 A1   1249.  0.9068    82.2    99.7  48 A1   1230.
                 0.3229    10.4          50 A1   1257.
  50 A1   1290.  0.8444    71.3    99.8  50 A1   1257.
  51 B2   1302. -0.9823    96.5    99.5  51 B2   1275.
  52 A1   1312. -0.9637    92.9   100.0  52 A1   1323.
  53 B2   1334. -0.9753    95.1   100.3  53 B2   1351.
  54 A1   1358. -0.9481    89.9    99.5  54 A1   1363.
  55 A1   1471.  0.9513    90.5    99.6  56 A1   1453.
  56 B2   1482. -0.8495    72.2    99.6  55 B2   1452.
                -0.3713    13.8          57 B2   1488.
                -0.3217    10.3          59 B2   1546.
  57 B2   1508.  0.9090    82.6    99.8  57 B2   1488.
  58 A1   1527.  0.8583    73.7    99.5  58 A1   1502.
                 0.4081    16.7          60 A1   1548.
  59 A1   1602.  0.7544    56.9    99.7  60 A1   1548.
                 0.5361    28.7          62 A1   1597.
  60 B2   1622.  0.9573    91.6   100.0  61 B2   1589.
  61 A1   1634. -0.9532    90.9    99.8  63 A1   1624.
  62 B2   1641. -0.4033    16.3   100.0  59 B2   1546.
                 0.8298    68.9          64 B2   1634.
  63 A1   1752. -0.4673    21.8   100.2  60 A1   1548.
                 0.8139    66.2          62 A1   1597.
  64 B2   1777.  0.7815    61.1   100.3  59 B2   1546.
                 0.5190    26.9          64 B2   1634.
  65 B2   3170.  0.9624    92.6   100.0  65 B2   3130.
  66 A1   3172.  0.9623    92.6   100.0  66 A1   3130.
  67 B2   3185. -0.9453    89.4   100.0  67 B2   3147.
  68 A1   3187. -0.9392    88.2   100.0  68 A1   3151.
  69 B2   3198.  0.9178    84.2   100.0  69 B2   3166.
                 0.3685    13.6          71 B2   3185.
  70 A1   3202. -0.4309    18.6   100.0  70 A1   3181.
                 0.8662    75.0          72 A1   3185.
  71 B2   3202.  0.3849    14.8   100.0  69 B2   3166.
                -0.9031    81.6          71 B2   3185.
  72 A1   3213. -0.8905    79.3   100.0  70 A1   3181.
                -0.4506    20.3          72 A1   3185.
 nber times 1st assigned=           1           0
 nber times 1st assigned=           2           0
 nber times 1st assigned=           3           0
 nber times 1st assigned=           4           0
 nber times 1st assigned=           5           0
 nber times 1st assigned=           6           0
 nber times 1st assigned=           7           0
 nber times 1st assigned=           8           0
 nber times 1st assigned=           9           0
 nber times 1st assigned=          10           0
 nber times 1st assigned=          11           0
 nber times 1st assigned=          12           0
 nber times 1st assigned=          13           0
 nber times 1st assigned=          14           0
 nber times 1st assigned=          15           0
 nber times 1st assigned=          16           0
 nber times 1st assigned=          17           0
 nber times 1st assigned=          18           0
 nber times 1st assigned=          19           0
 nber times 1st assigned=          20           0
 nber times 1st assigned=          21           0
 nber times 1st assigned=          22           0
 nber times 1st assigned=          23           0
 nber times 1st assigned=          24           0
 nber times 1st assigned=          25           0
 nber times 1st assigned=          26           0
 nber times 1st assigned=          27           0
 nber times 1st assigned=          28           0
 nber times 1st assigned=          29           0
 nber times 1st assigned=          30           0
 nber times 1st assigned=          31           0
 nber times 1st assigned=          32           0
 nber times 1st assigned=          33           0
 nber times 1st assigned=          34           0
 nber times 1st assigned=          35           0
 nber times 1st assigned=          36           0
 nber times 1st assigned=          37           0
 nber times 1st assigned=          38           0
 nber times 1st assigned=          39           0
 nber times 1st assigned=          40           0
 nber times 1st assigned=          41           0
 nber times 1st assigned=          42           0
 nber times 1st assigned=          43           0
 nber times 1st assigned=          44           0
 nber times 1st assigned=          45           0
 nber times 1st assigned=          46           0
 nber times 1st assigned=          47           0
 nber times 1st assigned=          48           0
 nber times 1st assigned=          49           0
 nber times 1st assigned=          50           0
 nber times 1st assigned=          51           0
 nber times 1st assigned=          52           0
 nber times 1st assigned=          53           0
 nber times 1st assigned=          54           0
 nber times 1st assigned=          55           0
 nber times 1st assigned=          56           0
 nber times 1st assigned=          57           0
 nber times 1st assigned=          58           0
 nber times 1st assigned=          59           0
 nber times 1st assigned=          60           0
 nber times 1st assigned=          61           0
 nber times 1st assigned=          62           0
 nber times 1st assigned=          63           0
 nber times 1st assigned=          64           0
 nber times 1st assigned=          65           0
 nber times 1st assigned=          66           0
 nber times 1st assigned=          67           0
 nber times 1st assigned=          68           0
 nber times 1st assigned=          69           0
 nber times 1st assigned=          70           0
 nber times 1st assigned=          71           0
 nber times 1st assigned=          72           0
 modes represented=   65.8669966891896     
 p1=
    0.   -0.    0.   -0.   -0.    0.   -0.   -0.    0.    0.    6.    0.   -0.   13.    0.   -0.    5.    0.   -0.   -6.
    0.   -0.   -0.   -0.    0.    2.   -0.   -0.    0.   -1.   -0.    0.   -0.   -0.   -0.    0.    0.    0.    0.    5.
   -0.    0.   -0.   -1.   -0.    0.    1.    0.    0.    1.    0.   -2.   -0.    1.    2.   -0.    0.    2.   -1.    0.
   -1.   -0.   -6.    0.    0.    0.    0.   -0.   -0.   -0.    0.    0.
 p2=
    0.    0.   -0.    0.   -0.    0.    0.    0.    0.   -0.   -6.   -0.    0.  -13.    0.    0.   -6.    0.    0.   -6.
   -0.    0.    0.   -0.    0.    2.   -0.   -0.   -0.    0.   -0.    1.    0.    0.   -0.   -0.    0.   -0.   -0.    0.
    4.   -0.    2.   -2.   -0.    1.    0.   -0.   -0.   -1.    0.   -2.   -0.    0.    0.   -1.    0.    0.    0.   -3.
    0.    6.   -1.    0.   -0.   -0.    0.   -0.    0.    0.    0.    0.

 Displacement: in terms of nc of 1 THEN of nc of 2

   1 A1  freq=    -0. Q=  0.000 lam=    -0.0 B2  freq=    -0. Q=  0.000 lam=    -0.0
   2 B2  freq=    -0. Q= -0.000 lam=    -0.0 A2  freq=    -0. Q= -0.000 lam=    -0.0
   3 B2  freq=     0. Q=  0.000 lam=     0.0 B1  freq=    -0. Q=  0.000 lam=    -0.0
   4 B1  freq=     0. Q= -0.000 lam=     0.0 B1  freq=     0. Q= -0.000 lam=     0.0
   5 A2  freq=     0. Q= -0.000 lam=     0.0 B2  freq=     0. Q= -0.000 lam=     0.0
   6 B1  freq=     0. Q=  0.000 lam=     0.0 A1  freq=     0. Q=  0.000 lam=     0.0
   7 A2  freq=    25. Q= -0.000 lam=     0.0 A2  freq=    53. Q= -0.000 lam=     0.0
   8 B1  freq=    85. Q= -0.000 lam=     0.0 B1  freq=    91. Q= -0.000 lam=     0.0
   9 A2  freq=   102. Q=  0.000 lam=     0.0 A2  freq=   123. Q=  0.000 lam=     0.0
  10 B1  freq=   152. Q=  0.000 lam=     0.0 B1  freq=   157. Q=  0.000 lam=     0.0
  11 A1  freq=   243. Q=  0.365 lam=    16.2 A1  freq=   245. Q=  0.349 lam=    14.9
  12 A2  freq=   259. Q=  0.000 lam=     0.0 A2  freq=   273. Q=  0.000 lam=     0.0
  13 B2  freq=   319. Q= -0.000 lam=     0.0 B2  freq=   319. Q= -0.000 lam=     0.0
  14 A1  freq=   366. Q=  0.969 lam=   171.9 A1  freq=   365. Q=  0.970 lam=   171.9
  15 B1  freq=   386. Q=  0.000 lam=     0.0 B1  freq=   386. Q=  0.000 lam=     0.0
  16 B2  freq=   389. Q= -0.000 lam=     0.0 B2  freq=   401. Q= -0.000 lam=     0.0
  17 A1  freq=   401. Q=  0.383 lam=    29.4 A1  freq=   414. Q=  0.464 lam=    44.5
  18 A2  freq=   431. Q=  0.000 lam=     0.0 A2  freq=   441. Q=  0.000 lam=     0.0
  19 B1  freq=   449. Q= -0.000 lam=     0.0 B1  freq=   453. Q= -0.000 lam=     0.0
  20 A1  freq=   463. Q= -0.522 lam=    63.1 A1  freq=   466. Q= -0.484 lam=    54.6
  21 B1  freq=   556. Q=  0.000 lam=     0.0 B1  freq=   565. Q=  0.000 lam=     0.0
  22 A2  freq=   566. Q= -0.000 lam=     0.0 A2  freq=   572. Q= -0.000 lam=     0.0
  23 B2  freq=   616. Q= -0.000 lam=     0.0 B2  freq=   611. Q= -0.000 lam=     0.0
  24 B2  freq=   631. Q= -0.000 lam=     0.0 B2  freq=   632. Q= -0.000 lam=     0.0
  25 B2  freq=   683. Q=  0.000 lam=     0.0 B2  freq=   675. Q=  0.000 lam=     0.0
  26 A1  freq=   693. Q=  0.183 lam=    11.6 A1  freq=   691. Q=  0.187 lam=    12.0
  27 A2  freq=   718. Q= -0.000 lam=     0.0 A2  freq=   696. Q= -0.000 lam=     0.0
  28 B1  freq=   744. Q= -0.000 lam=     0.0 B1  freq=   728. Q= -0.000 lam=     0.0
  29 B1  freq=   781. Q=  0.000 lam=     0.0 B1  freq=   756. Q=  0.000 lam=     0.0
  30 A1  freq=   796. Q= -0.155 lam=     9.5 A2  freq=   765. Q= -0.000 lam=     0.0
  31 A2  freq=   797. Q= -0.000 lam=     0.0 A2  freq=   783. Q= -0.000 lam=     0.0
  32 A2  freq=   844. Q=  0.000 lam=     0.0 A1  freq=   800. Q=  0.123 lam=     6.1
  33 B1  freq=   897. Q= -0.000 lam=     0.0 A2  freq=   850. Q= -0.000 lam=     0.0
  34 A2  freq=   905. Q= -0.000 lam=     0.0 B1  freq=   860. Q= -0.000 lam=     0.0
  35 B2  freq=   937. Q= -0.000 lam=     0.0 A2  freq=   910. Q= -0.000 lam=     0.0
  36 A2  freq=   982. Q=  0.000 lam=     0.0 B1  freq=   930. Q=  0.000 lam=     0.0
  37 B1  freq=   988. Q=  0.000 lam=     0.0 B2  freq=   933. Q=  0.000 lam=     0.0
  38 B1  freq=  1016. Q=  0.000 lam=     0.0 B1  freq=   987. Q=  0.000 lam=     0.0
  39 A2  freq=  1016. Q=  0.000 lam=     0.0 A2  freq=   988. Q=  0.000 lam=     0.0
  40 A1  freq=  1022. Q=  0.612 lam=   191.5 B2  freq=  1010. Q=  0.000 lam=     0.0
  41 B2  freq=  1022. Q= -0.000 lam=     0.0 A1  freq=  1045. Q= -0.489 lam=   125.1
  42 B2  freq=  1072. Q=  0.000 lam=     0.0 B2  freq=  1053. Q=  0.000 lam=     0.0
  43 A1  freq=  1080. Q= -0.008 lam=     0.0 A1  freq=  1070. Q= -0.269 lam=    38.8
  44 A1  freq=  1114. Q= -0.143 lam=    11.4 A1  freq=  1104. Q= -0.223 lam=    27.4
  45 B2  freq=  1140. Q= -0.000 lam=     0.0 B2  freq=  1130. Q= -0.000 lam=     0.0
  46 B2  freq=  1186. Q=  0.000 lam=     0.0 A1  freq=  1165. Q=  0.135 lam=    10.6
  47 A1  freq=  1194. Q=  0.097 lam=     5.6 B2  freq=  1170. Q=  0.000 lam=     0.0
  48 B2  freq=  1239. Q=  0.000 lam=     0.0 A1  freq=  1230. Q=  0.011 lam=     0.1
  49 A1  freq=  1249. Q=  0.049 lam=     1.5 B2  freq=  1230. Q=  0.000 lam=     0.0
  50 A1  freq=  1290. Q=  0.097 lam=     6.0 A1  freq=  1257. Q=  0.103 lam=     6.7
  51 B2  freq=  1302. Q=  0.000 lam=     0.0 B2  freq=  1275. Q=  0.000 lam=     0.0
  52 A1  freq=  1312. Q= -0.221 lam=    32.0 A1  freq=  1323. Q= -0.269 lam=    47.7
  53 B2  freq=  1334. Q= -0.000 lam=     0.0 B2  freq=  1351. Q= -0.000 lam=     0.0
  54 A1  freq=  1358. Q=  0.084 lam=     4.8 A1  freq=  1363. Q=  0.041 lam=     1.2
  55 A1  freq=  1471. Q=  0.233 lam=    40.0 B2  freq=  1452. Q=  0.000 lam=     0.0
  56 B2  freq=  1482. Q= -0.000 lam=     0.0 A1  freq=  1453. Q= -0.202 lam=    29.6
  57 B2  freq=  1508. Q=  0.000 lam=     0.0 B2  freq=  1488. Q=  0.000 lam=     0.0
  58 A1  freq=  1527. Q=  0.259 lam=    51.3 A1  freq=  1502. Q=  0.077 lam=     4.5
  59 A1  freq=  1602. Q= -0.148 lam=    17.5 B2  freq=  1546. Q= -0.000 lam=     0.0
  60 B2  freq=  1622. Q=  0.000 lam=     0.0 A1  freq=  1548. Q=  0.482 lam=   180.1
  61 A1  freq=  1634. Q= -0.194 lam=    30.8 B2  freq=  1589. Q= -0.000 lam=     0.0
  62 B2  freq=  1641. Q= -0.000 lam=     0.0 A1  freq=  1597. Q= -0.898 lam=   643.6
  63 A1  freq=  1752. Q= -0.973 lam=   830.0 A1  freq=  1624. Q= -0.237 lam=    45.8
  64 B2  freq=  1777. Q=  0.000 lam=     0.0 B2  freq=  1634. Q=  0.000 lam=     0.0
  65 B2  freq=  3170. Q=  0.000 lam=     0.0 B2  freq=  3130. Q=  0.000 lam=     0.0
  66 A1  freq=  3172. Q=  0.006 lam=     0.1 A1  freq=  3130. Q=  0.017 lam=     0.4
  67 B2  freq=  3185. Q=  0.000 lam=     0.0 B2  freq=  3147. Q=  0.000 lam=     0.0
  68 A1  freq=  3187. Q= -0.028 lam=     1.3 A1  freq=  3151. Q= -0.029 lam=     1.3
  69 B2  freq=  3198. Q= -0.000 lam=     0.0 B2  freq=  3166. Q= -0.000 lam=     0.0
  70 A1  freq=  3202. Q= -0.027 lam=     1.2 A1  freq=  3181. Q= -0.021 lam=     0.7
  71 B2  freq=  3202. Q=  0.000 lam=     0.0 B2  freq=  3185. Q=  0.000 lam=     0.0
  72 A1  freq=  3213. Q=  0.032 lam=     1.7 A1  freq=  3185. Q=  0.032 lam=     1.7

 total reorg energy (cm**-1, kcal/mol)=     1528.     1469.      4.37      4.20
 Nber of molecules processed=           2
