 Enter ifcurve (0=recti, 1=orth curvi, 2=apprx curvi, -1 = skip
 And atom ordering flag, 0= never changes, 1= use the first order thenceforth,
  2= deduce it (does read on fail), 3= always read it
 Reading file: 
 ./TT-BT_3_C0S0.log                                                             
                                          
  Entering Gaussian System, Link 0=g16                                          
  
 Gaussian format, type: g94, g98, g03= F F F
  #P Geom=AllCheck Guess=TCheck SCRF=Check GenChk RB3LYP/6-311G(d,p) Fre    
 energy type= B3LYP   
 Original G94 input coords:
  6 -2.097894 -1.048712  0.130881
  6 -2.403196  0.297950  0.384293
  6 -1.403487  1.262090  0.433732
  6 -0.087065  0.853444  0.224204
 16  1.380675  1.805689  0.220555
  6  2.300193  0.309074 -0.122813
  6  3.757286  0.326668 -0.276455
  6  4.512126  1.500769 -0.158225
  6  5.890743  1.478787 -0.305570
  6  6.571254  0.282498 -0.585483
  6  8.026131  0.242480 -0.734433
  6  8.869216 -0.819908 -0.512392
  6 10.225441 -0.489800 -0.759980
 16 11.741350 -1.346531 -0.660080
  6 12.606903  0.082889 -1.177081
  6 11.792479  1.152201 -1.410667
  6 10.430083  0.821591 -1.168731
 16  8.917345  1.677996 -1.265752
  6  5.806147 -0.892150 -0.713925
  6  4.431844 -0.873316 -0.556794
  7  1.575863 -0.760572 -0.219411
  6  0.235464 -0.499580 -0.032053
  6 -0.789042 -1.454815 -0.077347
  1 -2.898118 -1.778880  0.098106
  1 -3.433920  0.592513  0.544135
  1 -1.644408  2.299834  0.629610
  1  4.024170  2.443649  0.061853
  1  6.449747  2.398848 -0.181347
  1  8.525507 -1.781220 -0.157291
  1 13.680370  0.036065 -1.276534
  1 12.151615  2.118441 -1.736008
  1  6.297184 -1.824954 -0.963872
  1  3.851226 -1.780734 -0.660474
  1 -0.536861 -2.489591 -0.273900
 nber atoms=          34
  SCF Done:  E(RB3LYP) =  -1980.23020651     A.U. after    1 cycles             
  
          23          40 "  -1980.23020651"
After scan for Atom:   Atom  AN      X      Y      Z        X      Y      Z        X      Y      Z   
After scan for Atom:   Atom  AN      X      Y      Z        X      Y      Z        X      Y      Z   
After scan for Atom:   Atom  AN      X      Y      Z        X      Y      Z        X      Y      Z   
After scan for Atom:   Atom  AN      X      Y      Z        X      Y      Z        X      Y      Z   
After scan for Atom:   Atom  AN      X      Y      Z        X      Y      Z        X      Y      Z   
After scan for Atom:   Atom  AN      X      Y      Z        X      Y      Z        X      Y      Z   
After scan for Atom:   Atom  AN      X      Y      Z        X      Y      Z        X      Y      Z   
After scan for Atom:   Atom  AN      X      Y      Z        X      Y      Z        X      Y      Z   
After scan for Atom:   Atom  AN      X      Y      Z        X      Y      Z        X      Y      Z   
After scan for Atom:   Atom  AN      X      Y      Z        X      Y      Z        X      Y      Z   
After scan for Atom:   Atom  AN      X      Y      Z        X      Y      Z        X      Y      Z   
After scan for Atom:   Atom  AN      X      Y      Z        X      Y      Z        X      Y      Z   
After scan for Atom:   Atom  AN      X      Y      Z        X      Y      Z        X      Y      Z   
After scan for Atom:   Atom  AN      X      Y      Z        X      Y      Z        X      Y      Z   
After scan for Atom:   Atom  AN      X      Y      Z        X      Y      Z        X      Y      Z   
After scan for Atom:   Atom  AN      X      Y      Z        X      Y      Z        X      Y      Z   
After scan for Atom:   Atom  AN      X      Y      Z        X      Y      Z        X      Y      Z   
After scan for Atom:   Atom  AN      X      Y      Z        X      Y      Z        X      Y      Z   
After scan for Atom:   Atom  AN      X      Y      Z        X      Y      Z        X      Y      Z   
After scan for Atom:   Atom  AN      X      Y      Z        X      Y      Z        X      Y      Z   
After scan for Atom:   Atom  AN      X      Y      Z        X      Y      Z        X      Y      Z   
After scan for Atom:   Atom  AN      X      Y      Z        X      Y      Z        X      Y      Z   
After scan for Atom:   Atom  AN      X      Y      Z        X      Y      Z        X      Y      Z   
After scan for Atom:   Atom  AN      X      Y      Z        X      Y      Z        X      Y      Z   
After scan for Atom:   Atom  AN      X      Y      Z        X      Y      Z        X      Y      Z   
After scan for Atom:   Atom  AN      X      Y      Z        X      Y      Z        X      Y      Z   
After scan for Atom:   Atom  AN      X      Y      Z        X      Y      Z        X      Y      Z   
After scan for Atom:   Atom  AN      X      Y      Z        X      Y      Z        X      Y      Z   
After scan for Atom:   Atom  AN      X      Y      Z        X      Y      Z        X      Y      Z   
After scan for Atom:   Atom  AN      X      Y      Z        X      Y      Z        X      Y      Z   
After scan for Atom:   Atom  AN      X      Y      Z        X      Y      Z        X      Y      Z   
After scan for Atom:   Atom  AN      X      Y      Z        X      Y      Z        X      Y      Z   
 g94    frequencies=
     0.0    0.0    0.0    0.0    0.0    0.0   18.1   23.7   44.2   46.2
    69.0  105.4  134.3  158.2  191.5  203.5  209.1  264.5  286.8  336.5
   358.9  364.6  411.5  412.9  430.7  439.5  461.3  468.6  501.2  509.7
   553.8  572.9  573.7  610.3  622.9  625.7  640.2  655.3  692.6  703.0
   715.2  717.2  736.5  747.0  763.5  773.4  821.6  830.8  841.5  862.7
   867.3  872.0  877.4  900.6  952.3  965.1  969.9  980.0  990.7  998.8
  1034.0 1038.5 1082.3 1109.5 1143.0 1144.7 1180.6 1184.3 1209.4 1211.5
  1246.1 1255.2 1275.1 1310.5 1321.1 1339.6 1346.0 1364.2 1380.2 1443.6
  1456.9 1463.3 1488.8 1502.8 1525.1 1543.6 1558.1 1594.8 1596.7 1637.9
  1646.2 3168.2 3168.9 3180.7 3181.3 3185.0 3191.3 3198.4 3207.1 3213.6
  3215.4 3244.9
 g94    symmetries=
                                                 A      A      A      A
       A      A      A      A      A      A      A      A      A      A
       A      A      A      A      A      A      A      A      A      A
       A      A      A      A      A      A      A      A      A      A
       A      A      A      A      A      A      A      A      A      A
       A      A      A      A      A      A      A      A      A      A
       A      A      A      A      A      A      A      A      A      A
       A      A      A      A      A      A      A      A      A      A
       A      A      A      A      A      A      A      A      A      A
       A      A      A      A      A      A      A      A      A      A
       A      A
 atomic masses:
 12.0000 12.0000 12.0000 12.0000 31.9721 12.0000 12.0000 12.0000 12.0000 12.0000
 12.0000 12.0000 12.0000 31.9721 12.0000 12.0000 12.0000 31.9721 12.0000 12.0000
 14.0031 12.0000 12.0000  1.0078  1.0078  1.0078  1.0078  1.0078  1.0078  1.0078
  1.0078  1.0078  1.0078  1.0078
 looking for force constants in 
 ./TT-BT_3_C0S0.fchk                                                            
  
 Cartesian Force Constants                  R   N=        5253                  
  
 n3=         102        5253
 g94-fc frequencies=
    -0.0    0.0    0.0    0.3    0.8    2.5   18.1   23.7   44.2   46.2
    69.0  105.4  134.3  158.2  191.5  203.5  209.1  264.5  286.8  336.5
   358.9  364.7  411.6  412.9  430.7  439.5  461.3  468.7  501.2  509.7
   553.8  572.9  573.7  610.3  622.9  625.7  640.2  655.4  692.6  703.0
   715.2  717.2  736.5  747.0  763.5  773.4  821.6  830.8  841.5  862.7
   867.3  872.0  877.4  900.7  952.3  965.1  970.0  980.0  990.7  998.8
  1034.0 1038.5 1082.3 1109.5 1143.0 1144.7 1180.6 1184.3 1209.4 1211.5
  1246.2 1255.2 1275.1 1310.5 1321.1 1339.6 1346.0 1364.3 1380.2 1443.6
  1457.0 1463.4 1488.8 1502.9 1525.1 1543.6 1558.2 1594.8 1596.8 1637.9
  1646.2 3168.2 3168.9 3180.7 3181.4 3185.0 3191.4 3198.5 3207.2 3213.6
  3215.4 3245.0
 at 99999: n3=         102
 symm operator            1 :  F  nop=           0
 symm operator            2 :  F  nop=           0
 symm operator            3 :  F  nop=           0
 symm operator            4 :  F  nop=           0
 symm operator            5 :  F  nop=           0
 symm operator            6 :  F  nop=           0
 symm operator            7 :  F  nop=           0
 The point group of the molecule is  C1
 Symmetry rotation matrix:
   1.00000   0.00000   0.00000
   0.00000   1.00000   0.00000
   0.00000   0.00000   1.00000

 Projecting out zero-frequency components
 generating redundant internal coords
         300        3600          34
 search for int coords
   1 str   2   1   1.404
   2 str   3   2   1.390
   3 str   4   3   1.394
   4 str   5   4   1.750
   5 str   6   5   1.790
   6 str   7   6   1.465
   7 str   8   7   1.401
   8 str   9   8   1.387
   9 str  10   9   1.404
  10 str  11  10   1.463
  11 str  12  11   1.374
  12 str  13  12   1.418
  13 str  14  13   1.744
  14 str  15  14   1.749
  15 str  16  15   1.364
  16 str  17  13   1.389
  17 str  17  16   1.423
  18 str  18  11   1.771
  19 str  18  17   1.741
  20 str  19  10   1.408
  21 str  20   7   1.405
  22 str  20  19   1.383
  23 str  21   6   1.295
  24 str  22   4   1.414
  25 str  22  21   1.378
  26 str  23   1   1.386
  27 str  23  22   1.401
  28 str  24   1   1.084
  29 str  25   2   1.084
  30 str  26   3   1.083
  31 str  27   8   1.084
  32 str  28   9   1.084
  33 str  29  12   1.081
  34 str  30  15   1.079
  35 str  31  16   1.081
  36 str  32  19   1.083
  37 str  33  20   1.082
  38 str  34  23   1.083
 nber stretches=          38
  39 ben   1   2   3
  40 prop tor   1   2   3   4
  41 prop tor   1   2   3  26
  42 ben   1   2  25
  43 ben   1  23  22
  44 ben   1  23  34
  45 ben   2   1  23
  46 prop tor   2   1  23  22
  47 prop tor   2   1  23  34
  48 ben   2   1  24
  49 ben   2   3   4
  50 prop tor   2   3   4   5
  51 prop tor   2   3   4  22
  52 ben   2   3  26
  53 ben   3   2  25
  54 ben   3   4   5
  55 prop tor   3   4   5   6
  56 ben   3   4  22
  57 prop tor   3   4  22  21
  58 prop tor   3   4  22  23
  59 ben   4   3  26
  60 ben   4   5   6
  61 prop tor   4   5   6   7
  62 prop tor   4   5   6  21
  63 ben   4  22  21
  64 ben   4  22  23
  65 prop tor   4  22  23   1
  66 prop tor   4  22  23  34
  67 ben   5   4  22
  68 prop tor   5   4  22  21
  69 prop tor   5   4  22  23
  70 ben   5   6   7
  71 prop tor   5   6   7   8
  72 prop tor   5   6   7  20
  73 ben   5   6  21
  74 prop tor   5   6  21  22
  75 ben   6   7   8
  76 prop tor   6   7   8   9
  77 prop tor   6   7   8  27
  78 ben   6   7  20
  79 prop tor   6   7  20  19
  80 prop tor   6   7  20  33
  81 ben   6  21  22
  82 prop tor   6  21  22   4
  83 prop tor   6  21  22  23
  84 ben   7   6  21
  85 prop tor   7   6  21  22
  86 ben   7   8   9
  87 prop tor   7   8   9  10
  88 prop tor   7   8   9  28
  89 ben   7   8  27
  90 ben   7  20  19
  91 ben   7  20  33
  92 ben   8   7  20
  93 prop tor   8   7  20  19
  94 prop tor   8   7  20  33
  95 ben   8   9  10
  96 prop tor   8   9  10  11
  97 prop tor   8   9  10  19
  98 ben   8   9  28
  99 ben   9   8  27
 100 ben   9  10  11
 101 prop tor   9  10  11  12
 102 prop tor   9  10  11  18
 103 ben   9  10  19
 104 prop tor   9  10  19  20
 105 prop tor   9  10  19  32
 106 ben  10   9  28
 107 ben  10  11  12
 108 prop tor  10  11  12  13
 109 prop tor  10  11  12  29
 110 ben  10  11  18
 111 prop tor  10  11  18  17
 112 ben  10  19  20
 113 prop tor  10  19  20   7
 114 prop tor  10  19  20  33
 115 ben  10  19  32
 116 ben  11  10  19
 117 prop tor  11  10  19  20
 118 prop tor  11  10  19  32
 119 ben  11  12  13
 120 prop tor  11  12  13  14
 121 prop tor  11  12  13  17
 122 ben  11  12  29
 123 ben  11  18  17
 124 ben  12  11  18
 125 prop tor  12  11  18  17
 126 ben  12  13  14
 127 prop tor  12  13  14  15
 128 ben  12  13  17
 129 prop tor  12  13  17  16
 130 prop tor  12  13  17  18
 131 ben  13  12  29
 132 ben  13  14  15
 133 prop tor  13  14  15  16
 134 prop tor  13  14  15  30
 135 ben  13  17  16
 136 ben  13  17  18
 137 prop tor  13  17  18  11
 138 ben  14  13  17
 139 prop tor  14  13  17  16
 140 prop tor  14  13  17  18
 141 ben  14  15  16
 142 prop tor  14  15  16  17
 143 prop tor  14  15  16  31
 144 ben  14  15  30
 145 ben  15  16  17
 146 prop tor  15  16  17  13
 147 prop tor  15  16  17  18
 148 ben  15  16  31
 149 ben  16  15  30
 150 ben  16  17  18
 151 prop tor  16  17  18  11
 152 prop tor  17  13  14  15
 153 ben  17  16  31
 154 prop tor  18  11  12  13
 155 prop tor  18  11  12  29
 156 prop tor  19  10  11  12
 157 prop tor  19  10  11  18
 158 ben  19  20  33
 159 prop tor  20   7   8   9
 160 prop tor  20   7   8  27
 161 ben  20  19  32
 162 prop tor  21   6   7   8
 163 prop tor  21   6   7  20
 164 ben  21  22  23
 165 prop tor  21  22  23   1
 166 prop tor  21  22  23  34
 167 prop tor  22   4   5   6
 168 ben  22  23  34
 169 prop tor  23   1   2   3
 170 prop tor  23   1   2  25
 171 ben  23   1  24
 172 prop tor  24   1   2   3
 173 prop tor  24   1   2  25
 174 prop tor  24   1  23  22
 175 prop tor  24   1  23  34
 176 prop tor  25   2   3   4
 177 prop tor  25   2   3  26
 178 prop tor  26   3   4   5
 179 prop tor  26   3   4  22
 180 prop tor  27   8   9  10
 181 prop tor  27   8   9  28
 182 prop tor  28   9  10  11
 183 prop tor  28   9  10  19
 184 prop tor  29  12  13  14
 185 prop tor  29  12  13  17
 186 prop tor  30  15  16  17
 187 prop tor  30  15  16  31
 188 prop tor  31  16  17  13
 189 prop tor  31  16  17  18
 190 prop tor  32  19  20   7
 191 prop tor  32  19  20  33
 nber bend=              61
 nber lin bend=           0
 nber prop tor=          92
 nber impr tor=           0
 nber tot redund int=         191
 Eigenvalues of G in red int coords
    Gval -0.00000000 -0.00000000 -0.00000000 -0.00000000 -0.00000000 -0.00000000 -0.00000000 -0.00000000
    Gval -0.00000000 -0.00000000 -0.00000000 -0.00000000 -0.00000000 -0.00000000 -0.00000000 -0.00000000
    Gval -0.00000000 -0.00000000 -0.00000000 -0.00000000 -0.00000000 -0.00000000 -0.00000000 -0.00000000
    Gval -0.00000000 -0.00000000 -0.00000000 -0.00000000 -0.00000000 -0.00000000 -0.00000000 -0.00000000
    Gval -0.00000000 -0.00000000 -0.00000000 -0.00000000 -0.00000000 -0.00000000 -0.00000000 -0.00000000
    Gval -0.00000000 -0.00000000 -0.00000000 -0.00000000 -0.00000000 -0.00000000 -0.00000000 -0.00000000
    Gval  0.00000000  0.00000000  0.00000000  0.00000000  0.00000000  0.00000000  0.00000000  0.00000000
    Gval  0.00000000  0.00000000  0.00000000  0.00000000  0.00000000  0.00000000  0.00000000  0.00000000
    Gval  0.00000000  0.00000000  0.00000000  0.00000000  0.00000000  0.00000000  0.00000000  0.00000000
    Gval  0.00000000  0.00000000  0.00000000  0.00000000  0.00000000  0.00000000  0.00000000  0.00000000
    Gval  0.00000000  0.00000000  0.00000000  0.00000000  0.00000000  0.00000000  0.00000000  0.00000000
    Gval  0.00000000  0.00000000  0.00000000  0.00000000  0.00000000  0.00000000  0.00000000  0.00000052
    Gval  0.00000182  0.00000190  0.00000340  0.00000800  0.00000918  0.00001140  0.00001740  0.00001959
    Gval  0.00002129  0.00002505  0.00003317  0.00003490  0.00003772  0.00004133  0.00004562  0.00004850
    Gval  0.00004896  0.00005000  0.00005144  0.00005680  0.00005833  0.00006969  0.00007233  0.00008170
    Gval  0.00008725  0.00009520  0.00010795  0.00011442  0.00011771  0.00012065  0.00012461  0.00012882
    Gval  0.00014381  0.00015551  0.00015668  0.00018187  0.00018669  0.00020680  0.00021645  0.00025041
    Gval  0.00028879  0.00029775  0.00030094  0.00031406  0.00031716  0.00034095  0.00036067  0.00037778
    Gval  0.00038449  0.00039836  0.00042051  0.00043740  0.00056937  0.00059315  0.00059660  0.00059690
    Gval  0.00059752  0.00060023  0.00060953  0.00061830  0.00062204  0.00062654  0.00063971  0.00064991
    Gval  0.00065024  0.00065507  0.00067133  0.00083494  0.00097597  0.00105448  0.00107499  0.00108139
    Gval  0.00110778  0.00112261  0.00114444  0.00115202  0.00116326  0.00117071  0.00117167  0.00118675
    Gval  0.00119244  0.00129284  0.00163518  0.00179999  0.00180273  0.00208549  0.00234067  0.00249341
    Gval  0.00270233  0.00351745  0.00357081  0.00364503  0.00373262  0.00397405  0.00402233
  5.198219866769141E-007  5.198219866769141E-007
  1.818809011177242E-006  5.198219866769141E-007
  1.902700109768471E-006  5.198219866769141E-007
  3.395397676259090E-006  5.198219866769141E-007
  7.997199783697286E-006  5.198219866769141E-007
  9.179662299729182E-006  5.198219866769141E-007
  1.140119896890643E-005  5.198219866769141E-007
  1.740389222573043E-005  5.198219866769141E-007
  1.959321149513758E-005  5.198219866769141E-007
  2.128733401615365E-005  5.198219866769141E-007
  2.504758512948043E-005  5.198219866769141E-007
  3.317378030853902E-005  5.198219866769141E-007
  3.489953581702902E-005  5.198219866769141E-007
  3.771865824310854E-005  5.198219866769141E-007
  4.132832016797066E-005  5.198219866769141E-007
  4.562280297383928E-005  5.198219866769141E-007
  4.850151334605592E-005  5.198219866769141E-007
  4.895737314269844E-005  5.198219866769141E-007
  5.000165941105243E-005  5.198219866769141E-007
  5.144330205122033E-005  5.198219866769141E-007
  5.680446915412286E-005  5.198219866769141E-007
  5.832596960393789E-005  5.198219866769141E-007
  6.969245194010402E-005  5.198219866769141E-007
  7.233309418689194E-005  5.198219866769141E-007
  8.170276902971945E-005  5.198219866769141E-007
  8.724728514920319E-005  5.198219866769141E-007
  9.519900629860487E-005  5.198219866769141E-007
  1.079533248807700E-004  5.198219866769141E-007
  1.144187933991376E-004  5.198219866769141E-007
  1.177135030260226E-004  5.198219866769141E-007
  1.206451729468860E-004  5.198219866769141E-007
  1.246146280970913E-004  5.198219866769141E-007
  1.288219086108376E-004  5.198219866769141E-007
  1.438126865127566E-004  5.198219866769141E-007
  1.555100555978229E-004  5.198219866769141E-007
  1.566825562856333E-004  5.198219866769141E-007
  1.818661759756476E-004  5.198219866769141E-007
  1.866857763530569E-004  5.198219866769141E-007
  2.067978324200939E-004  5.198219866769141E-007
  2.164505013139234E-004  5.198219866769141E-007
  2.504084574394966E-004  5.198219866769141E-007
  2.887869307795017E-004  5.198219866769141E-007
  2.977538959500495E-004  5.198219866769141E-007
  3.009366968432444E-004  5.198219866769141E-007
  3.140573493324645E-004  5.198219866769141E-007
  3.171588703568494E-004  5.198219866769141E-007
  3.409518024068633E-004  5.198219866769141E-007
  3.606712097941661E-004  5.198219866769141E-007
  3.777810727172331E-004  5.198219866769141E-007
  3.844890453971907E-004  5.198219866769141E-007
  3.983573731131088E-004  5.198219866769141E-007
  4.205090456110072E-004  5.198219866769141E-007
  4.374043510143677E-004  5.198219866769141E-007
  5.693698474117823E-004  5.198219866769141E-007
  5.931537139883514E-004  5.198219866769141E-007
  5.966033743350350E-004  5.198219866769141E-007
  5.969038177949602E-004  5.198219866769141E-007
  5.975153508832919E-004  5.198219866769141E-007
  6.002262514992577E-004  5.198219866769141E-007
  6.095328742119712E-004  5.198219866769141E-007
  6.183033955697526E-004  5.198219866769141E-007
  6.220430981654544E-004  5.198219866769141E-007
  6.265372036748402E-004  5.198219866769141E-007
  6.397069096007218E-004  5.198219866769141E-007
  6.499107884967754E-004  5.198219866769141E-007
  6.502366030243180E-004  5.198219866769141E-007
  6.550657742016866E-004  5.198219866769141E-007
  6.713263543899343E-004  5.198219866769141E-007
  8.349421667877202E-004  5.198219866769141E-007
  9.759720682935999E-004  5.198219866769141E-007
  1.054479811122455E-003  5.198219866769141E-007
  1.074992680766915E-003  5.198219866769141E-007
  1.081389578334689E-003  5.198219866769141E-007
  1.107781513509051E-003  5.198219866769141E-007
  1.122606811663508E-003  5.198219866769141E-007
  1.144435130533347E-003  5.198219866769141E-007
  1.152022180954582E-003  5.198219866769141E-007
  1.163258400248445E-003  5.198219866769141E-007
  1.170714917138840E-003  5.198219866769141E-007
  1.171670504275836E-003  5.198219866769141E-007
  1.186752255848371E-003  5.198219866769141E-007
  1.192438350734157E-003  5.198219866769141E-007
  1.292836238076913E-003  5.198219866769141E-007
  1.635184529104879E-003  5.198219866769141E-007
  1.799990668901133E-003  5.198219866769141E-007
  1.802727508728839E-003  5.198219866769141E-007
  2.085487923085250E-003  5.198219866769141E-007
  2.340669195936035E-003  5.198219866769141E-007
  2.493410798573745E-003  5.198219866769141E-007
  2.702333966628306E-003  5.198219866769141E-007
  3.517447509410644E-003  5.198219866769141E-007
  3.570812813851711E-003  5.198219866769141E-007
  3.645028327055259E-003  5.198219866769141E-007
  3.732622014671364E-003  5.198219866769141E-007
  3.974053277136915E-003  5.198219866769141E-007
  4.022329907231115E-003  5.198219866769141E-007
 cut=1d-8, nber non-redundant internal coords=          96
 Check on Eigenvals of non-red overlap matrix:
  0.00000052  0.00000182  0.00000190  0.00000340  0.00000800  0.00000918  0.00001140  0.00001740
  0.00001959  0.00002129  0.00002505  0.00003317  0.00003490  0.00003772  0.00004133  0.00004562
  0.00004850  0.00004896  0.00005000  0.00005144  0.00005680  0.00005833  0.00006969  0.00007233
  0.00008170  0.00008725  0.00009520  0.00010795  0.00011442  0.00011771  0.00012065  0.00012461
  0.00012882  0.00014381  0.00015551  0.00015668  0.00018187  0.00018669  0.00020680  0.00021645
  0.00025041  0.00028879  0.00029775  0.00030094  0.00031406  0.00031716  0.00034095  0.00036067
  0.00037778  0.00038449  0.00039836  0.00042051  0.00043740  0.00056937  0.00059315  0.00059660
  0.00059690  0.00059752  0.00060023  0.00060953  0.00061830  0.00062204  0.00062654  0.00063971
  0.00064991  0.00065024  0.00065507  0.00067133  0.00083494  0.00097597  0.00105448  0.00107499
  0.00108139  0.00110778  0.00112261  0.00114444  0.00115202  0.00116326  0.00117071  0.00117167
  0.00118675  0.00119244  0.00129284  0.00163518  0.00179999  0.00180273  0.00208549  0.00234067
  0.00249341  0.00270233  0.00351745  0.00357081  0.00364503  0.00373262  0.00397405  0.00402233
 Checking for correct frequencies
 recalc frequencies=
    -0.0   -0.0    0.0    0.0    0.0    0.0   18.1   23.7   44.2   46.2
    69.0  105.4  134.3  158.2  191.5  203.5  209.1  264.5  286.8  336.5
   358.9  364.7  411.6  412.9  430.7  439.5  461.3  468.7  501.2  509.7
   553.8  572.9  573.7  610.3  622.9  625.7  640.2  655.4  692.6  703.0
   715.2  717.2  736.5  747.0  763.5  773.4  821.6  830.8  841.5  862.7
   867.3  872.0  877.4  900.7  952.3  965.1  970.0  980.0  990.7  998.8
  1034.0 1038.5 1082.3 1109.5 1143.0 1144.7 1180.6 1184.3 1209.4 1211.5
  1246.2 1255.2 1275.1 1310.5 1321.1 1339.6 1346.0 1364.3 1380.2 1443.6
  1457.0 1463.4 1488.8 1502.9 1525.1 1543.6 1558.2 1594.8 1596.8 1637.9
  1646.2 3168.2 3168.9 3180.7 3181.4 3185.0 3191.4 3198.5 3207.2 3213.6
  3215.4 3245.0
 recalc symmetries=
                                                                       
                                                                       
                                                                       
                                                                       
                                                                       
                                                                       
                                                                       
                                                                       
                                                                       
                                                                       
               
 recalc freqs check OK
 Zero-point lengths:
 10.0000 10.0000 10.0000 10.0000 10.0000 10.0000 58.2806 50.9187 37.3007 36.4850
 29.8429 24.1514 21.3921 19.7112 17.9133 17.3771 17.1435 15.2433 14.6389 13.5137
 13.0854 12.9823 12.2203 12.1999 11.9459 11.8250 11.5423 11.4517 11.0733 10.9809
 10.5343 10.3578 10.3501 10.0349  9.9332  9.9109  9.7979  9.6841  9.4200  9.3502
  9.2702  9.2568  9.1352  9.0708  8.9719  8.9144  8.6490  8.6008  8.5462  8.4403
  8.4181  8.3954  8.3693  8.2607  8.0337  7.9801  7.9601  7.9190  7.8762  7.8443
  7.7096  7.6928  7.5357  7.4427  7.3328  7.3273  7.2151  7.2038  7.1286  7.1226
  7.0227  6.9973  6.9427  6.8482  6.8207  6.7734  6.7572  6.7119  6.6730  6.5249
  6.4949  6.4806  6.4250  6.3949  6.3481  6.3099  6.2804  6.2079  6.2041  6.1257
  6.1102  4.4044  4.4039  4.3957  4.3953  4.3928  4.3884  4.3835  4.3776  4.3732
  4.3720  4.3520
 highest evec of mol 1
  0.0000  0.0000  0.0000
  0.0000 -0.0000 -0.0000
  0.0000 -0.0000 -0.0000
 -0.0000 -0.0000  0.0000
 -0.0000  0.0000  0.0000
  0.0000 -0.0000 -0.0000
 -0.0000  0.0000  0.0000
  0.0001 -0.0001 -0.0000
 -0.0001 -0.0002 -0.0000
 -0.0000  0.0001 -0.0000
  0.0002 -0.0003  0.0001
  0.0007  0.0024 -0.0008
 -0.0035 -0.0000  0.0004
 -0.0007 -0.0021  0.0007
  0.2813 -0.0264 -0.0218
  0.0187  0.0908 -0.0290
 -0.0071 -0.0022  0.0014
  0.0004 -0.0001 -0.0000
 -0.0001  0.0001  0.0000
  0.0001  0.0001  0.0000
 -0.0000 -0.0000  0.0000
 -0.0000 -0.0000 -0.0000
 -0.0000  0.0000  0.0000
 -0.0001 -0.0001 -0.0000
 -0.0001  0.0000  0.0000
 -0.0000  0.0001  0.0000
 -0.0001  0.0003  0.0001
  0.0003  0.0006  0.0001
 -0.0023 -0.0065  0.0024
 -0.9086  0.0432  0.0831
 -0.0891 -0.2469  0.0829
  0.0002 -0.0004 -0.0001
 -0.0002 -0.0004 -0.0000
  0.0000 -0.0001 -0.0000
 generating redundant internal coords
         300        3600          34
 Adding extra bonds for z output only
           6           6           6           6          16           6
           6           6           6           6           6           6
           6          16           6           6           6          16
           6           6           7           6           6           1
           1           1           1           1           1           1
           1           1           1           1
 search for int coords
   1 str   2   1   1.404
   2 str   3   2   1.390
   3 str   4   3   1.394
   4 str   5   4   1.750
   5 str   6   5   1.790
   6 str   7   6   1.465
   7 str   8   7   1.401
   8 str   9   8   1.387
   9 str  10   9   1.404
  10 str  11  10   1.463
  11 str  12  11   1.374
  12 str  13  12   1.418
  13 str  14  13   1.744
  14 str  15  14   1.749
  15 str  16  15   1.364
  16 str  17  13   1.389
  17 str  17  16   1.423
  18 str  18  11   1.771
  19 str  18  17   1.741
  20 str  19  10   1.408
  21 str  20   7   1.405
  22 str  20  19   1.383
  23 str  21   6   1.295
  24 str  22   4   1.414
  25 str  22  21   1.378
  26 str  23   1   1.386
  27 str  23  22   1.401
  28 str  24   1   1.084
  29 str  25   2   1.084
  30 str  26   3   1.083
  31 str  27   8   1.084
  32 str  28   9   1.084
  33 str  29  12   1.081
  34 str  30  15   1.079
  35 str  31  16   1.081
  36 str  32  19   1.083
  37 str  33  20   1.082
  38 str  34  23   1.083
 nber stretches=          38
  39 ben   1   2   3
  40 prop tor   1   2   3   4
  41 prop tor   1   2   3  26
  42 ben   1   2  25
  43 ben   1  23  22
  44 ben   1  23  34
  45 ben   2   1  23
  46 prop tor   2   1  23  22
  47 prop tor   2   1  23  34
  48 ben   2   1  24
  49 ben   2   3   4
  50 prop tor   2   3   4   5
  51 prop tor   2   3   4  22
  52 ben   2   3  26
  53 ben   3   2  25
  54 ben   3   4   5
  55 prop tor   3   4   5   6
  56 ben   3   4  22
  57 prop tor   3   4  22  21
  58 prop tor   3   4  22  23
  59 ben   4   3  26
  60 ben   4   5   6
  61 prop tor   4   5   6   7
  62 prop tor   4   5   6  21
  63 ben   4  22  21
  64 ben   4  22  23
  65 prop tor   4  22  23   1
  66 prop tor   4  22  23  34
  67 ben   5   4  22
  68 prop tor   5   4  22  21
  69 prop tor   5   4  22  23
  70 ben   5   6   7
  71 prop tor   5   6   7   8
  72 prop tor   5   6   7  20
  73 ben   5   6  21
  74 prop tor   5   6  21  22
  75 ben   6   7   8
  76 prop tor   6   7   8   9
  77 prop tor   6   7   8  27
  78 ben   6   7  20
  79 prop tor   6   7  20  19
  80 prop tor   6   7  20  33
  81 ben   6  21  22
  82 prop tor   6  21  22   4
  83 prop tor   6  21  22  23
  84 ben   7   6  21
  85 prop tor   7   6  21  22
  86 ben   7   8   9
  87 prop tor   7   8   9  10
  88 prop tor   7   8   9  28
  89 ben   7   8  27
  90 ben   7  20  19
  91 ben   7  20  33
  92 ben   8   7  20
  93 prop tor   8   7  20  19
  94 prop tor   8   7  20  33
  95 ben   8   9  10
  96 prop tor   8   9  10  11
  97 prop tor   8   9  10  19
  98 ben   8   9  28
  99 ben   9   8  27
 100 ben   9  10  11
 101 prop tor   9  10  11  12
 102 prop tor   9  10  11  18
 103 ben   9  10  19
 104 prop tor   9  10  19  20
 105 prop tor   9  10  19  32
 106 ben  10   9  28
 107 ben  10  11  12
 108 prop tor  10  11  12  13
 109 prop tor  10  11  12  29
 110 ben  10  11  18
 111 prop tor  10  11  18  17
 112 ben  10  19  20
 113 prop tor  10  19  20   7
 114 prop tor  10  19  20  33
 115 ben  10  19  32
 116 ben  11  10  19
 117 prop tor  11  10  19  20
 118 prop tor  11  10  19  32
 119 ben  11  12  13
 120 prop tor  11  12  13  14
 121 prop tor  11  12  13  17
 122 ben  11  12  29
 123 ben  11  18  17
 124 ben  12  11  18
 125 prop tor  12  11  18  17
 126 ben  12  13  14
 127 prop tor  12  13  14  15
 128 ben  12  13  17
 129 prop tor  12  13  17  16
 130 prop tor  12  13  17  18
 131 ben  13  12  29
 132 ben  13  14  15
 133 prop tor  13  14  15  16
 134 prop tor  13  14  15  30
 135 ben  13  17  16
 136 ben  13  17  18
 137 prop tor  13  17  18  11
 138 ben  14  13  17
 139 prop tor  14  13  17  16
 140 prop tor  14  13  17  18
 141 ben  14  15  16
 142 prop tor  14  15  16  17
 143 prop tor  14  15  16  31
 144 ben  14  15  30
 145 ben  15  16  17
 146 prop tor  15  16  17  13
 147 prop tor  15  16  17  18
 148 ben  15  16  31
 149 ben  16  15  30
 150 ben  16  17  18
 151 prop tor  16  17  18  11
 152 prop tor  17  13  14  15
 153 ben  17  16  31
 154 prop tor  18  11  12  13
 155 prop tor  18  11  12  29
 156 prop tor  19  10  11  12
 157 prop tor  19  10  11  18
 158 ben  19  20  33
 159 prop tor  20   7   8   9
 160 prop tor  20   7   8  27
 161 ben  20  19  32
 162 prop tor  21   6   7   8
 163 prop tor  21   6   7  20
 164 ben  21  22  23
 165 prop tor  21  22  23   1
 166 prop tor  21  22  23  34
 167 prop tor  22   4   5   6
 168 ben  22  23  34
 169 prop tor  23   1   2   3
 170 prop tor  23   1   2  25
 171 ben  23   1  24
 172 prop tor  24   1   2   3
 173 prop tor  24   1   2  25
 174 prop tor  24   1  23  22
 175 prop tor  24   1  23  34
 176 prop tor  25   2   3   4
 177 prop tor  25   2   3  26
 178 prop tor  26   3   4   5
 179 prop tor  26   3   4  22
 180 prop tor  27   8   9  10
 181 prop tor  27   8   9  28
 182 prop tor  28   9  10  11
 183 prop tor  28   9  10  19
 184 prop tor  29  12  13  14
 185 prop tor  29  12  13  17
 186 prop tor  30  15  16  17
 187 prop tor  30  15  16  31
 188 prop tor  31  16  17  13
 189 prop tor  31  16  17  18
 190 prop tor  32  19  20   7
 191 prop tor  32  19  20  33
 nber bend=              61
 nber lin bend=           0
 nber prop tor=          92
 nber impr tor=           0
 nber tot redund int=         191
 Reading file: 
 ./TT-BT_3_C0S1.log                                                             
                                          
  Entering Gaussian System, Link 0=g16                                          
  
 Gaussian format, type: g94, g98, g03= F F F
  #P Geom=AllCheck Guess=TCheck SCRF=Check GenChk RB3LYP TD(FC,Read)/6-3    
 energy type= TD      
 Original G94 input coords:
  6 -2.070458 -1.058736  0.240261
  6 -2.390376  0.308773  0.350814
  6 -1.394682  1.281525  0.303067
  6 -0.076040  0.869590  0.143471
 16  1.375070  1.838347  0.048490
  6  2.327270  0.312720 -0.136516
  6  3.743282  0.331064 -0.282032
  6  4.504502  1.537127 -0.292700
  6  5.867750  1.512578 -0.435344
  6  6.583580  0.285416 -0.578941
  6  7.997859  0.250502 -0.727387
  6  8.834765 -0.877077 -0.878782
  6 10.176794 -0.524710 -0.997115
 16 11.672088 -1.420120 -1.203182
  6 12.582205  0.072508 -1.211334
  6 11.797694  1.194205 -1.065706
  6 10.436921  0.858624 -0.944377
 16  8.956031  1.762126 -0.739424
  6  5.812450 -0.922468 -0.567324
  6  4.451884 -0.901513 -0.425109
  7  1.587968 -0.786549 -0.122374
  6  0.269943 -0.514508  0.029268
  6 -0.763152 -1.477135  0.081463
  1 -2.866976 -1.793175  0.280938
  1 -3.424289  0.609273  0.474675
  1 -1.645639  2.332046  0.388531
  1  4.000882  2.490965 -0.186677
  1  6.411364  2.450693 -0.438694
  1  8.458918 -1.888783 -0.898428
  1 13.654855  0.031977 -1.324485
  1 12.197734  2.198521 -1.049224
  1  6.312545 -1.877111 -0.672966
  1  3.878130 -1.818696 -0.417439
  1 -0.504502 -2.525288 -0.004668
 nber atoms=          34
  Total Energy, E(TD-HF/TD-DFT) =  -1980.11768600                               
  
          32          49 "  -1980.11768600"
After scan for Atom:   Atom  AN      X      Y      Z        X      Y      Z        X      Y      Z   
After scan for Atom:   Atom  AN      X      Y      Z        X      Y      Z        X      Y      Z   
After scan for Atom:   Atom  AN      X      Y      Z        X      Y      Z        X      Y      Z   
After scan for Atom:   Atom  AN      X      Y      Z        X      Y      Z        X      Y      Z   
After scan for Atom:   Atom  AN      X      Y      Z        X      Y      Z        X      Y      Z   
After scan for Atom:   Atom  AN      X      Y      Z        X      Y      Z        X      Y      Z   
After scan for Atom:   Atom  AN      X      Y      Z        X      Y      Z        X      Y      Z   
After scan for Atom:   Atom  AN      X      Y      Z        X      Y      Z        X      Y      Z   
After scan for Atom:   Atom  AN      X      Y      Z        X      Y      Z        X      Y      Z   
After scan for Atom:   Atom  AN      X      Y      Z        X      Y      Z        X      Y      Z   
After scan for Atom:   Atom  AN      X      Y      Z        X      Y      Z        X      Y      Z   
After scan for Atom:   Atom  AN      X      Y      Z        X      Y      Z        X      Y      Z   
After scan for Atom:   Atom  AN      X      Y      Z        X      Y      Z        X      Y      Z   
After scan for Atom:   Atom  AN      X      Y      Z        X      Y      Z        X      Y      Z   
After scan for Atom:   Atom  AN      X      Y      Z        X      Y      Z        X      Y      Z   
After scan for Atom:   Atom  AN      X      Y      Z        X      Y      Z        X      Y      Z   
After scan for Atom:   Atom  AN      X      Y      Z        X      Y      Z        X      Y      Z   
After scan for Atom:   Atom  AN      X      Y      Z        X      Y      Z        X      Y      Z   
After scan for Atom:   Atom  AN      X      Y      Z        X      Y      Z        X      Y      Z   
After scan for Atom:   Atom  AN      X      Y      Z        X      Y      Z        X      Y      Z   
After scan for Atom:   Atom  AN      X      Y      Z        X      Y      Z        X      Y      Z   
After scan for Atom:   Atom  AN      X      Y      Z        X      Y      Z        X      Y      Z   
After scan for Atom:   Atom  AN      X      Y      Z        X      Y      Z        X      Y      Z   
After scan for Atom:   Atom  AN      X      Y      Z        X      Y      Z        X      Y      Z   
After scan for Atom:   Atom  AN      X      Y      Z        X      Y      Z        X      Y      Z   
After scan for Atom:   Atom  AN      X      Y      Z        X      Y      Z        X      Y      Z   
After scan for Atom:   Atom  AN      X      Y      Z        X      Y      Z        X      Y      Z   
After scan for Atom:   Atom  AN      X      Y      Z        X      Y      Z        X      Y      Z   
After scan for Atom:   Atom  AN      X      Y      Z        X      Y      Z        X      Y      Z   
After scan for Atom:   Atom  AN      X      Y      Z        X      Y      Z        X      Y      Z   
After scan for Atom:   Atom  AN      X      Y      Z        X      Y      Z        X      Y      Z   
After scan for Atom:   Atom  AN      X      Y      Z        X      Y      Z        X      Y      Z   
 g94    frequencies=
     0.0    0.0    0.0    0.0    0.0    0.0   20.1   24.3   47.2   61.0
    67.8  104.8  114.8  158.9  178.5  190.4  207.3  250.6  269.5  305.1
   338.1  366.3  410.5  413.3  416.4  431.0  437.6  446.8  459.0  502.1
   519.1  542.1  565.0  584.9  605.4  611.6  621.9  639.8  667.9  679.6
   683.7  707.7  716.7  726.2  748.9  761.4  765.2  775.1  802.8  807.5
   853.2  864.6  869.9  884.3  933.5  935.4  942.3  961.8  973.1  979.1
   990.4 1030.2 1068.8 1097.1 1127.0 1142.5 1169.3 1180.4 1192.8 1208.1
  1231.5 1244.6 1275.5 1313.5 1321.1 1342.0 1344.9 1361.2 1413.8 1424.1
  1439.0 1445.4 1464.5 1469.6 1482.1 1488.6 1505.4 1525.6 1567.8 1611.7
  1642.9 3164.8 3166.1 3177.1 3182.9 3184.4 3189.3 3196.7 3210.6 3212.8
  3230.4 3243.3
 g94    symmetries=
                                                 A      A      A      A
       A      A      A      A      A      A      A      A      A      A
       A      A      A      A      A      A      A      A      A      A
       A      A      A      A      A      A      A      A      A      A
       A      A      A      A      A      A      A      A      A      A
       A      A      A      A      A      A      A      A      A      A
       A      A      A      A      A      A      A      A      A      A
       A      A      A      A      A      A      A      A      A      A
       A      A      A      A      A      A      A      A      A      A
       A      A      A      A      A      A      A      A      A      A
       A      A
 atomic masses:
 12.0000 12.0000 12.0000 12.0000 31.9721 12.0000 12.0000 12.0000 12.0000 12.0000
 12.0000 12.0000 12.0000 31.9721 12.0000 12.0000 12.0000 31.9721 12.0000 12.0000
 14.0031 12.0000 12.0000  1.0078  1.0078  1.0078  1.0078  1.0078  1.0078  1.0078
  1.0078  1.0078  1.0078  1.0078
 looking for force constants in 
 ./TT-BT_3_C0S1.fchk                                                            
  
 Cartesian Force Constants                  R   N=        5253                  
  
 n3=         102        5253
 g94-fc frequencies=
    -2.4   -1.4   -0.0   -0.0    0.0    0.9   20.1   24.3   47.2   61.0
    67.8  104.8  114.8  158.9  178.5  190.4  207.3  250.6  269.5  305.1
   338.1  366.3  410.5  413.3  416.4  431.0  437.6  446.9  459.0  502.1
   519.2  542.1  565.0  584.9  605.4  611.6  621.9  639.8  667.9  679.6
   683.8  707.7  716.7  726.2  748.9  761.4  765.2  775.1  802.9  807.5
   853.2  864.6  869.9  884.3  933.6  935.4  942.4  961.8  973.1  979.1
   990.4 1030.2 1068.8 1097.1 1127.0 1142.6 1169.3 1180.5 1192.8 1208.1
  1231.6 1244.6 1275.6 1313.5 1321.1 1342.0 1344.9 1361.2 1413.9 1424.1
  1439.0 1445.4 1464.5 1469.6 1482.2 1488.6 1505.4 1525.6 1567.8 1611.7
  1642.9 3164.8 3166.1 3177.1 3182.9 3184.5 3189.3 3196.8 3210.7 3212.9
  3230.5 3243.4
 at 99999: n3=         102
 symm operator            1 :  F  nop=           0
 symm operator            2 :  F  nop=           0
 symm operator            3 :  F  nop=           0
 symm operator            4 :  F  nop=           0
 symm operator            5 :  F  nop=           0
 symm operator            6 :  F  nop=           0
 symm operator            7 :  F  nop=           0
 The point group of the molecule is  C1
 Symmetry rotation matrix:
   1.00000   0.00000   0.00000
   0.00000   1.00000   0.00000
   0.00000   0.00000   1.00000

 Projecting out zero-frequency components
 generating redundant internal coords
         300        3600          34
 search for int coords
   1 str   2   1   1.409
   2 str   3   2   1.393
   3 str   4   3   1.391
   4 str   5   4   1.747
   5 str   6   5   1.808
   6 str   7   6   1.424
   7 str   8   7   1.426
   8 str   9   8   1.371
   9 str  10   9   1.428
  10 str  11  10   1.422
  11 str  12  11   1.412
  12 str  13  12   1.393
  13 str  14  13   1.755
  14 str  15  14   1.748
  15 str  16  15   1.377
  16 str  17  13   1.409
  17 str  17  16   1.407
  18 str  18  11   1.790
  19 str  18  17   1.747
  20 str  19  10   1.433
  21 str  20   7   1.429
  22 str  20  19   1.368
  23 str  21   6   1.325
  24 str  22   4   1.431
  25 str  22  21   1.354
  26 str  23   1   1.382
  27 str  23  22   1.413
  28 str  24   1   1.084
  29 str  25   2   1.084
  30 str  26   3   1.083
  31 str  27   8   1.084
  32 str  28   9   1.084
  33 str  29  12   1.079
  34 str  30  15   1.079
  35 str  31  16   1.081
  36 str  32  19   1.083
  37 str  33  20   1.082
  38 str  34  23   1.083
 nber stretches=          38
  39 ben   1   2   3
  40 prop tor   1   2   3   4
  41 prop tor   1   2   3  26
  42 ben   1   2  25
  43 ben   1  23  22
  44 ben   1  23  34
  45 ben   2   1  23
  46 prop tor   2   1  23  22
  47 prop tor   2   1  23  34
  48 ben   2   1  24
  49 ben   2   3   4
  50 prop tor   2   3   4   5
  51 prop tor   2   3   4  22
  52 ben   2   3  26
  53 ben   3   2  25
  54 ben   3   4   5
  55 prop tor   3   4   5   6
  56 ben   3   4  22
  57 prop tor   3   4  22  21
  58 prop tor   3   4  22  23
  59 ben   4   3  26
  60 ben   4   5   6
  61 prop tor   4   5   6   7
  62 prop tor   4   5   6  21
  63 ben   4  22  21
  64 ben   4  22  23
  65 prop tor   4  22  23   1
  66 prop tor   4  22  23  34
  67 ben   5   4  22
  68 prop tor   5   4  22  21
  69 prop tor   5   4  22  23
  70 ben   5   6   7
  71 prop tor   5   6   7   8
  72 prop tor   5   6   7  20
  73 ben   5   6  21
  74 prop tor   5   6  21  22
  75 ben   6   7   8
  76 prop tor   6   7   8   9
  77 prop tor   6   7   8  27
  78 ben   6   7  20
  79 prop tor   6   7  20  19
  80 prop tor   6   7  20  33
  81 ben   6  21  22
  82 prop tor   6  21  22   4
  83 prop tor   6  21  22  23
  84 ben   7   6  21
  85 prop tor   7   6  21  22
  86 ben   7   8   9
  87 prop tor   7   8   9  10
  88 prop tor   7   8   9  28
  89 ben   7   8  27
  90 ben   7  20  19
  91 ben   7  20  33
  92 ben   8   7  20
  93 prop tor   8   7  20  19
  94 prop tor   8   7  20  33
  95 ben   8   9  10
  96 prop tor   8   9  10  11
  97 prop tor   8   9  10  19
  98 ben   8   9  28
  99 ben   9   8  27
 100 ben   9  10  11
 101 prop tor   9  10  11  12
 102 prop tor   9  10  11  18
 103 ben   9  10  19
 104 prop tor   9  10  19  20
 105 prop tor   9  10  19  32
 106 ben  10   9  28
 107 ben  10  11  12
 108 prop tor  10  11  12  13
 109 prop tor  10  11  12  29
 110 ben  10  11  18
 111 prop tor  10  11  18  17
 112 ben  10  19  20
 113 prop tor  10  19  20   7
 114 prop tor  10  19  20  33
 115 ben  10  19  32
 116 ben  11  10  19
 117 prop tor  11  10  19  20
 118 prop tor  11  10  19  32
 119 ben  11  12  13
 120 prop tor  11  12  13  14
 121 prop tor  11  12  13  17
 122 ben  11  12  29
 123 ben  11  18  17
 124 ben  12  11  18
 125 prop tor  12  11  18  17
 126 ben  12  13  14
 127 prop tor  12  13  14  15
 128 ben  12  13  17
 129 prop tor  12  13  17  16
 130 prop tor  12  13  17  18
 131 ben  13  12  29
 132 ben  13  14  15
 133 prop tor  13  14  15  16
 134 prop tor  13  14  15  30
 135 ben  13  17  16
 136 ben  13  17  18
 137 prop tor  13  17  18  11
 138 ben  14  13  17
 139 prop tor  14  13  17  16
 140 prop tor  14  13  17  18
 141 ben  14  15  16
 142 prop tor  14  15  16  17
 143 prop tor  14  15  16  31
 144 ben  14  15  30
 145 ben  15  16  17
 146 prop tor  15  16  17  13
 147 prop tor  15  16  17  18
 148 ben  15  16  31
 149 ben  16  15  30
 150 ben  16  17  18
 151 prop tor  16  17  18  11
 152 prop tor  17  13  14  15
 153 ben  17  16  31
 154 prop tor  18  11  12  13
 155 prop tor  18  11  12  29
 156 prop tor  19  10  11  12
 157 prop tor  19  10  11  18
 158 ben  19  20  33
 159 prop tor  20   7   8   9
 160 prop tor  20   7   8  27
 161 ben  20  19  32
 162 prop tor  21   6   7   8
 163 prop tor  21   6   7  20
 164 ben  21  22  23
 165 prop tor  21  22  23   1
 166 prop tor  21  22  23  34
 167 prop tor  22   4   5   6
 168 ben  22  23  34
 169 prop tor  23   1   2   3
 170 prop tor  23   1   2  25
 171 ben  23   1  24
 172 prop tor  24   1   2   3
 173 prop tor  24   1   2  25
 174 prop tor  24   1  23  22
 175 prop tor  24   1  23  34
 176 prop tor  25   2   3   4
 177 prop tor  25   2   3  26
 178 prop tor  26   3   4   5
 179 prop tor  26   3   4  22
 180 prop tor  27   8   9  10
 181 prop tor  27   8   9  28
 182 prop tor  28   9  10  11
 183 prop tor  28   9  10  19
 184 prop tor  29  12  13  14
 185 prop tor  29  12  13  17
 186 prop tor  30  15  16  17
 187 prop tor  30  15  16  31
 188 prop tor  31  16  17  13
 189 prop tor  31  16  17  18
 190 prop tor  32  19  20   7
 191 prop tor  32  19  20  33
 nber bend=              61
 nber lin bend=           0
 nber prop tor=          92
 nber impr tor=           0
 nber tot redund int=         191
 Eigenvalues of G in red int coords
    Gval -0.00000000 -0.00000000 -0.00000000 -0.00000000 -0.00000000 -0.00000000 -0.00000000 -0.00000000
    Gval -0.00000000 -0.00000000 -0.00000000 -0.00000000 -0.00000000 -0.00000000 -0.00000000 -0.00000000
    Gval -0.00000000 -0.00000000 -0.00000000 -0.00000000 -0.00000000 -0.00000000 -0.00000000 -0.00000000
    Gval -0.00000000 -0.00000000 -0.00000000 -0.00000000 -0.00000000 -0.00000000 -0.00000000 -0.00000000
    Gval -0.00000000 -0.00000000 -0.00000000 -0.00000000 -0.00000000 -0.00000000 -0.00000000 -0.00000000
    Gval -0.00000000 -0.00000000 -0.00000000 -0.00000000 -0.00000000 -0.00000000 -0.00000000  0.00000000
    Gval  0.00000000  0.00000000  0.00000000  0.00000000  0.00000000  0.00000000  0.00000000  0.00000000
    Gval  0.00000000  0.00000000  0.00000000  0.00000000  0.00000000  0.00000000  0.00000000  0.00000000
    Gval  0.00000000  0.00000000  0.00000000  0.00000000  0.00000000  0.00000000  0.00000000  0.00000000
    Gval  0.00000000  0.00000000  0.00000000  0.00000000  0.00000000  0.00000000  0.00000000  0.00000000
    Gval  0.00000000  0.00000000  0.00000000  0.00000000  0.00000000  0.00000000  0.00000000  0.00000000
    Gval  0.00000000  0.00000000  0.00000000  0.00000000  0.00000000  0.00000000  0.00000000  0.00000050
    Gval  0.00000185  0.00000218  0.00000301  0.00000821  0.00000913  0.00001217  0.00001677  0.00001956
    Gval  0.00002117  0.00002447  0.00003315  0.00003494  0.00003745  0.00004147  0.00004766  0.00004828
    Gval  0.00004851  0.00004990  0.00005164  0.00005585  0.00005826  0.00006916  0.00007174  0.00008135
    Gval  0.00008734  0.00009620  0.00010793  0.00011525  0.00011658  0.00011997  0.00012471  0.00012870
    Gval  0.00014201  0.00015560  0.00015598  0.00018428  0.00019757  0.00019997  0.00020789  0.00024797
    Gval  0.00029046  0.00029633  0.00030015  0.00030930  0.00031496  0.00034966  0.00035990  0.00037426
    Gval  0.00038042  0.00039488  0.00042225  0.00044059  0.00057504  0.00058446  0.00059314  0.00059658
    Gval  0.00059744  0.00059777  0.00059984  0.00061830  0.00062169  0.00062599  0.00063889  0.00064829
    Gval  0.00064847  0.00065467  0.00066457  0.00083648  0.00097737  0.00105397  0.00107413  0.00108179
    Gval  0.00110414  0.00112145  0.00114556  0.00115379  0.00116273  0.00117076  0.00117100  0.00118394
    Gval  0.00120934  0.00128962  0.00162193  0.00179905  0.00180431  0.00208301  0.00232543  0.00249895
    Gval  0.00269411  0.00352486  0.00356352  0.00365373  0.00372677  0.00394648  0.00401489
  5.032882579422049E-007  5.032882579422049E-007
  1.853793175055300E-006  5.032882579422049E-007
  2.181395638365373E-006  5.032882579422049E-007
  3.013949453429484E-006  5.032882579422049E-007
  8.207915617778033E-006  5.032882579422049E-007
  9.131864041417837E-006  5.032882579422049E-007
  1.216854162032671E-005  5.032882579422049E-007
  1.677412882504057E-005  5.032882579422049E-007
  1.955612776052226E-005  5.032882579422049E-007
  2.117207344129156E-005  5.032882579422049E-007
  2.447441482240056E-005  5.032882579422049E-007
  3.314559357260239E-005  5.032882579422049E-007
  3.493905916721021E-005  5.032882579422049E-007
  3.744522160164694E-005  5.032882579422049E-007
  4.146544936038754E-005  5.032882579422049E-007
  4.766069913121667E-005  5.032882579422049E-007
  4.827591354361863E-005  5.032882579422049E-007
  4.850968653604860E-005  5.032882579422049E-007
  4.990386198148590E-005  5.032882579422049E-007
  5.164008045579788E-005  5.032882579422049E-007
  5.584950147026734E-005  5.032882579422049E-007
  5.825844639464337E-005  5.032882579422049E-007
  6.915674873186907E-005  5.032882579422049E-007
  7.174194333580979E-005  5.032882579422049E-007
  8.135019538911321E-005  5.032882579422049E-007
  8.734343482586712E-005  5.032882579422049E-007
  9.619802084466911E-005  5.032882579422049E-007
  1.079256323431312E-004  5.032882579422049E-007
  1.152462636163835E-004  5.032882579422049E-007
  1.165782760941980E-004  5.032882579422049E-007
  1.199706640410507E-004  5.032882579422049E-007
  1.247052200647116E-004  5.032882579422049E-007
  1.286975905476295E-004  5.032882579422049E-007
  1.420068313449045E-004  5.032882579422049E-007
  1.555974192621037E-004  5.032882579422049E-007
  1.559772704613532E-004  5.032882579422049E-007
  1.842767129980474E-004  5.032882579422049E-007
  1.975728194614639E-004  5.032882579422049E-007
  1.999654714613350E-004  5.032882579422049E-007
  2.078890420025941E-004  5.032882579422049E-007
  2.479723056117538E-004  5.032882579422049E-007
  2.904627973676229E-004  5.032882579422049E-007
  2.963306518598879E-004  5.032882579422049E-007
  3.001511897838623E-004  5.032882579422049E-007
  3.092974471660292E-004  5.032882579422049E-007
  3.149561994664275E-004  5.032882579422049E-007
  3.496641659438041E-004  5.032882579422049E-007
  3.599028128304322E-004  5.032882579422049E-007
  3.742610039908044E-004  5.032882579422049E-007
  3.804192371547427E-004  5.032882579422049E-007
  3.948820537854249E-004  5.032882579422049E-007
  4.222531336212912E-004  5.032882579422049E-007
  4.405912730513615E-004  5.032882579422049E-007
  5.750448497938059E-004  5.032882579422049E-007
  5.844562230202387E-004  5.032882579422049E-007
  5.931432906484921E-004  5.032882579422049E-007
  5.965772485436005E-004  5.032882579422049E-007
  5.974439063213374E-004  5.032882579422049E-007
  5.977697603167820E-004  5.032882579422049E-007
  5.998367002380288E-004  5.032882579422049E-007
  6.182976312769248E-004  5.032882579422049E-007
  6.216870652314369E-004  5.032882579422049E-007
  6.259923484527724E-004  5.032882579422049E-007
  6.388886671811728E-004  5.032882579422049E-007
  6.482857962288444E-004  5.032882579422049E-007
  6.484742004877744E-004  5.032882579422049E-007
  6.546679565356301E-004  5.032882579422049E-007
  6.645713805822000E-004  5.032882579422049E-007
  8.364773629994972E-004  5.032882579422049E-007
  9.773671567417455E-004  5.032882579422049E-007
  1.053966351266444E-003  5.032882579422049E-007
  1.074132062153247E-003  5.032882579422049E-007
  1.081788165774009E-003  5.032882579422049E-007
  1.104140054641252E-003  5.032882579422049E-007
  1.121446293237728E-003  5.032882579422049E-007
  1.145564924838667E-003  5.032882579422049E-007
  1.153790805964712E-003  5.032882579422049E-007
  1.162729527102461E-003  5.032882579422049E-007
  1.170761537928738E-003  5.032882579422049E-007
  1.171003610315434E-003  5.032882579422049E-007
  1.183935796746187E-003  5.032882579422049E-007
  1.209338134552233E-003  5.032882579422049E-007
  1.289622434032655E-003  5.032882579422049E-007
  1.621933191466821E-003  5.032882579422049E-007
  1.799048580505247E-003  5.032882579422049E-007
  1.804314061926718E-003  5.032882579422049E-007
  2.083007248067183E-003  5.032882579422049E-007
  2.325432114940091E-003  5.032882579422049E-007
  2.498946948108361E-003  5.032882579422049E-007
  2.694109602751566E-003  5.032882579422049E-007
  3.524859207373972E-003  5.032882579422049E-007
  3.563517401684225E-003  5.032882579422049E-007
  3.653731028034829E-003  5.032882579422049E-007
  3.726768134595912E-003  5.032882579422049E-007
  3.946481883314778E-003  5.032882579422049E-007
  4.014892271882089E-003  5.032882579422049E-007
 cut=1d-8, nber non-redundant internal coords=          96
 Check on Eigenvals of non-red overlap matrix:
  0.00000050  0.00000185  0.00000218  0.00000301  0.00000821  0.00000913  0.00001217  0.00001677
  0.00001956  0.00002117  0.00002447  0.00003315  0.00003494  0.00003745  0.00004147  0.00004766
  0.00004828  0.00004851  0.00004990  0.00005164  0.00005585  0.00005826  0.00006916  0.00007174
  0.00008135  0.00008734  0.00009620  0.00010793  0.00011525  0.00011658  0.00011997  0.00012471
  0.00012870  0.00014201  0.00015560  0.00015598  0.00018428  0.00019757  0.00019997  0.00020789
  0.00024797  0.00029046  0.00029633  0.00030015  0.00030930  0.00031496  0.00034966  0.00035990
  0.00037426  0.00038042  0.00039488  0.00042225  0.00044059  0.00057504  0.00058446  0.00059314
  0.00059658  0.00059744  0.00059777  0.00059984  0.00061830  0.00062169  0.00062599  0.00063889
  0.00064829  0.00064847  0.00065467  0.00066457  0.00083648  0.00097737  0.00105397  0.00107413
  0.00108179  0.00110414  0.00112145  0.00114556  0.00115379  0.00116273  0.00117076  0.00117100
  0.00118394  0.00120934  0.00128962  0.00162193  0.00179905  0.00180431  0.00208301  0.00232543
  0.00249895  0.00269411  0.00352486  0.00356352  0.00365373  0.00372677  0.00394648  0.00401489
 Checking for correct frequencies
 recalc frequencies=
    -0.0   -0.0    0.0    0.0    0.0    0.0   20.1   24.3   47.2   61.0
    67.8  104.8  114.8  158.9  178.5  190.4  207.3  250.6  269.5  305.1
   338.1  366.3  410.5  413.3  416.4  431.0  437.6  446.9  459.0  502.1
   519.2  542.1  565.0  584.9  605.4  611.6  621.9  639.8  667.9  679.6
   683.8  707.7  716.7  726.2  748.9  761.4  765.2  775.1  802.9  807.5
   853.2  864.6  869.9  884.3  933.6  935.4  942.4  961.8  973.1  979.1
   990.4 1030.2 1068.8 1097.1 1127.0 1142.6 1169.3 1180.5 1192.8 1208.1
  1231.6 1244.6 1275.6 1313.5 1321.1 1342.0 1344.9 1361.2 1413.9 1424.1
  1439.0 1445.4 1464.5 1469.6 1482.2 1488.6 1505.4 1525.6 1567.8 1611.7
  1642.9 3164.8 3166.1 3177.1 3182.9 3184.5 3189.3 3196.8 3210.7 3212.9
  3230.5 3243.4
 recalc symmetries=
                                                                       
                                                                       
                                                                       
                                                                       
                                                                       
                                                                       
                                                                       
                                                                       
                                                                       
                                                                       
               
 recalc freqs check OK
 Zero-point lengths:
 10.0000 10.0000 10.0000 10.0000 10.0000 10.0000 55.3439 50.3052 36.0806 31.7489
 30.1144 24.2169 23.1347 19.6685 18.5553 17.9652 17.2204 15.6599 15.1013 14.1930
 13.4826 12.9527 12.2356 12.1941 12.1494 11.9412 11.8510 11.7276 11.5712 11.0641
 10.8804 10.6477 10.4293 10.2505 10.0759 10.0242  9.9410  9.8010  9.5924  9.5095
  9.4808  9.3188  9.2601  9.1995  9.0590  8.9846  8.9619  8.9045  8.7494  8.7241
  8.4872  8.4311  8.4053  8.3365  8.1138  8.1057  8.0759  7.9938  7.9472  7.9229
  7.8775  7.7239  7.5830  7.4845  7.3847  7.3343  7.2499  7.2155  7.1780  7.1326
  7.0643  7.0272  6.9413  6.8404  6.8206  6.7673  6.7601  6.7194  6.5931  6.5694
  6.5352  6.5208  6.4781  6.4669  6.4394  6.4255  6.3896  6.3470  6.2611  6.1752
  6.1162  4.4068  4.4059  4.3982  4.3942  4.3932  4.3898  4.3847  4.3752  4.3737
  4.3617  4.3531
 highest evec of mol 2
  0.0002  0.0002 -0.0000
  0.0000 -0.0001 -0.0000
  0.0001 -0.0002 -0.0000
 -0.0001  0.0000  0.0000
  0.0000  0.0000  0.0000
  0.0003  0.0001 -0.0000
 -0.0002  0.0001  0.0000
  0.0000  0.0002  0.0000
 -0.0003 -0.0005  0.0000
  0.0000  0.0001  0.0000
  0.0002 -0.0005 -0.0001
  0.0004  0.0019  0.0001
 -0.0031 -0.0004  0.0003
 -0.0010 -0.0021 -0.0000
  0.2805 -0.0234 -0.0303
  0.0227  0.0890  0.0028
 -0.0076 -0.0020  0.0007
  0.0005  0.0001 -0.0000
 -0.0002  0.0003  0.0000
  0.0001 -0.0002 -0.0000
 -0.0002 -0.0001  0.0000
  0.0001 -0.0000 -0.0000
 -0.0001  0.0001  0.0000
 -0.0005 -0.0005  0.0000
 -0.0003  0.0001  0.0000
 -0.0001  0.0005  0.0000
  0.0001 -0.0003 -0.0000
  0.0009  0.0016 -0.0000
 -0.0019 -0.0051 -0.0001
 -0.9119  0.0381  0.0964
 -0.0949 -0.2448 -0.0043
  0.0006 -0.0011 -0.0001
  0.0001  0.0002  0.0000
  0.0001 -0.0004 -0.0000
 Enter nber and list of atoms to keep of mol #2
 keep list:          34           1           2           3           4
           5           6           7           8           9          10
          11          12          13          14          15          16
          17          18          19          20          21          22
          23          24          25          26          27          28
          29          30          31          32          33          34
 reordering atoms
           1  -7.37475457153927     
           2  -7.72845316751017     
           3  -6.75046799485762     
           4  -5.41533401845374     
           5  -3.97949069343823     
           6  -2.98651130575541     
           7  -1.56358761503083     
           8 -0.826730899472677     
           9  0.544179331399225     
          10   1.29254787159388     
          11   2.71499026467384     
          12   3.58281766663844     
          13   4.92346539417721     
          14   6.44760784258848     
          15   7.32722599252275     
          16   6.51220459695263     
          17   5.15231042936453     
          18   3.64246506078910     
          19  0.545769793844142     
          20 -0.822365524118250     
          21  -3.70381315515580     
          22  -5.03504426437878     
          23  -6.05086258658061     
          24  -8.15813378217082     
          25  -8.77476881998298     
          26  -7.02740214085780     
          27  -1.35535513948129     
          28   1.06859867180634     
          29   3.22891607130817     
          30   8.40637334117395     
          31   6.89062332778109     
          32   1.07086324749204     
          33  -1.37757440572536     
          34  -5.76625066396463     
           1           1
           2           2
           3           3
           4           4
           5           5
           6           6
           7           7
           8           8
           9           9
          10          10
          11          11
          12          12
          13          13
          14          14
          15          15
          16          16
          17          17
          18          18
          19          19
          20          20
          21          21
          22          22
          23          23
          24          24
          25          25
          26          26
          27          27
          28          28
          29          29
          30          30
          31          31
          32          32
          33          33
          34          34
 initial cartes coords mol 1
   6   0.21156  -1.42612  -7.39434
   6  -0.04190  -0.09069  -7.74548
   6  -0.21430   0.88573  -6.77167
   6  -0.12825   0.50089  -5.43437
  16  -0.29452   1.47328  -3.98943
   6  -0.00965  -0.00121  -3.01578
   6  -0.00344   0.04056  -1.55111
   6  -0.22469   1.22170  -0.83122
   6  -0.21592   1.22266   0.55539
   6   0.02267   0.04343   1.28000
   6   0.02581   0.02747   2.74294
   6  -0.25437  -1.02835   3.57691
   6  -0.15202  -0.67322   4.94549
  16  -0.38311  -1.51100   6.45767
   6   0.01031  -0.05704   7.34701
   6   0.29893   1.00639   6.54259
   6   0.20283   0.65082   5.16844
  16   0.43075   1.48825   3.65914
   6   0.25512  -1.13813   0.55092
   6   0.23627  -1.14243  -0.83233
   7   0.18454  -1.07806  -3.70919
   6   0.12646  -0.84059  -5.06570
   6   0.29701  -1.80855  -6.06475
   1   0.34181  -2.16631  -8.17520
   1  -0.10448   0.18535  -8.79171
   1  -0.40964   1.91472  -7.04794
   1  -0.41706   2.15182  -1.35413
   1  -0.41745   2.14698   1.08402
   1  -0.55023  -2.00303   3.21523
   1   0.00264  -0.08637   8.42566
   1   0.56353   1.98547   6.91656
   1   0.47666  -2.05738   1.07971
   1   0.41923  -2.05494  -1.38472
   1   0.49183  -2.83441  -5.77725
 initial cartes coords mol 2
   6  -0.00016  -1.45497  -7.37475
   6   0.00036  -0.09131  -7.72845
   6   0.00055   0.90039  -6.75047
   6   0.00021   0.51130  -5.41533
  16   0.00027   1.50708  -3.97949
   6  -0.00024  -0.00370  -2.98651
   6  -0.00020   0.03977  -1.56359
   6   0.00046   1.26092  -0.82673
   6   0.00064   1.26050   0.54418
   6   0.00020   0.04439   1.29255
   6   0.00031   0.03450   2.71499
   6   0.00080  -1.07979   3.58282
   6   0.00036  -0.70313   4.92347
  16   0.00064  -1.57326   6.44761
   6  -0.00026  -0.06243   7.32723
   6  -0.00075   1.04689   6.51220
   6  -0.00041   0.68672   5.15231
  16  -0.00060   1.56520   3.64247
   6  -0.00050  -1.17875   0.54577
   6  -0.00073  -1.18187  -0.82237
   7  -0.00056  -1.11753  -3.70381
   6  -0.00031  -0.86851  -5.03504
   6  -0.00049  -1.85073  -6.05086
   1  -0.00029  -2.20451  -8.15813
   1   0.00062   0.19125  -8.77477
   1   0.00095   1.94786  -7.02740
   1   0.00094   2.20709  -1.35536
   1   0.00123   2.20948   1.06860
   1   0.00165  -2.09957   3.22892
   1  -0.00042  -0.08400   8.40637
   1  -0.00136   2.05969   6.89062
   1  -0.00103  -2.12579   1.07086
   1  -0.00132  -2.11043  -1.37757
   1  -0.00089  -2.89569  -5.76625
 loop 1 0
 mod cartes coords mol 2
   6  -0.00016  -1.45497  -7.37475
   6   0.00036  -0.09131  -7.72845
   6   0.00055   0.90039  -6.75047
   6   0.00021   0.51130  -5.41533
  16   0.00027   1.50708  -3.97949
   6  -0.00024  -0.00370  -2.98651
   6  -0.00020   0.03977  -1.56359
   6   0.00046   1.26092  -0.82673
   6   0.00064   1.26050   0.54418
   6   0.00020   0.04439   1.29255
   6   0.00031   0.03450   2.71499
   6   0.00080  -1.07979   3.58282
   6   0.00036  -0.70313   4.92347
  16   0.00064  -1.57326   6.44761
   6  -0.00026  -0.06243   7.32723
   6  -0.00075   1.04689   6.51220
   6  -0.00041   0.68672   5.15231
  16  -0.00060   1.56520   3.64247
   6  -0.00050  -1.17875   0.54577
   6  -0.00073  -1.18187  -0.82237
   7  -0.00056  -1.11753  -3.70381
   6  -0.00031  -0.86851  -5.03504
   6  -0.00049  -1.85073  -6.05086
   1  -0.00029  -2.20451  -8.15813
   1   0.00062   0.19125  -8.77477
   1   0.00095   1.94786  -7.02740
   1   0.00094   2.20709  -1.35536
   1   0.00123   2.20948   1.06860
   1   0.00165  -2.09957   3.22892
   1  -0.00042  -0.08400   8.40637
   1  -0.00136   2.05969   6.89062
   1  -0.00103  -2.12579   1.07086
   1  -0.00132  -2.11043  -1.37757
   1  -0.00089  -2.89569  -5.76625
 read in order, maxerr=  0.57 for atom  31
 loop 1 1
 mod cartes coords mol 2
   6   0.00016  -1.45497  -7.37475
   6  -0.00036  -0.09131  -7.72845
   6  -0.00055   0.90039  -6.75047
   6  -0.00021   0.51130  -5.41533
  16  -0.00027   1.50708  -3.97949
   6   0.00024  -0.00370  -2.98651
   6   0.00020   0.03977  -1.56359
   6  -0.00046   1.26092  -0.82673
   6  -0.00064   1.26050   0.54418
   6  -0.00020   0.04439   1.29255
   6  -0.00031   0.03450   2.71499
   6  -0.00080  -1.07979   3.58282
   6  -0.00036  -0.70313   4.92347
  16  -0.00064  -1.57326   6.44761
   6   0.00026  -0.06243   7.32723
   6   0.00075   1.04689   6.51220
   6   0.00041   0.68672   5.15231
  16   0.00060   1.56520   3.64247
   6   0.00050  -1.17875   0.54577
   6   0.00073  -1.18187  -0.82237
   7   0.00056  -1.11753  -3.70381
   6   0.00031  -0.86851  -5.03504
   6   0.00049  -1.85073  -6.05086
   1   0.00029  -2.20451  -8.15813
   1  -0.00062   0.19125  -8.77477
   1  -0.00095   1.94786  -7.02740
   1  -0.00094   2.20709  -1.35536
   1  -0.00123   2.20948   1.06860
   1  -0.00165  -2.09957   3.22892
   1   0.00042  -0.08400   8.40637
   1   0.00136   2.05969   6.89062
   1   0.00103  -2.12579   1.07086
   1   0.00132  -2.11043  -1.37757
   1   0.00089  -2.89569  -5.76625
 read in order, maxerr=  0.57 for atom  31
 loop 1 2
 mod cartes coords mol 2
   6  -0.00016   1.45497  -7.37475
   6   0.00036   0.09131  -7.72845
   6   0.00055  -0.90039  -6.75047
   6   0.00021  -0.51130  -5.41533
  16   0.00027  -1.50708  -3.97949
   6  -0.00024   0.00370  -2.98651
   6  -0.00020  -0.03977  -1.56359
   6   0.00046  -1.26092  -0.82673
   6   0.00064  -1.26050   0.54418
   6   0.00020  -0.04439   1.29255
   6   0.00031  -0.03450   2.71499
   6   0.00080   1.07979   3.58282
   6   0.00036   0.70313   4.92347
  16   0.00064   1.57326   6.44761
   6  -0.00026   0.06243   7.32723
   6  -0.00075  -1.04689   6.51220
   6  -0.00041  -0.68672   5.15231
  16  -0.00060  -1.56520   3.64247
   6  -0.00050   1.17875   0.54577
   6  -0.00073   1.18187  -0.82237
   7  -0.00056   1.11753  -3.70381
   6  -0.00031   0.86851  -5.03504
   6  -0.00049   1.85073  -6.05086
   1  -0.00029   2.20451  -8.15813
   1   0.00062  -0.19125  -8.77477
   1   0.00095  -1.94786  -7.02740
   1   0.00094  -2.20709  -1.35536
   1   0.00123  -2.20948   1.06860
   1   0.00165   2.09957   3.22892
   1  -0.00042   0.08400   8.40637
   1  -0.00136  -2.05969   6.89062
   1  -0.00103   2.12579   1.07086
   1  -0.00132   2.11043  -1.37757
   1  -0.00089   2.89569  -5.76625
 read in order, maxerr=  5.75 for atom  34
 loop 1 3
 mod cartes coords mol 2
   6   0.00016   1.45497  -7.37475
   6  -0.00036   0.09131  -7.72845
   6  -0.00055  -0.90039  -6.75047
   6  -0.00021  -0.51130  -5.41533
  16  -0.00027  -1.50708  -3.97949
   6   0.00024   0.00370  -2.98651
   6   0.00020  -0.03977  -1.56359
   6  -0.00046  -1.26092  -0.82673
   6  -0.00064  -1.26050   0.54418
   6  -0.00020  -0.04439   1.29255
   6  -0.00031  -0.03450   2.71499
   6  -0.00080   1.07979   3.58282
   6  -0.00036   0.70313   4.92347
  16  -0.00064   1.57326   6.44761
   6   0.00026   0.06243   7.32723
   6   0.00075  -1.04689   6.51220
   6   0.00041  -0.68672   5.15231
  16   0.00060  -1.56520   3.64247
   6   0.00050   1.17875   0.54577
   6   0.00073   1.18187  -0.82237
   7   0.00056   1.11753  -3.70381
   6   0.00031   0.86851  -5.03504
   6   0.00049   1.85073  -6.05086
   1   0.00029   2.20451  -8.15813
   1  -0.00062  -0.19125  -8.77477
   1  -0.00095  -1.94786  -7.02740
   1  -0.00094  -2.20709  -1.35536
   1  -0.00123  -2.20948   1.06860
   1  -0.00165   2.09957   3.22892
   1   0.00042   0.08400   8.40637
   1   0.00136  -2.05969   6.89062
   1   0.00103   2.12579   1.07086
   1   0.00132   2.11043  -1.37757
   1   0.00089   2.89569  -5.76625
 read in order, maxerr=  5.75 for atom  34
 loop 1 4
 mod cartes coords mol 2
   6  -0.00016  -1.45497   7.37475
   6   0.00036  -0.09131   7.72845
   6   0.00055   0.90039   6.75047
   6   0.00021   0.51130   5.41533
  16   0.00027   1.50708   3.97949
   6  -0.00024  -0.00370   2.98651
   6  -0.00020   0.03977   1.56359
   6   0.00046   1.26092   0.82673
   6   0.00064   1.26050  -0.54418
   6   0.00020   0.04439  -1.29255
   6   0.00031   0.03450  -2.71499
   6   0.00080  -1.07979  -3.58282
   6   0.00036  -0.70313  -4.92347
  16   0.00064  -1.57326  -6.44761
   6  -0.00026  -0.06243  -7.32723
   6  -0.00075   1.04689  -6.51220
   6  -0.00041   0.68672  -5.15231
  16  -0.00060   1.56520  -3.64247
   6  -0.00050  -1.17875  -0.54577
   6  -0.00073  -1.18187   0.82237
   7  -0.00056  -1.11753   3.70381
   6  -0.00031  -0.86851   5.03504
   6  -0.00049  -1.85073   6.05086
   1  -0.00029  -2.20451   8.15813
   1   0.00062   0.19125   8.77477
   1   0.00095   1.94786   7.02740
   1   0.00094   2.20709   1.35536
   1   0.00123   2.20948  -1.06860
   1   0.00165  -2.09957  -3.22892
   1  -0.00042  -0.08400  -8.40637
   1  -0.00136   2.05969  -6.89062
   1  -0.00103  -2.12579  -1.07086
   1  -0.00132  -2.11043   1.37757
   1  -0.00089  -2.89569   5.76625
 read in order, maxerr= 17.57 for atom  25
 loop 1 5
 mod cartes coords mol 2
   6   0.00016  -1.45497   7.37475
   6  -0.00036  -0.09131   7.72845
   6  -0.00055   0.90039   6.75047
   6  -0.00021   0.51130   5.41533
  16  -0.00027   1.50708   3.97949
   6   0.00024  -0.00370   2.98651
   6   0.00020   0.03977   1.56359
   6  -0.00046   1.26092   0.82673
   6  -0.00064   1.26050  -0.54418
   6  -0.00020   0.04439  -1.29255
   6  -0.00031   0.03450  -2.71499
   6  -0.00080  -1.07979  -3.58282
   6  -0.00036  -0.70313  -4.92347
  16  -0.00064  -1.57326  -6.44761
   6   0.00026  -0.06243  -7.32723
   6   0.00075   1.04689  -6.51220
   6   0.00041   0.68672  -5.15231
  16   0.00060   1.56520  -3.64247
   6   0.00050  -1.17875  -0.54577
   6   0.00073  -1.18187   0.82237
   7   0.00056  -1.11753   3.70381
   6   0.00031  -0.86851   5.03504
   6   0.00049  -1.85073   6.05086
   1   0.00029  -2.20451   8.15813
   1  -0.00062   0.19125   8.77477
   1  -0.00095   1.94786   7.02740
   1  -0.00094   2.20709   1.35536
   1  -0.00123   2.20948  -1.06860
   1  -0.00165  -2.09957  -3.22892
   1   0.00042  -0.08400  -8.40637
   1   0.00136   2.05969  -6.89062
   1   0.00103  -2.12579  -1.07086
   1   0.00132  -2.11043   1.37757
   1   0.00089  -2.89569   5.76625
 read in order, maxerr= 17.57 for atom  25
 loop 1 6
 mod cartes coords mol 2
   6  -0.00016   1.45497   7.37475
   6   0.00036   0.09131   7.72845
   6   0.00055  -0.90039   6.75047
   6   0.00021  -0.51130   5.41533
  16   0.00027  -1.50708   3.97949
   6  -0.00024   0.00370   2.98651
   6  -0.00020  -0.03977   1.56359
   6   0.00046  -1.26092   0.82673
   6   0.00064  -1.26050  -0.54418
   6   0.00020  -0.04439  -1.29255
   6   0.00031  -0.03450  -2.71499
   6   0.00080   1.07979  -3.58282
   6   0.00036   0.70313  -4.92347
  16   0.00064   1.57326  -6.44761
   6  -0.00026   0.06243  -7.32723
   6  -0.00075  -1.04689  -6.51220
   6  -0.00041  -0.68672  -5.15231
  16  -0.00060  -1.56520  -3.64247
   6  -0.00050   1.17875  -0.54577
   6  -0.00073   1.18187   0.82237
   7  -0.00056   1.11753   3.70381
   6  -0.00031   0.86851   5.03504
   6  -0.00049   1.85073   6.05086
   1  -0.00029   2.20451   8.15813
   1   0.00062  -0.19125   8.77477
   1   0.00095  -1.94786   7.02740
   1   0.00094  -2.20709   1.35536
   1   0.00123  -2.20948  -1.06860
   1   0.00165   2.09957  -3.22892
   1  -0.00042   0.08400  -8.40637
   1  -0.00136  -2.05969  -6.89062
   1  -0.00103   2.12579  -1.07086
   1  -0.00132   2.11043   1.37757
   1  -0.00089   2.89569   5.76625
 read in order, maxerr= 17.57 for atom  25
 loop 1 7
 mod cartes coords mol 2
   6   0.00016   1.45497   7.37475
   6  -0.00036   0.09131   7.72845
   6  -0.00055  -0.90039   6.75047
   6  -0.00021  -0.51130   5.41533
  16  -0.00027  -1.50708   3.97949
   6   0.00024   0.00370   2.98651
   6   0.00020  -0.03977   1.56359
   6  -0.00046  -1.26092   0.82673
   6  -0.00064  -1.26050  -0.54418
   6  -0.00020  -0.04439  -1.29255
   6  -0.00031  -0.03450  -2.71499
   6  -0.00080   1.07979  -3.58282
   6  -0.00036   0.70313  -4.92347
  16  -0.00064   1.57326  -6.44761
   6   0.00026   0.06243  -7.32723
   6   0.00075  -1.04689  -6.51220
   6   0.00041  -0.68672  -5.15231
  16   0.00060  -1.56520  -3.64247
   6   0.00050   1.17875  -0.54577
   6   0.00073   1.18187   0.82237
   7   0.00056   1.11753   3.70381
   6   0.00031   0.86851   5.03504
   6   0.00049   1.85073   6.05086
   1   0.00029   2.20451   8.15813
   1  -0.00062  -0.19125   8.77477
   1  -0.00095  -1.94786   7.02740
   1  -0.00094  -2.20709   1.35536
   1  -0.00123  -2.20948  -1.06860
   1  -0.00165   2.09957  -3.22892
   1   0.00042   0.08400  -8.40637
   1   0.00136  -2.05969  -6.89062
   1   0.00103   2.12579  -1.07086
   1   0.00132   2.11043   1.37757
   1   0.00089   2.89569   5.76625
 read in order, maxerr= 17.57 for atom  25
 loop 2 0
 mod cartes coords mol 2
   6  -0.00016  -7.37475  -1.45497
   6   0.00036  -7.72845  -0.09131
   6   0.00055  -6.75047   0.90039
   6   0.00021  -5.41533   0.51130
  16   0.00027  -3.97949   1.50708
   6  -0.00024  -2.98651  -0.00370
   6  -0.00020  -1.56359   0.03977
   6   0.00046  -0.82673   1.26092
   6   0.00064   0.54418   1.26050
   6   0.00020   1.29255   0.04439
   6   0.00031   2.71499   0.03450
   6   0.00080   3.58282  -1.07979
   6   0.00036   4.92347  -0.70313
  16   0.00064   6.44761  -1.57326
   6  -0.00026   7.32723  -0.06243
   6  -0.00075   6.51220   1.04689
   6  -0.00041   5.15231   0.68672
  16  -0.00060   3.64247   1.56520
   6  -0.00050   0.54577  -1.17875
   6  -0.00073  -0.82237  -1.18187
   7  -0.00056  -3.70381  -1.11753
   6  -0.00031  -5.03504  -0.86851
   6  -0.00049  -6.05086  -1.85073
   1  -0.00029  -8.15813  -2.20451
   1   0.00062  -8.77477   0.19125
   1   0.00095  -7.02740   1.94786
   1   0.00094  -1.35536   2.20709
   1   0.00123   1.06860   2.20948
   1   0.00165   3.22892  -2.09957
   1  -0.00042   8.40637  -0.08400
   1  -0.00136   6.89062   2.05969
   1  -0.00103   1.07086  -2.12579
   1  -0.00132  -1.37757  -2.11043
   1  -0.00089  -5.76625  -2.89569
 read in order, maxerr= 12.69 for atom  26
 loop 2 1
 mod cartes coords mol 2
   6   0.00016  -7.37475  -1.45497
   6  -0.00036  -7.72845  -0.09131
   6  -0.00055  -6.75047   0.90039
   6  -0.00021  -5.41533   0.51130
  16  -0.00027  -3.97949   1.50708
   6   0.00024  -2.98651  -0.00370
   6   0.00020  -1.56359   0.03977
   6  -0.00046  -0.82673   1.26092
   6  -0.00064   0.54418   1.26050
   6  -0.00020   1.29255   0.04439
   6  -0.00031   2.71499   0.03450
   6  -0.00080   3.58282  -1.07979
   6  -0.00036   4.92347  -0.70313
  16  -0.00064   6.44761  -1.57326
   6   0.00026   7.32723  -0.06243
   6   0.00075   6.51220   1.04689
   6   0.00041   5.15231   0.68672
  16   0.00060   3.64247   1.56520
   6   0.00050   0.54577  -1.17875
   6   0.00073  -0.82237  -1.18187
   7   0.00056  -3.70381  -1.11753
   6   0.00031  -5.03504  -0.86851
   6   0.00049  -6.05086  -1.85073
   1   0.00029  -8.15813  -2.20451
   1  -0.00062  -8.77477   0.19125
   1  -0.00095  -7.02740   1.94786
   1  -0.00094  -1.35536   2.20709
   1  -0.00123   1.06860   2.20948
   1  -0.00165   3.22892  -2.09957
   1   0.00042   8.40637  -0.08400
   1   0.00136   6.89062   2.05969
   1   0.00103   1.07086  -2.12579
   1   0.00132  -1.37757  -2.11043
   1   0.00089  -5.76625  -2.89569
 read in order, maxerr= 12.69 for atom  26
 loop 2 2
 mod cartes coords mol 2
   6  -0.00016  -7.37475   1.45497
   6   0.00036  -7.72845   0.09131
   6   0.00055  -6.75047  -0.90039
   6   0.00021  -5.41533  -0.51130
  16   0.00027  -3.97949  -1.50708
   6  -0.00024  -2.98651   0.00370
   6  -0.00020  -1.56359  -0.03977
   6   0.00046  -0.82673  -1.26092
   6   0.00064   0.54418  -1.26050
   6   0.00020   1.29255  -0.04439
   6   0.00031   2.71499  -0.03450
   6   0.00080   3.58282   1.07979
   6   0.00036   4.92347   0.70313
  16   0.00064   6.44761   1.57326
   6  -0.00026   7.32723   0.06243
   6  -0.00075   6.51220  -1.04689
   6  -0.00041   5.15231  -0.68672
  16  -0.00060   3.64247  -1.56520
   6  -0.00050   0.54577   1.17875
   6  -0.00073  -0.82237   1.18187
   7  -0.00056  -3.70381   1.11753
   6  -0.00031  -5.03504   0.86851
   6  -0.00049  -6.05086   1.85073
   1  -0.00029  -8.15813   2.20451
   1   0.00062  -8.77477  -0.19125
   1   0.00095  -7.02740  -1.94786
   1   0.00094  -1.35536  -2.20709
   1   0.00123   1.06860  -2.20948
   1   0.00165   3.22892   2.09957
   1  -0.00042   8.40637   0.08400
   1  -0.00136   6.89062  -2.05969
   1  -0.00103   1.07086   2.12579
   1  -0.00132  -1.37757   2.11043
   1  -0.00089  -5.76625   2.89569
 read in order, maxerr= 12.42 for atom  25
 loop 2 3
 mod cartes coords mol 2
   6   0.00016  -7.37475   1.45497
   6  -0.00036  -7.72845   0.09131
   6  -0.00055  -6.75047  -0.90039
   6  -0.00021  -5.41533  -0.51130
  16  -0.00027  -3.97949  -1.50708
   6   0.00024  -2.98651   0.00370
   6   0.00020  -1.56359  -0.03977
   6  -0.00046  -0.82673  -1.26092
   6  -0.00064   0.54418  -1.26050
   6  -0.00020   1.29255  -0.04439
   6  -0.00031   2.71499  -0.03450
   6  -0.00080   3.58282   1.07979
   6  -0.00036   4.92347   0.70313
  16  -0.00064   6.44761   1.57326
   6   0.00026   7.32723   0.06243
   6   0.00075   6.51220  -1.04689
   6   0.00041   5.15231  -0.68672
  16   0.00060   3.64247  -1.56520
   6   0.00050   0.54577   1.17875
   6   0.00073  -0.82237   1.18187
   7   0.00056  -3.70381   1.11753
   6   0.00031  -5.03504   0.86851
   6   0.00049  -6.05086   1.85073
   1   0.00029  -8.15813   2.20451
   1  -0.00062  -8.77477  -0.19125
   1  -0.00095  -7.02740  -1.94786
   1  -0.00094  -1.35536  -2.20709
   1  -0.00123   1.06860  -2.20948
   1  -0.00165   3.22892   2.09957
   1   0.00042   8.40637   0.08400
   1   0.00136   6.89062  -2.05969
   1   0.00103   1.07086   2.12579
   1   0.00132  -1.37757   2.11043
   1   0.00089  -5.76625   2.89569
 read in order, maxerr= 12.42 for atom  25
 loop 2 4
 mod cartes coords mol 2
   6  -0.00016   7.37475  -1.45497
   6   0.00036   7.72845  -0.09131
   6   0.00055   6.75047   0.90039
   6   0.00021   5.41533   0.51130
  16   0.00027   3.97949   1.50708
   6  -0.00024   2.98651  -0.00370
   6  -0.00020   1.56359   0.03977
   6   0.00046   0.82673   1.26092
   6   0.00064  -0.54418   1.26050
   6   0.00020  -1.29255   0.04439
   6   0.00031  -2.71499   0.03450
   6   0.00080  -3.58282  -1.07979
   6   0.00036  -4.92347  -0.70313
  16   0.00064  -6.44761  -1.57326
   6  -0.00026  -7.32723  -0.06243
   6  -0.00075  -6.51220   1.04689
   6  -0.00041  -5.15231   0.68672
  16  -0.00060  -3.64247   1.56520
   6  -0.00050  -0.54577  -1.17875
   6  -0.00073   0.82237  -1.18187
   7  -0.00056   3.70381  -1.11753
   6  -0.00031   5.03504  -0.86851
   6  -0.00049   6.05086  -1.85073
   1  -0.00029   8.15813  -2.20451
   1   0.00062   8.77477   0.19125
   1   0.00095   7.02740   1.94786
   1   0.00094   1.35536   2.20709
   1   0.00123  -1.06860   2.20948
   1   0.00165  -3.22892  -2.09957
   1  -0.00042  -8.40637  -0.08400
   1  -0.00136  -6.89062   2.05969
   1  -0.00103  -1.07086  -2.12579
   1  -0.00132   1.37757  -2.11043
   1  -0.00089   5.76625  -2.89569
 read in order, maxerr= 12.43 for atom  25
 loop 2 5
 mod cartes coords mol 2
   6   0.00016   7.37475  -1.45497
   6  -0.00036   7.72845  -0.09131
   6  -0.00055   6.75047   0.90039
   6  -0.00021   5.41533   0.51130
  16  -0.00027   3.97949   1.50708
   6   0.00024   2.98651  -0.00370
   6   0.00020   1.56359   0.03977
   6  -0.00046   0.82673   1.26092
   6  -0.00064  -0.54418   1.26050
   6  -0.00020  -1.29255   0.04439
   6  -0.00031  -2.71499   0.03450
   6  -0.00080  -3.58282  -1.07979
   6  -0.00036  -4.92347  -0.70313
  16  -0.00064  -6.44761  -1.57326
   6   0.00026  -7.32723  -0.06243
   6   0.00075  -6.51220   1.04689
   6   0.00041  -5.15231   0.68672
  16   0.00060  -3.64247   1.56520
   6   0.00050  -0.54577  -1.17875
   6   0.00073   0.82237  -1.18187
   7   0.00056   3.70381  -1.11753
   6   0.00031   5.03504  -0.86851
   6   0.00049   6.05086  -1.85073
   1   0.00029   8.15813  -2.20451
   1  -0.00062   8.77477   0.19125
   1  -0.00095   7.02740   1.94786
   1  -0.00094   1.35536   2.20709
   1  -0.00123  -1.06860   2.20948
   1  -0.00165  -3.22892  -2.09957
   1   0.00042  -8.40637  -0.08400
   1   0.00136  -6.89062   2.05969
   1   0.00103  -1.07086  -2.12579
   1   0.00132   1.37757  -2.11043
   1   0.00089   5.76625  -2.89569
 read in order, maxerr= 12.43 for atom  25
 loop 2 6
 mod cartes coords mol 2
   6  -0.00016   7.37475   1.45497
   6   0.00036   7.72845   0.09131
   6   0.00055   6.75047  -0.90039
   6   0.00021   5.41533  -0.51130
  16   0.00027   3.97949  -1.50708
   6  -0.00024   2.98651   0.00370
   6  -0.00020   1.56359  -0.03977
   6   0.00046   0.82673  -1.26092
   6   0.00064  -0.54418  -1.26050
   6   0.00020  -1.29255  -0.04439
   6   0.00031  -2.71499  -0.03450
[...]
  47       822.  0.9082    82.5   100.0  49       803.
  48       831.  0.6135    37.6    99.1  46       761.
                 0.4367    19.1          48       775.
  49       841.  0.3558    12.7    99.6  46       761.
                -0.8027    64.4          48       775.
  50       863. -0.7709    59.4    99.3  50       808.
  51       867. -0.9805    96.1    99.6  51       853.
  52       872. -0.9857    97.2    99.4  52       865.
  53       877. -0.9883    97.7    99.3  53       870.
  54       901.  0.9496    90.2    99.7  54       884.
  55       952. -0.9806    96.2    99.9  56       935.
  56       965.  0.9630    92.7    99.9  55       934.
  57       970.  0.9534    90.9    98.5  57       942.
  58       980.  0.9185    84.4    98.8  58       962.
  59       991.  0.9875    97.5    99.8  60       979.
  60       999.  0.9912    98.3    99.9  59       973.
  61      1034. -0.9281    86.1   100.5  61       990.
  62      1039.  0.9596    92.1    99.9  62      1030.
  63      1082.  0.9790    95.9    99.9  63      1069.
  64      1109.  0.9731    94.7    99.9  64      1097.
  65      1143. -0.7805    60.9    99.6  65      1127.
  66      1145. -0.9422    88.8    99.9  66      1143.
  67      1181.  0.8098    65.6    99.6  67      1169.
  68      1184. -0.9858    97.2    99.9  68      1180.
  69      1209.  0.8756    76.7   100.2  70      1208.
  70      1211.  0.4762    22.7    99.9  69      1193.
                -0.7198    51.8          71      1232.
  71      1246. -0.3892    15.1    99.4  69      1193.
                -0.5367    28.8          71      1232.
                -0.4937    24.4          72      1245.
  72      1255. -0.7116    50.6    99.4  72      1245.
  73      1275.  0.9472    89.7    99.9  73      1276.
  74      1310.  0.6816    46.5   100.1  75      1321.
  75      1321.  0.4308    18.6   100.0  74      1313.
                -0.5501    30.3          76      1342.
                -0.3494    12.2          78      1361.
  76      1340. -0.4120    17.0   100.0  74      1313.
                -0.5386    29.0          76      1342.
  77      1346. -0.4567    20.9   100.2  76      1342.
                 0.6060    36.7          77      1345.
                 0.5269    27.8          78      1361.
  78      1364. -0.5623    31.6    99.9  77      1345.
                 0.6300    39.7          78      1361.
  79      1380.  0.7406    54.8    99.6  79      1414.
                -0.5240    27.5          80      1424.
  80      1444.  0.4179    17.5    99.3  85      1482.
                -0.7037    49.5          86      1489.
  81      1457.  0.4851    23.5    99.6  81      1439.
                 0.4074    16.6          83      1464.
                 0.3974    15.8          86      1489.
                -0.3395    11.5          88      1526.
  82      1463. -0.3760    14.1    99.9  80      1424.
                -0.4924    24.2          81      1439.
                 0.6310    39.8          83      1464.
  83      1489. -0.7558    57.1    99.7  85      1482.
                -0.4027    16.2          86      1489.
  84      1503.  0.3409    11.6   100.3  81      1439.
                -0.7414    55.0          82      1445.
  85      1525. -0.4197    17.6   100.2  80      1424.
                 0.4905    24.1          82      1445.
                -0.4098    16.8          83      1464.
  86      1544.  0.4081    16.7   100.2  87      1505.
                -0.6084    37.0          88      1526.
  87      1558. -0.3198    10.2    99.8  80      1424.
                -0.3979    15.8          84      1470.
                -0.5709    32.6          87      1505.
  88      1595.  0.5464    29.9   100.3  84      1470.
                -0.4726    22.3          88      1526.
  89      1597. -0.9356    87.5   100.0  89      1568.
  90      1638. -0.9490    90.1    99.9  90      1612.
  91      1646.  0.9585    91.9    99.7  91      1643.
  92      3168.  0.9407    88.5   100.0  92      3165.
                 0.3261    10.6          95      3183.
  93      3169. -0.9880    97.6   100.0  93      3166.
  94      3181.  0.9882    97.6   100.0  94      3177.
  95      3181.  0.3961    15.7   100.0  95      3183.
                 0.9143    83.6          96      3184.
  96      3185. -0.3244    10.5   100.0  92      3165.
                 0.8580    73.6          95      3183.
                -0.3968    15.7          96      3184.
  97      3191. -0.9927    98.5   100.0  97      3189.
  98      3198.  0.9974    99.5   100.0  98      3197.
  99      3207.  0.9994    99.9   100.0  99      3211.
 100      3214. -0.9997    99.9   100.0 100      3213.
 101      3215. -0.9990    99.8   100.0 101      3230.
 102      3245.  0.9999   100.0   100.0 102      3243.
 nber times 1st assigned=           1           0
 nber times 1st assigned=           2           0
 nber times 1st assigned=           3           0
 nber times 1st assigned=           4           0
 nber times 1st assigned=           5           0
 nber times 1st assigned=           6           0
 nber times 1st assigned=           7           0
 nber times 1st assigned=           8           0
 nber times 1st assigned=           9           0
 nber times 1st assigned=          10           0
 nber times 1st assigned=          11           0
 nber times 1st assigned=          12           0
 nber times 1st assigned=          13           0
 nber times 1st assigned=          14           0
 nber times 1st assigned=          15           0
 nber times 1st assigned=          16           0
 nber times 1st assigned=          17           0
 nber times 1st assigned=          18           0
 nber times 1st assigned=          19           0
 nber times 1st assigned=          20           0
 nber times 1st assigned=          21           0
 nber times 1st assigned=          22           0
 nber times 1st assigned=          23           0
 nber times 1st assigned=          24           0
 nber times 1st assigned=          25           0
 nber times 1st assigned=          26           0
 nber times 1st assigned=          27           0
 nber times 1st assigned=          28           0
 nber times 1st assigned=          29           0
 nber times 1st assigned=          30           0
 nber times 1st assigned=          31           0
 nber times 1st assigned=          32           0
 nber times 1st assigned=          33           0
 nber times 1st assigned=          34           0
 nber times 1st assigned=          35           0
 nber times 1st assigned=          36           0
 nber times 1st assigned=          37           0
 nber times 1st assigned=          38           0
 nber times 1st assigned=          39           0
 nber times 1st assigned=          40           0
 nber times 1st assigned=          41           0
 nber times 1st assigned=          42           0
 nber times 1st assigned=          43           0
 nber times 1st assigned=          44           0
 nber times 1st assigned=          45           0
 nber times 1st assigned=          46           0
 nber times 1st assigned=          47           0
 nber times 1st assigned=          48           0
 nber times 1st assigned=          49           0
 nber times 1st assigned=          50           0
 nber times 1st assigned=          51           0
 nber times 1st assigned=          52           0
 nber times 1st assigned=          53           0
 nber times 1st assigned=          54           0
 nber times 1st assigned=          55           0
 nber times 1st assigned=          56           0
 nber times 1st assigned=          57           0
 nber times 1st assigned=          58           0
 nber times 1st assigned=          59           0
 nber times 1st assigned=          60           0
 nber times 1st assigned=          61           0
 nber times 1st assigned=          62           0
 nber times 1st assigned=          63           0
 nber times 1st assigned=          64           0
 nber times 1st assigned=          65           0
 nber times 1st assigned=          66           0
 nber times 1st assigned=          67           0
 nber times 1st assigned=          68           0
 nber times 1st assigned=          69           0
 nber times 1st assigned=          70           0
 nber times 1st assigned=          71           0
 nber times 1st assigned=          72           0
 nber times 1st assigned=          73           0
 nber times 1st assigned=          74           0
 nber times 1st assigned=          75           0
 nber times 1st assigned=          76           0
 nber times 1st assigned=          77           0
 nber times 1st assigned=          78           0
 nber times 1st assigned=          79           0
 nber times 1st assigned=          80           0
 nber times 1st assigned=          81           0
 nber times 1st assigned=          82           0
 nber times 1st assigned=          83           0
 nber times 1st assigned=          84           0
 nber times 1st assigned=          85           0
 nber times 1st assigned=          86           0
 nber times 1st assigned=          87           0
 nber times 1st assigned=          88           0
 nber times 1st assigned=          89           0
 nber times 1st assigned=          90           0
 nber times 1st assigned=          91           0
 nber times 1st assigned=          92           0
 nber times 1st assigned=          93           0
 nber times 1st assigned=          94           0
 nber times 1st assigned=          95           0
 nber times 1st assigned=          96           0
 nber times 1st assigned=          97           0
 nber times 1st assigned=          98           0
 nber times 1st assigned=          99           0
 nber times 1st assigned=         100           0
 nber times 1st assigned=         101           0
 nber times 1st assigned=         102           0
 modes represented=   110.314562830335     
 p1=
    0.   -0.   -0.    0.   -0.    0. -171.   -4.   32.  114.  -10.   -1.    3.   16.    0.   -4.   -2.   -0.   -2.   -0.
   -1.    0.   -3.   -2.    0.   -0.   -5.    1.   -1.   -2.    1.    0.    2.    0.    1.    0.    1.   -2.   -1.   -0.
   -4.    2.   -0.   -1.    0.   -0.   -0.   -1.    0.    0.    0.    1.    0.   -1.    0.   -0.    2.    1.    0.    1.
   -0.   -1.    1.    1.   -1.   -1.   -1.    0.    3.   -0.    1.    1.    0.   -0.    1.    0.   -1.   -2.   -0.   -1.
    3.    1.   -1.   -1.    1.    5.   -1.    0.   -0.   -1.    3.   -0.    0.    0.   -0.   -0.   -0.    0.   -0.   -0.
    0.    0.
 p2=
    0.   -0.   -0.    0.   -0.   -0.  -80.  192.    1.  -15.   35.    6.    2.  -11.   -3.    1.    3.   -2.   -0.    0.
   -0.   -1.    2.    3.   -1.    0.    1.    4.    1.    3.   -0.    0.    2.   -0.   -1.   -1.   -0.   -3.    2.    1.
    4.    1.   -0.    0.   -1.   -2.    0.   -1.    1.   -1.   -0.    1.    0.    1.   -0.    0.   -2.   -1.    0.   -0.
    0.    1.   -1.   -1.    0.   -1.    1.    0.    0.   -3.   -0.   -1.    0.   -0.   -0.    0.   -0.    3.    0.    1.
    1.   -1.   -1.    1.    1.   -2.   -4.    4.   -1.   -0.   -4.    0.    0.   -0.    0.   -0.   -0.   -0.    0.   -0.
    0.   -0.

 Displacement: in terms of nc of 1 THEN of nc of 2

   1     freq=    -0. Q=  0.000 lam=    -0.0     freq=    -0. Q=  0.000 lam=    -0.0
   2     freq=    -0. Q= -0.000 lam=    -0.0     freq=    -0. Q= -0.000 lam=    -0.0
   3     freq=     0. Q= -0.000 lam=     0.0     freq=     0. Q= -0.000 lam=     0.0
   4     freq=     0. Q=  0.000 lam=     0.0     freq=     0. Q=  0.000 lam=     0.0
   5     freq=     0. Q= -0.000 lam=     0.0     freq=     0. Q= -0.000 lam=     0.0
   6     freq=     0. Q=  0.000 lam=     0.0     freq=     0. Q=  0.000 lam=     0.0
   7     freq=    18. Q= -2.936 lam=    78.0     freq=    20. Q= -1.444 lam=    20.9
   8     freq=    24. Q= -0.079 lam=     0.1     freq=    24. Q= -3.808 lam=   176.1
   9     freq=    44. Q=  0.857 lam=    16.2     freq=    47. Q=  0.031 lam=     0.0
  10     freq=    46. Q=  3.129 lam=   226.0     freq=    61. Q=  0.462 lam=     6.5
  11     freq=    69. Q= -0.340 lam=     4.0     freq=    68. Q= -1.147 lam=    44.5
  12     freq=   105. Q= -0.026 lam=     0.0     freq=   105. Q= -0.260 lam=     3.5
  13     freq=   134. Q=  0.155 lam=     1.6     freq=   115. Q=  0.082 lam=     0.4
  14     freq=   158. Q=  0.787 lam=    49.0     freq=   159. Q=  0.570 lam=    25.8
  15     freq=   192. Q=  0.003 lam=     0.0     freq=   179. Q=  0.137 lam=     1.7
  16     freq=   204. Q= -0.216 lam=     4.7     freq=   190. Q= -0.033 lam=     0.1
  17     freq=   209. Q= -0.109 lam=     1.2     freq=   207. Q= -0.163 lam=     2.8
  18     freq=   264. Q= -0.004 lam=     0.0     freq=   251. Q= -0.107 lam=     1.4
  19     freq=   287. Q= -0.103 lam=     1.5     freq=   269. Q= -0.018 lam=     0.0
  20     freq=   337. Q= -0.033 lam=     0.2     freq=   305. Q= -0.011 lam=     0.0
  21     freq=   359. Q= -0.047 lam=     0.4     freq=   338. Q= -0.022 lam=     0.1
  22     freq=   365. Q=  0.038 lam=     0.3     freq=   366. Q=  0.058 lam=     0.6
  23     freq=   412. Q= -0.218 lam=     9.8     freq=   411. Q= -0.182 lam=     6.8
  24     freq=   413. Q= -0.181 lam=     6.8     freq=   413. Q= -0.207 lam=     8.8
  25     freq=   431. Q=  0.032 lam=     0.2     freq=   416. Q=  0.113 lam=     2.7
  26     freq=   440. Q= -0.023 lam=     0.1     freq=   431. Q= -0.029 lam=     0.2
  27     freq=   461. Q= -0.394 lam=    35.7     freq=   438. Q= -0.045 lam=     0.4
  28     freq=   469. Q=  0.066 lam=     1.0     freq=   447. Q=  0.340 lam=    25.8
  29     freq=   501. Q= -0.072 lam=     1.3     freq=   459. Q= -0.070 lam=     1.1
  30     freq=   510. Q= -0.203 lam=    10.5     freq=   502. Q= -0.230 lam=    13.3
  31     freq=   554. Q=  0.066 lam=     1.2     freq=   519. Q=  0.017 lam=     0.1
  32     freq=   573. Q=  0.028 lam=     0.2     freq=   542. Q=  0.023 lam=     0.1
  33     freq=   574. Q=  0.160 lam=     7.3     freq=   565. Q=  0.189 lam=    10.1
  34     freq=   610. Q=  0.036 lam=     0.4     freq=   585. Q=  0.002 lam=     0.0
  35     freq=   623. Q=  0.060 lam=     1.1     freq=   605. Q=  0.115 lam=     4.0
  36     freq=   626. Q=  0.018 lam=     0.1     freq=   612. Q=  0.080 lam=     1.9
  37     freq=   640. Q=  0.055 lam=     1.0     freq=   622. Q=  0.032 lam=     0.3
  38     freq=   655. Q= -0.228 lam=    17.0     freq=   640. Q= -0.287 lam=    26.3
  39     freq=   693. Q= -0.147 lam=     7.5     freq=   668. Q= -0.183 lam=    11.2
  40     freq=   703. Q= -0.012 lam=     0.1     freq=   680. Q= -0.060 lam=     1.2
  41     freq=   715. Q= -0.439 lam=    69.0     freq=   684. Q= -0.387 lam=    51.2
  42     freq=   717. Q=  0.193 lam=    13.4     freq=   708. Q=  0.156 lam=     8.6
  43     freq=   736. Q= -0.032 lam=     0.4     freq=   717. Q= -0.034 lam=     0.4
  44     freq=   747. Q= -0.104 lam=     4.1     freq=   726. Q= -0.013 lam=     0.1
  45     freq=   764. Q=  0.010 lam=     0.0     freq=   749. Q=  0.105 lam=     4.1
  46     freq=   773. Q= -0.007 lam=     0.0     freq=   761. Q= -0.227 lam=    19.6
  47     freq=   822. Q= -0.034 lam=     0.5     freq=   765. Q= -0.028 lam=     0.3
  48     freq=   831. Q= -0.105 lam=     4.6     freq=   775. Q= -0.121 lam=     5.7
  49     freq=   841. Q=  0.035 lam=     0.5     freq=   803. Q=  0.093 lam=     3.4
  50     freq=   863. Q=  0.040 lam=     0.7     freq=   808. Q=  0.066 lam=     1.8
  51     freq=   867. Q=  0.006 lam=     0.0     freq=   853. Q=  0.000 lam=     0.0
  52     freq=   872. Q=  0.072 lam=     2.2     freq=   865. Q=  0.071 lam=     2.2
  53     freq=   877. Q=  0.006 lam=     0.0     freq=   870. Q=  0.002 lam=     0.0
  54     freq=   901. Q= -0.105 lam=     5.0     freq=   884. Q= -0.106 lam=     5.0
  55     freq=   952. Q=  0.001 lam=     0.0     freq=   934. Q=  0.050 lam=     1.2
  56     freq=   965. Q= -0.020 lam=     0.2     freq=   935. Q= -0.002 lam=     0.0
  57     freq=   970. Q=  0.218 lam=    23.0     freq=   942. Q=  0.222 lam=    23.3
  58     freq=   980. Q=  0.171 lam=    14.3     freq=   962. Q=  0.122 lam=     7.1
  59     freq=   991. Q=  0.000 lam=     0.0     freq=   973. Q=  0.039 lam=     0.8
  60     freq=   999. Q=  0.070 lam=     2.5     freq=   979. Q=  0.001 lam=     0.0
  61     freq=  1034. Q= -0.007 lam=     0.0     freq=   990. Q= -0.013 lam=     0.1
  62     freq=  1039. Q= -0.069 lam=     2.4     freq=  1030. Q= -0.066 lam=     2.3
  63     freq=  1082. Q=  0.194 lam=    20.5     freq=  1069. Q=  0.182 lam=    17.8
  64     freq=  1109. Q=  0.110 lam=     6.7     freq=  1097. Q=  0.137 lam=    10.3
  65     freq=  1143. Q= -0.087 lam=     4.3     freq=  1127. Q= -0.035 lam=     0.7
  66     freq=  1145. Q= -0.134 lam=    10.3     freq=  1143. Q= -0.127 lam=     9.2
  67     freq=  1181. Q= -0.119 lam=     8.4     freq=  1169. Q= -0.132 lam=    10.2
  68     freq=  1184. Q=  0.024 lam=     0.3     freq=  1180. Q=  0.018 lam=     0.2
  69     freq=  1209. Q=  0.401 lam=    97.3     freq=  1193. Q=  0.037 lam=     0.8
  70     freq=  1211. Q= -0.012 lam=     0.1     freq=  1208. Q= -0.389 lam=    91.5
  71     freq=  1246. Q=  0.085 lam=     4.5     freq=  1232. Q=  0.032 lam=     0.6
  72     freq=  1255. Q=  0.201 lam=    25.5     freq=  1245. Q=  0.149 lam=    13.9
  73     freq=  1275. Q=  0.011 lam=     0.1     freq=  1276. Q=  0.037 lam=     0.9
  74     freq=  1310. Q= -0.020 lam=     0.3     freq=  1313. Q= -0.034 lam=     0.8
  75     freq=  1321. Q=  0.145 lam=    13.9     freq=  1321. Q=  0.016 lam=     0.2
  76     freq=  1340. Q=  0.038 lam=     0.9     freq=  1342. Q=  0.039 lam=     1.0
  77     freq=  1346. Q= -0.111 lam=     8.3     freq=  1345. Q= -0.007 lam=     0.0
  78     freq=  1364. Q= -0.295 lam=    59.4     freq=  1361. Q= -0.392 lam=   104.7
  79     freq=  1380. Q= -0.051 lam=     1.8     freq=  1414. Q= -0.033 lam=     0.8
  80     freq=  1444. Q= -0.129 lam=    12.0     freq=  1424. Q= -0.115 lam=     9.4
  81     freq=  1457. Q=  0.463 lam=   156.4     freq=  1439. Q=  0.200 lam=    28.7
  82     freq=  1463. Q=  0.185 lam=    25.1     freq=  1445. Q=  0.088 lam=     5.6
  83     freq=  1489. Q= -0.149 lam=    16.4     freq=  1464. Q= -0.087 lam=     5.5
  84     freq=  1503. Q= -0.166 lam=    20.7     freq=  1470. Q= -0.177 lam=    23.0
  85     freq=  1525. Q=  0.081 lam=     5.1     freq=  1482. Q=  0.085 lam=     5.4
  86     freq=  1544. Q=  0.737 lam=   418.9     freq=  1489. Q=  0.301 lam=    67.5
  87     freq=  1558. Q= -0.134 lam=    13.9     freq=  1505. Q= -0.552 lam=   229.6
  88     freq=  1595. Q=  0.044 lam=     1.5     freq=  1526. Q=  0.629 lam=   302.1
  89     freq=  1597. Q= -0.040 lam=     1.3     freq=  1568. Q= -0.118 lam=    10.9
  90     freq=  1638. Q= -0.110 lam=     9.9     freq=  1612. Q= -0.076 lam=     4.6
  91     freq=  1646. Q=  0.453 lam=   168.6     freq=  1643. Q=  0.646 lam=   342.5
  92     freq=  3168. Q= -0.008 lam=     0.1     freq=  3165. Q= -0.010 lam=     0.2
  93     freq=  3169. Q=  0.003 lam=     0.0     freq=  3166. Q=  0.004 lam=     0.0
  94     freq=  3181. Q=  0.002 lam=     0.0     freq=  3177. Q=  0.001 lam=     0.0
  95     freq=  3181. Q= -0.002 lam=     0.0     freq=  3183. Q= -0.005 lam=     0.0
  96     freq=  3185. Q= -0.007 lam=     0.1     freq=  3184. Q= -0.004 lam=     0.0
  97     freq=  3191. Q= -0.001 lam=     0.0     freq=  3189. Q= -0.001 lam=     0.0
  98     freq=  3198. Q=  0.003 lam=     0.0     freq=  3197. Q=  0.002 lam=     0.0
  99     freq=  3207. Q= -0.006 lam=     0.1     freq=  3211. Q= -0.007 lam=     0.1
 100     freq=  3214. Q= -0.002 lam=     0.0     freq=  3213. Q= -0.001 lam=     0.0
 101     freq=  3215. Q=  0.016 lam=     0.4     freq=  3230. Q=  0.023 lam=     0.8
 102     freq=  3245. Q=  0.002 lam=     0.0     freq=  3243. Q=  0.002 lam=     0.0

 total reorg energy (cm**-1, kcal/mol)=     1741.     1836.      4.98      5.25
 Nber of molecules processed=           2
