 Enter ifcurve (0=recti, 1=orth curvi, 2=apprx curvi, -1 = skip
 And atom ordering flag, 0= never changes, 1= use the first order thenceforth,
  2= deduce it (does read on fail), 3= always read it
 Reading file: 
 ./Non-cov-phenyl-N_4_C0S0.log                                                  
                                          
  Entering Gaussian System, Link 0=g16                                          
  
 Gaussian format, type: g94, g98, g03= F F F
  #P Geom=AllCheck Guess=TCheck SCRF=Check GenChk RB3LYP/6-311G(d,p) Fre    
 energy type= B3LYP   
 Original G94 input coords:
  6  7.509288  0.000000  0.000000
  6  6.809850 -1.206604  0.000000
  6  5.419727 -1.209251  0.000000
  6  4.709536  0.000000  0.000000
  6  3.228565  0.000000  0.000000
  7  2.604518  1.191579  0.000000
  6  1.277144  1.183136  0.000000
  6  0.528509  0.000000  0.000000
  6 -0.944671  0.000000  0.000000
  7 -1.562840  1.192908  0.000000
  6 -2.891288  1.183842  0.000000
  6 -3.637798  0.000000  0.000000
  6 -5.114668  0.000000  0.000000
  7 -5.729531  1.192885  0.000000
  6 -7.061328  1.181152  0.000000
  6 -7.796308  0.000000  0.000000
  6 -7.061328 -1.181152  0.000000
  7 -5.729531 -1.192885  0.000000
  6 -2.891288 -1.183842  0.000000
  7 -1.562840 -1.192908  0.000000
  6  1.277144 -1.183136  0.000000
  7  2.604518 -1.191579  0.000000
  6  5.419727  1.209251  0.000000
  6  6.809850  1.206604  0.000000
  1  8.593312  0.000000  0.000000
  1  7.349563 -2.146519  0.000000
  1  4.864050 -2.137327  0.000000
  1  0.771269  2.142824  0.000000
  1 -3.397191  2.143157  0.000000
  1 -7.552272  2.150671  0.000000
  1 -8.879110  0.000000  0.000000
  1 -7.552272 -2.150671  0.000000
  1 -3.397191 -2.143157  0.000000
  1  0.771269 -2.142824  0.000000
  1  4.864050  2.137327  0.000000
  1  7.349563  2.146519  0.000000
 nber atoms=          36
 Original standard coords:
  6  0.000000  0.000000  7.683985
  6  0.000000  1.206604  6.984547
  6  0.000000  1.209251  5.594424
  6  0.000000  0.000000  4.884233
  6  0.000000  0.000000  3.403262
  7  0.000000 -1.191579  2.779215
  6  0.000000 -1.183136  1.451841
  6  0.000000  0.000000  0.703206
  6  0.000000  0.000000 -0.769974
  7  0.000000 -1.192908 -1.388143
  6  0.000000 -1.183842 -2.716591
  6  0.000000  0.000000 -3.463101
  6  0.000000  0.000000 -4.939971
  7  0.000000 -1.192885 -5.554834
  6  0.000000 -1.181152 -6.886631
  6  0.000000  0.000000 -7.621611
  6  0.000000  1.181152 -6.886631
  7  0.000000  1.192885 -5.554834
  6  0.000000  1.183842 -2.716591
  7  0.000000  1.192908 -1.388143
  6  0.000000  1.183136  1.451841
  7  0.000000  1.191579  2.779215
  6  0.000000 -1.209251  5.594424
  6  0.000000 -1.206604  6.984547
  1  0.000000  0.000000  8.768009
  1  0.000000  2.146519  7.524260
  1  0.000000  2.137327  5.038747
  1  0.000000 -2.142824  0.945966
  1  0.000000 -2.143157 -3.222494
  1  0.000000 -2.150671 -7.377575
  1  0.000000  0.000000 -8.704413
  1  0.000000  2.150671 -7.377575
  1  0.000000  2.143157 -3.222494
  1  0.000000  2.142824  0.945966
  1  0.000000 -2.137327  5.038747
  1  0.000000 -2.146519  7.524260
  SCF Done:  E(RB3LYP) =  -1021.90319853     A.U. after    1 cycles             
  
          23          40 "  -1021.90319853"
After scan for Atom:   Atom  AN      X      Y      Z        X      Y      Z        X      Y      Z   
After scan for Atom:   Atom  AN      X      Y      Z        X      Y      Z        X      Y      Z   
After scan for Atom:   Atom  AN      X      Y      Z        X      Y      Z        X      Y      Z   
After scan for Atom:   Atom  AN      X      Y      Z        X      Y      Z        X      Y      Z   
After scan for Atom:   Atom  AN      X      Y      Z        X      Y      Z        X      Y      Z   
After scan for Atom:   Atom  AN      X      Y      Z        X      Y      Z        X      Y      Z   
After scan for Atom:   Atom  AN      X      Y      Z        X      Y      Z        X      Y      Z   
After scan for Atom:   Atom  AN      X      Y      Z        X      Y      Z        X      Y      Z   
After scan for Atom:   Atom  AN      X      Y      Z        X      Y      Z        X      Y      Z   
After scan for Atom:   Atom  AN      X      Y      Z        X      Y      Z        X      Y      Z   
After scan for Atom:   Atom  AN      X      Y      Z        X      Y      Z        X      Y      Z   
After scan for Atom:   Atom  AN      X      Y      Z        X      Y      Z        X      Y      Z   
After scan for Atom:   Atom  AN      X      Y      Z        X      Y      Z        X      Y      Z   
After scan for Atom:   Atom  AN      X      Y      Z        X      Y      Z        X      Y      Z   
After scan for Atom:   Atom  AN      X      Y      Z        X      Y      Z        X      Y      Z   
After scan for Atom:   Atom  AN      X      Y      Z        X      Y      Z        X      Y      Z   
After scan for Atom:   Atom  AN      X      Y      Z        X      Y      Z        X      Y      Z   
After scan for Atom:   Atom  AN      X      Y      Z        X      Y      Z        X      Y      Z   
After scan for Atom:   Atom  AN      X      Y      Z        X      Y      Z        X      Y      Z   
After scan for Atom:   Atom  AN      X      Y      Z        X      Y      Z        X      Y      Z   
After scan for Atom:   Atom  AN      X      Y      Z        X      Y      Z        X      Y      Z   
After scan for Atom:   Atom  AN      X      Y      Z        X      Y      Z        X      Y      Z   
After scan for Atom:   Atom  AN      X      Y      Z        X      Y      Z        X      Y      Z   
After scan for Atom:   Atom  AN      X      Y      Z        X      Y      Z        X      Y      Z   
After scan for Atom:   Atom  AN      X      Y      Z        X      Y      Z        X      Y      Z   
After scan for Atom:   Atom  AN      X      Y      Z        X      Y      Z        X      Y      Z   
After scan for Atom:   Atom  AN      X      Y      Z        X      Y      Z        X      Y      Z   
After scan for Atom:   Atom  AN      X      Y      Z        X      Y      Z        X      Y      Z   
After scan for Atom:   Atom  AN      X      Y      Z        X      Y      Z        X      Y      Z   
After scan for Atom:   Atom  AN      X      Y      Z        X      Y      Z        X      Y      Z   
After scan for Atom:   Atom  AN      X      Y      Z        X      Y      Z        X      Y      Z   
After scan for Atom:   Atom  AN      X      Y      Z        X      Y      Z        X      Y      Z   
After scan for Atom:   Atom  AN      X      Y      Z        X      Y      Z        X      Y      Z   
After scan for Atom:   Atom  AN      X      Y      Z        X      Y      Z        X      Y      Z   
 g94    frequencies=
     0.0    0.0    0.0    0.0    0.0    0.0   20.2   28.6   50.2   54.3
    55.7   73.3  120.8  125.0  168.0  175.5  198.8  257.1  337.9  348.6
   387.4  405.3  409.5  414.3  417.3  433.4  458.1  476.5  514.8  517.4
   569.7  605.6  631.1  645.4  660.3  673.8  679.2  709.4  726.3  769.1
   797.1  822.2  827.3  838.2  844.5  857.8  867.1  961.4  995.3 1002.7
  1005.5 1006.6 1009.7 1014.4 1016.0 1017.2 1017.2 1020.1 1038.9 1044.9
  1047.8 1072.0 1082.7 1098.6 1109.6 1115.7 1134.9 1180.2 1194.9 1222.9
  1226.5 1243.6 1271.8 1285.0 1291.7 1336.4 1343.5 1346.3 1349.1 1353.1
  1398.6 1425.4 1429.4 1465.4 1468.5 1481.6 1497.9 1524.6 1555.2 1584.7
  1602.3 1605.9 1620.5 1623.9 1638.4 1647.7 3149.0 3151.4 3164.6 3176.1
  3178.1 3178.7 3182.4 3182.9 3188.0 3199.5 3210.4 3211.5
 g94    symmetries=
                                                B1     A2     B2     A2
      B1     A2     B1     B2     B1     A1     B2     B1     A1     B1
      B2     A2     A2     A2     A2     B1     B2     A1     B2     B1
      B1     B1     B2     B2     B2     B2     A1     B1     A1     B1
      A1     B1     B1     A1     B1     B1     A2     B1     B1     A2
      A2     B1     A1     B1     B1     A2     A1     A2     A1     A1
      A1     A1     A1     B2     A1     B2     A1     B2     A1     B2
      B2     B2     B2     B2     B2     B2     A1     A1     B2     A1
      B2     B2     A1     A1     B2     B2     A1     A1     B2     B2
      A1     B2     A1     B2     A1     A1     A1     B2     A1     B2
      B2     A1     B2     A1     A1     A1     B2     A1
 atomic masses:
 12.0000 12.0000 12.0000 12.0000 12.0000 14.0031 12.0000 12.0000 12.0000 14.0031
 12.0000 12.0000 12.0000 14.0031 12.0000 12.0000 12.0000 14.0031 12.0000 14.0031
 12.0000 14.0031 12.0000 12.0000  1.0078  1.0078  1.0078  1.0078  1.0078  1.0078
  1.0078  1.0078  1.0078  1.0078  1.0078  1.0078
 looking for force constants in 
 ./Non-cov-phenyl-N_4_C0S0.fchk                                                 
  
 Cartesian Force Constants                  R   N=        5886                  
  
 n3=         108        5886
 g94-fc frequencies=
    -2.3   -1.2   -0.7   -0.0    0.0    0.0   20.2   28.6   50.2   54.3
    55.7   73.3  120.8  125.0  168.0  175.5  198.8  257.1  337.9  348.6
   387.4  405.3  409.5  414.3  417.3  433.4  458.2  476.5  514.8  517.4
   569.7  605.7  631.1  645.4  660.3  673.9  679.2  709.4  726.3  769.2
   797.1  822.2  827.3  838.2  844.5  857.8  867.1  961.4  995.3 1002.7
  1005.6 1006.7 1009.7 1014.5 1016.0 1017.2 1017.2 1020.1 1039.0 1044.9
  1047.8 1072.1 1082.8 1098.6 1109.6 1115.8 1134.9 1180.2 1195.0 1222.9
  1226.5 1243.6 1271.8 1285.0 1291.8 1336.4 1343.5 1346.3 1349.1 1353.1
  1398.6 1425.4 1429.4 1465.4 1468.5 1481.7 1498.0 1524.6 1555.2 1584.8
  1602.3 1605.9 1620.6 1623.9 1638.4 1647.8 3149.1 3151.5 3164.6 3176.2
  3178.2 3178.8 3182.5 3183.0 3188.1 3199.6 3210.4 3211.5
 at 99999: n3=         108
 symm operator            1 :  T  nop=           1
 symm operator            2 :  F  nop=           1
 symm operator            3 :  F  nop=           1
 symm operator            4 :  F  nop=           1
 symm operator            5 :  F  nop=           1
 symm operator            6 :  T  nop=           2
 symm operator            7 :  T  nop=           3
 The point group of the molecule is C2V
 enforcing symm op           1  jsymt=          -1          -1           1
 enforcing symm op           6  jsymt=           1          -1           1
 enforcing symm op           7  jsymt=          -1           1           1
 cartesian coord symmetries:
 A1 :   36 A2 :   13 B1 :   23 B2 :   36
 Symmetry rotation matrix:
   1.00000   0.00000   0.00000
   0.00000   1.00000   0.00000
   0.00000   0.00000   1.00000

 Projecting out zero-frequency components
 generating redundant internal coords
         300        3600          36
 search for int coords
   1 str   2   1   1.395
   2 str   3   2   1.390
   3 str   4   3   1.402
   4 str   5   4   1.481
   5 str   6   5   1.345
   6 str   7   6   1.327
   7 str   8   7   1.400
   8 str   9   8   1.473
   9 str  10   9   1.344
  10 str  11  10   1.328
  11 str  12  11   1.400
  12 str  13  12   1.477
  13 str  14  13   1.342
  14 str  15  14   1.332
  15 str  16  15   1.391
  16 str  17  16   1.391
  17 str  18  13   1.342
  18 str  18  17   1.332
  19 str  19  12   1.400
  20 str  20   9   1.344
  21 str  20  19   1.328
  22 str  21   8   1.400
  23 str  22   5   1.345
  24 str  22  21   1.327
  25 str  23   4   1.402
  26 str  24   1   1.395
  27 str  24  23   1.390
  28 str  25   1   1.084
  29 str  26   2   1.084
  30 str  27   3   1.082
  31 str  28   7   1.085
  32 str  29  11   1.085
  33 str  30  15   1.087
  34 str  31  16   1.083
  35 str  32  17   1.087
  36 str  33  19   1.085
  37 str  34  21   1.085
  38 str  35  23   1.082
  39 str  36  24   1.084
 nber stretches=          39
  40 ben   1   2   3
  41 prop tor   1   2   3   4
  42 prop tor   1   2   3  27
  43 ben   1   2  26
  44 ben   1  24  23
  45 ben   1  24  36
  46 ben   2   1  24
  47 prop tor   2   1  24  23
  48 prop tor   2   1  24  36
  49 ben   2   1  25
  50 ben   2   3   4
  51 prop tor   2   3   4   5
  52 prop tor   2   3   4  23
  53 ben   2   3  27
  54 ben   3   2  26
  55 ben   3   4   5
  56 prop tor   3   4   5   6
  57 prop tor   3   4   5  22
  58 ben   3   4  23
  59 prop tor   3   4  23  24
  60 prop tor   3   4  23  35
  61 ben   4   3  27
  62 ben   4   5   6
  63 prop tor   4   5   6   7
  64 ben   4   5  22
  65 prop tor   4   5  22  21
  66 ben   4  23  24
  67 prop tor   4  23  24   1
  68 prop tor   4  23  24  36
  69 ben   4  23  35
  70 ben   5   4  23
  71 prop tor   5   4  23  24
  72 prop tor   5   4  23  35
  73 ben   5   6   7
  74 prop tor   5   6   7   8
  75 prop tor   5   6   7  28
  76 ben   5  22  21
  77 ben   6   5  22
  78 prop tor   6   5  22  21
  79 ben   6   7   8
  80 prop tor   6   7   8   9
  81 prop tor   6   7   8  21
  82 ben   6   7  28
  83 ben   7   8   9
  84 prop tor   7   8   9  10
  85 prop tor   7   8   9  20
  86 ben   7   8  21
  87 prop tor   7   8  21  22
  88 prop tor   7   8  21  34
  89 ben   8   7  28
  90 ben   8   9  10
  91 prop tor   8   9  10  11
  92 ben   8   9  20
  93 prop tor   8   9  20  19
  94 ben   8  21  22
  95 prop tor   8  21  22   5
  96 ben   8  21  34
  97 ben   9   8  21
  98 prop tor   9   8  21  22
  99 prop tor   9   8  21  34
 100 ben   9  10  11
 101 prop tor   9  10  11  12
 102 prop tor   9  10  11  29
 103 ben   9  20  19
 104 ben  10   9  20
 105 prop tor  10   9  20  19
 106 ben  10  11  12
 107 prop tor  10  11  12  13
 108 prop tor  10  11  12  19
 109 ben  10  11  29
 110 ben  11  12  13
 111 prop tor  11  12  13  14
 112 prop tor  11  12  13  18
 113 ben  11  12  19
 114 prop tor  11  12  19  20
 115 prop tor  11  12  19  33
 116 ben  12  11  29
 117 ben  12  13  14
 118 prop tor  12  13  14  15
 119 ben  12  13  18
 120 prop tor  12  13  18  17
 121 ben  12  19  20
 122 prop tor  12  19  20   9
 123 ben  12  19  33
 124 ben  13  12  19
 125 prop tor  13  12  19  20
 126 prop tor  13  12  19  33
 127 ben  13  14  15
 128 prop tor  13  14  15  16
 129 prop tor  13  14  15  30
 130 ben  13  18  17
 131 ben  14  13  18
 132 prop tor  14  13  18  17
 133 ben  14  15  16
 134 prop tor  14  15  16  17
 135 prop tor  14  15  16  31
 136 ben  14  15  30
 137 ben  15  16  17
 138 prop tor  15  16  17  18
 139 prop tor  15  16  17  32
 140 ben  15  16  31
 141 ben  16  15  30
 142 ben  16  17  18
 143 prop tor  16  17  18  13
 144 ben  16  17  32
 145 ben  17  16  31
 146 prop tor  18  13  14  15
 147 ben  18  17  32
 148 prop tor  19  12  13  14
 149 prop tor  19  12  13  18
 150 prop tor  20   9  10  11
 151 ben  20  19  33
 152 prop tor  21   8   9  10
 153 prop tor  21   8   9  20
 154 prop tor  22   5   6   7
 155 ben  22  21  34
 156 prop tor  23   4   5   6
 157 prop tor  23   4   5  22
 158 ben  23  24  36
 159 prop tor  24   1   2   3
 160 prop tor  24   1   2  26
 161 ben  24   1  25
 162 ben  24  23  35
 163 prop tor  25   1   2   3
 164 prop tor  25   1   2  26
 165 prop tor  25   1  24  23
 166 prop tor  25   1  24  36
 167 prop tor  26   2   3   4
 168 prop tor  26   2   3  27
 169 prop tor  27   3   4   5
 170 prop tor  27   3   4  23
 171 prop tor  28   7   8   9
 172 prop tor  28   7   8  21
 173 prop tor  29  11  12  13
 174 prop tor  29  11  12  19
 175 prop tor  30  15  16  17
 176 prop tor  30  15  16  31
 177 prop tor  31  16  17  18
 178 prop tor  31  16  17  32
 179 prop tor  32  17  18  13
 180 prop tor  33  19  20   9
 181 prop tor  34  21  22   5
 182 prop tor  35  23  24   1
 183 prop tor  35  23  24  36
 nber bend=              60
 nber lin bend=           0
 nber prop tor=          84
 nber impr tor=           0
 nber tot redund int=         183
 Eigenvalues of G in red int coords
    Gval -0.00000000 -0.00000000 -0.00000000 -0.00000000 -0.00000000 -0.00000000 -0.00000000 -0.00000000
    Gval -0.00000000 -0.00000000 -0.00000000 -0.00000000 -0.00000000 -0.00000000 -0.00000000 -0.00000000
    Gval -0.00000000 -0.00000000 -0.00000000 -0.00000000 -0.00000000 -0.00000000 -0.00000000 -0.00000000
    Gval -0.00000000 -0.00000000 -0.00000000 -0.00000000 -0.00000000 -0.00000000 -0.00000000 -0.00000000
    Gval -0.00000000 -0.00000000 -0.00000000 -0.00000000 -0.00000000 -0.00000000  0.00000000  0.00000000
    Gval  0.00000000  0.00000000  0.00000000  0.00000000  0.00000000  0.00000000  0.00000000  0.00000000
    Gval  0.00000000  0.00000000  0.00000000  0.00000000  0.00000000  0.00000000  0.00000000  0.00000000
    Gval  0.00000000  0.00000000  0.00000000  0.00000000  0.00000000  0.00000000  0.00000000  0.00000000
    Gval  0.00000000  0.00000000  0.00000000  0.00000000  0.00000000  0.00000000  0.00000000  0.00000000
    Gval  0.00000000  0.00000000  0.00000000  0.00000000  0.00000000  0.00000000  0.00000000  0.00000000
    Gval  0.00000000  0.00000050  0.00000161  0.00000204  0.00000297  0.00000772  0.00000874  0.00001194
    Gval  0.00001265  0.00001529  0.00001966  0.00002822  0.00002993  0.00004187  0.00004487  0.00004615
    Gval  0.00004645  0.00004720  0.00004811  0.00005505  0.00005513  0.00005862  0.00005891  0.00006574
    Gval  0.00006634  0.00007704  0.00008636  0.00008751  0.00010136  0.00010539  0.00010612  0.00011500
    Gval  0.00011671  0.00011744  0.00011896  0.00012172  0.00012665  0.00013105  0.00016982  0.00021132
    Gval  0.00021441  0.00024778  0.00026437  0.00026802  0.00028195  0.00029717  0.00031776  0.00034879
    Gval  0.00036086  0.00036451  0.00037903  0.00038912  0.00039455  0.00041230  0.00042897  0.00049812
    Gval  0.00051628  0.00055660  0.00058733  0.00059186  0.00059306  0.00059364  0.00059373  0.00060414
    Gval  0.00060460  0.00061858  0.00062135  0.00062466  0.00062630  0.00062705  0.00064167  0.00066062
    Gval  0.00071751  0.00088659  0.00104051  0.00104076  0.00106063  0.00110601  0.00110711  0.00111095
    Gval  0.00112965  0.00113028  0.00113107  0.00114107  0.00117294  0.00117412  0.00117414  0.00140169
    Gval  0.00143163  0.00144856  0.00151088  0.00159481  0.00185957  0.00225492  0.00225849  0.00226757
    Gval  0.00234112  0.00235011  0.00238834  0.00312539  0.00373097  0.00376974  0.00407740
  4.958028500365906E-007  4.958028500365906E-007
  1.605542461473829E-006  4.958028500365906E-007
  2.044880371360733E-006  4.958028500365906E-007
  2.970509106765269E-006  4.958028500365906E-007
  7.720070574616854E-006  4.958028500365906E-007
  8.738539320202835E-006  4.958028500365906E-007
  1.193878036842887E-005  4.958028500365906E-007
  1.265052877402458E-005  4.958028500365906E-007
  1.529155930552410E-005  4.958028500365906E-007
  1.966351263808605E-005  4.958028500365906E-007
  2.821826398834870E-005  4.958028500365906E-007
  2.992572909934434E-005  4.958028500365906E-007
  4.187167074041593E-005  4.958028500365906E-007
  4.487112019842927E-005  4.958028500365906E-007
  4.614875515375126E-005  4.958028500365906E-007
  4.645481875690772E-005  4.958028500365906E-007
  4.720165527026529E-005  4.958028500365906E-007
  4.811396234900833E-005  4.958028500365906E-007
  5.505407058418051E-005  4.958028500365906E-007
  5.513157845305219E-005  4.958028500365906E-007
  5.861875312749280E-005  4.958028500365906E-007
  5.891103585373939E-005  4.958028500365906E-007
  6.574403165949257E-005  4.958028500365906E-007
  6.633856638296185E-005  4.958028500365906E-007
  7.704329861231241E-005  4.958028500365906E-007
  8.635618693408296E-005  4.958028500365906E-007
  8.750573412796370E-005  4.958028500365906E-007
  1.013560356165634E-004  4.958028500365906E-007
  1.053903752950280E-004  4.958028500365906E-007
  1.061181501561979E-004  4.958028500365906E-007
  1.150028926117386E-004  4.958028500365906E-007
  1.167116770656372E-004  4.958028500365906E-007
  1.174430257244888E-004  4.958028500365906E-007
  1.189641530552674E-004  4.958028500365906E-007
  1.217189821643608E-004  4.958028500365906E-007
  1.266452298098586E-004  4.958028500365906E-007
  1.310548925724946E-004  4.958028500365906E-007
  1.698224113266861E-004  4.958028500365906E-007
  2.113199144773580E-004  4.958028500365906E-007
  2.144088322290642E-004  4.958028500365906E-007
  2.477843196340946E-004  4.958028500365906E-007
  2.643652452316550E-004  4.958028500365906E-007
  2.680161683609850E-004  4.958028500365906E-007
  2.819482238494672E-004  4.958028500365906E-007
  2.971709469374816E-004  4.958028500365906E-007
  3.177613924611427E-004  4.958028500365906E-007
  3.487939032815417E-004  4.958028500365906E-007
  3.608556681583943E-004  4.958028500365906E-007
  3.645097272194701E-004  4.958028500365906E-007
  3.790324737906919E-004  4.958028500365906E-007
  3.891227459339248E-004  4.958028500365906E-007
  3.945504338926054E-004  4.958028500365906E-007
  4.123031477426541E-004  4.958028500365906E-007
  4.289722700257062E-004  4.958028500365906E-007
  4.981196072744146E-004  4.958028500365906E-007
  5.162810355766216E-004  4.958028500365906E-007
  5.566029165343198E-004  4.958028500365906E-007
  5.873277918241310E-004  4.958028500365906E-007
  5.918555366731465E-004  4.958028500365906E-007
  5.930609382825542E-004  4.958028500365906E-007
  5.936438115638353E-004  4.958028500365906E-007
  5.937315648729931E-004  4.958028500365906E-007
  6.041354999714911E-004  4.958028500365906E-007
  6.045972098337659E-004  4.958028500365906E-007
  6.185815979742555E-004  4.958028500365906E-007
  6.213480897443076E-004  4.958028500365906E-007
  6.246630925437945E-004  4.958028500365906E-007
  6.263027115833577E-004  4.958028500365906E-007
  6.270490596669650E-004  4.958028500365906E-007
  6.416684100033263E-004  4.958028500365906E-007
  6.606175866865225E-004  4.958028500365906E-007
  7.175098138256119E-004  4.958028500365906E-007
  8.865869032063398E-004  4.958028500365906E-007
  1.040513368381417E-003  4.958028500365906E-007
  1.040764901227628E-003  4.958028500365906E-007
  1.060626911030209E-003  4.958028500365906E-007
  1.106011453019249E-003  4.958028500365906E-007
  1.107107094819719E-003  4.958028500365906E-007
  1.110950341621906E-003  4.958028500365906E-007
  1.129651947590059E-003  4.958028500365906E-007
  1.130284316592388E-003  4.958028500365906E-007
  1.131072963419557E-003  4.958028500365906E-007
  1.141073185355478E-003  4.958028500365906E-007
  1.172937710157148E-003  4.958028500365906E-007
  1.174121749437469E-003  4.958028500365906E-007
  1.174142630426641E-003  4.958028500365906E-007
  1.401685445794460E-003  4.958028500365906E-007
  1.431628779164963E-003  4.958028500365906E-007
  1.448556905969155E-003  4.958028500365906E-007
  1.510883764170646E-003  4.958028500365906E-007
  1.594814788834960E-003  4.958028500365906E-007
  1.859569281249397E-003  4.958028500365906E-007
  2.254922932062801E-003  4.958028500365906E-007
  2.258493218555370E-003  4.958028500365906E-007
  2.267567378991672E-003  4.958028500365906E-007
  2.341116492864658E-003  4.958028500365906E-007
  2.350109342538550E-003  4.958028500365906E-007
  2.388344904302200E-003  4.958028500365906E-007
  3.125391462170332E-003  4.958028500365906E-007
  3.730966367472582E-003  4.958028500365906E-007
  3.769737400485227E-003  4.958028500365906E-007
  4.077395287938632E-003  4.958028500365906E-007
 cut=1d-8, nber non-redundant internal coords=         102
 Check on Eigenvals of non-red overlap matrix:
  0.00000050  0.00000161  0.00000204  0.00000297  0.00000772  0.00000874  0.00001194  0.00001265
  0.00001529  0.00001966  0.00002822  0.00002993  0.00004187  0.00004487  0.00004615  0.00004645
  0.00004720  0.00004811  0.00005505  0.00005513  0.00005862  0.00005891  0.00006574  0.00006634
  0.00007704  0.00008636  0.00008751  0.00010136  0.00010539  0.00010612  0.00011500  0.00011671
  0.00011744  0.00011896  0.00012172  0.00012665  0.00013105  0.00016982  0.00021132  0.00021441
  0.00024778  0.00026437  0.00026802  0.00028195  0.00029717  0.00031776  0.00034879  0.00036086
  0.00036451  0.00037903  0.00038912  0.00039455  0.00041230  0.00042897  0.00049812  0.00051628
  0.00055660  0.00058733  0.00059186  0.00059306  0.00059364  0.00059373  0.00060414  0.00060460
  0.00061858  0.00062135  0.00062466  0.00062630  0.00062705  0.00064167  0.00066062  0.00071751
  0.00088659  0.00104051  0.00104076  0.00106063  0.00110601  0.00110711  0.00111095  0.00112965
  0.00113028  0.00113107  0.00114107  0.00117294  0.00117412  0.00117414  0.00140169  0.00143163
  0.00144856  0.00151088  0.00159481  0.00185957  0.00225492  0.00225849  0.00226757  0.00234112
  0.00235011  0.00238834  0.00312539  0.00373097  0.00376974  0.00407740
 Checking for correct frequencies
 recalc frequencies=
    -0.0   -0.0    0.0    0.0    0.0    0.0   20.2   28.6   50.2   54.3
    55.7   73.3  120.8  125.0  168.0  175.5  198.8  257.1  337.9  348.6
   387.4  405.3  409.5  414.3  417.3  433.4  458.2  476.5  514.8  517.4
   569.7  605.7  631.1  645.4  660.3  673.9  679.2  709.4  726.3  769.2
   797.1  822.2  827.3  838.2  844.5  857.8  867.1  961.4  995.3 1002.7
  1005.6 1006.7 1009.7 1014.5 1016.0 1017.2 1017.2 1020.1 1039.0 1044.9
  1047.8 1072.1 1082.8 1098.6 1109.6 1115.8 1134.9 1180.2 1195.0 1222.9
  1226.5 1243.6 1271.8 1285.0 1291.8 1336.4 1343.5 1346.3 1349.1 1353.1
  1398.6 1425.4 1429.4 1465.4 1468.5 1481.7 1498.0 1524.6 1555.2 1584.8
  1602.3 1605.9 1620.6 1623.9 1638.4 1647.8 3149.1 3151.5 3164.6 3176.2
  3178.2 3178.8 3182.5 3183.0 3188.1 3199.6 3210.4 3211.5
 recalc symmetries=
     A1     A2     B1     B1     B2     B2     B1     A2     B2     A2 
     B1     A2     B1     B2     B1     A1     B2     B1     A1     B1 
     B2     A2     A2     A2     A2     B1     B2     A1     B2     B1 
     B1     B1     B2     B2     B2     B2     A1     B1     A1     B1 
     A1     B1     B1     A1     B1     B1     A2     B1     B1     A2 
     A2     B1     A1     B1     B1     A2     A1     A2     A1     A1 
     A1     A1     A1     B2     A1     B2     A1     B2     A1     B2 
     B2     B2     B2     B2     B2     B2     A1     A1     B2     A1 
     B2     B2     A1     A1     B2     B2     A1     A1     B2     B2 
     A1     B2     A1     B2     A1     A1     A1     B2     A1     B2 
     B2     A1     B2     A1     A1     A1     B2     A1 
 recalc freqs check OK
 Zero-point lengths:
 10.0000 10.0000 10.0000 10.0000 10.0000 10.0000 55.2064 46.3667 34.9925 33.6282
 33.2101 28.9502 22.5522 22.1717 19.1285 18.7149 17.5822 15.4598 13.4874 13.2782
 12.5950 12.3142 12.2510 12.1794 12.1362 11.9080 11.5821 11.3572 10.9265 10.8984
 10.3869 10.0735  9.8683  9.7581  9.6477  9.5502  9.5126  9.3079  9.1987  8.9389
  8.7809  8.6456  8.6190  8.5629  8.5310  8.4646  8.4191  7.9953  7.8582  7.8292
  7.8179  7.8136  7.8019  7.7836  7.7775  7.7730  7.7730  7.7620  7.6912  7.6694
  7.6587  7.5716  7.5340  7.4796  7.4423  7.4218  7.3588  7.2163  7.1717  7.0892
  7.0789  7.0300  6.9516  6.9158  6.8977  6.7816  6.7635  6.7564  6.7495  6.7395
  6.6289  6.5664  6.5571  6.4761  6.4692  6.4405  6.4054  6.3491  6.2863  6.2275
  6.1933  6.1863  6.1583  6.1519  6.1247  6.1072  4.4178  4.4161  4.4069  4.3989
  4.3975  4.3971  4.3945  4.3942  4.3907  4.3828  4.3754  4.3746
 highest evec of mol 1
  0.0000  0.0000  0.0278
  0.0000  0.0465  0.0337
  0.0000  0.1701 -0.1004
  0.0000  0.0000 -0.0079
  0.0000  0.0000 -0.0020
  0.0000  0.0011 -0.0004
  0.0000  0.0017  0.0006
  0.0000  0.0000  0.0002
  0.0000  0.0000 -0.0002
  0.0000  0.0001  0.0001
  0.0000 -0.0002 -0.0002
  0.0000  0.0000  0.0001
  0.0000  0.0000 -0.0001
  0.0000  0.0000  0.0000
  0.0000 -0.0001 -0.0001
  0.0000  0.0000 -0.0002
  0.0000  0.0001 -0.0001
  0.0000 -0.0000  0.0000
  0.0000  0.0002 -0.0002
  0.0000 -0.0001  0.0001
  0.0000 -0.0017  0.0006
  0.0000 -0.0011 -0.0004
  0.0000 -0.1701 -0.1004
  0.0000 -0.0465  0.0337
  0.0000  0.0000 -0.0802
  0.0000 -0.1508 -0.0887
  0.0000 -0.5610  0.3296
  0.0000 -0.0046 -0.0023
  0.0000  0.0008  0.0004
  0.0000  0.0004  0.0002
  0.0000  0.0000  0.0007
  0.0000 -0.0004  0.0002
  0.0000 -0.0008  0.0004
  0.0000  0.0046 -0.0023
  0.0000  0.5610  0.3296
  0.0000  0.1508 -0.0887
 generating redundant internal coords
         300        3600          36
 Adding extra bonds for z output only
           6           6           6           6           6           7
           6           6           6           7           6           6
           6           7           6           6           6           7
           6           7           6           7           6           6
           1           1           1           1           1           1
           1           1           1           1           1           1
 search for int coords
   1 str   2   1   1.395
   2 str   3   2   1.390
   3 str   4   3   1.402
   4 str   5   4   1.481
   5 str   6   5   1.345
   6 str   7   6   1.327
   7 str   8   7   1.400
   8 str   9   8   1.473
   9 str  10   9   1.344
  10 str  11  10   1.328
  11 str  12  11   1.400
  12 str  13  12   1.477
  13 str  14  13   1.342
  14 str  15  14   1.332
  15 str  16  15   1.391
  16 str  17  16   1.391
  17 str  18  13   1.342
  18 str  18  17   1.332
  19 str  19  12   1.400
  20 str  20   9   1.344
  21 str  20  19   1.328
  22 str  21   8   1.400
  23 str  22   5   1.345
  24 str  22  21   1.327
  25 str  23   4   1.402
  26 str  24   1   1.395
  27 str  24  23   1.390
  28 str  25   1   1.084
  29 str  26   2   1.084
  30 str  27   3   1.082
  31 str  28   7   1.085
  32 str  29  11   1.085
  33 str  30  15   1.087
  34 str  31  16   1.083
  35 str  32  17   1.087
  36 str  33  19   1.085
  37 str  34  21   1.085
  38 str  35  23   1.082
  39 str  36  24   1.084
 nber stretches=          39
  40 ben   1   2   3
  41 prop tor   1   2   3   4
  42 prop tor   1   2   3  27
  43 ben   1   2  26
  44 ben   1  24  23
  45 ben   1  24  36
  46 ben   2   1  24
  47 prop tor   2   1  24  23
  48 prop tor   2   1  24  36
  49 ben   2   1  25
  50 ben   2   3   4
  51 prop tor   2   3   4   5
  52 prop tor   2   3   4  23
  53 ben   2   3  27
  54 ben   3   2  26
  55 ben   3   4   5
  56 prop tor   3   4   5   6
  57 prop tor   3   4   5  22
  58 ben   3   4  23
  59 prop tor   3   4  23  24
  60 prop tor   3   4  23  35
  61 ben   4   3  27
  62 ben   4   5   6
  63 prop tor   4   5   6   7
  64 ben   4   5  22
  65 prop tor   4   5  22  21
  66 ben   4  23  24
  67 prop tor   4  23  24   1
  68 prop tor   4  23  24  36
  69 ben   4  23  35
  70 ben   5   4  23
  71 prop tor   5   4  23  24
  72 prop tor   5   4  23  35
  73 ben   5   6   7
  74 prop tor   5   6   7   8
  75 prop tor   5   6   7  28
  76 ben   5  22  21
  77 ben   6   5  22
  78 prop tor   6   5  22  21
  79 ben   6   7   8
  80 prop tor   6   7   8   9
  81 prop tor   6   7   8  21
  82 ben   6   7  28
  83 ben   7   8   9
  84 prop tor   7   8   9  10
  85 prop tor   7   8   9  20
  86 ben   7   8  21
  87 prop tor   7   8  21  22
  88 prop tor   7   8  21  34
  89 ben   8   7  28
  90 ben   8   9  10
  91 prop tor   8   9  10  11
  92 ben   8   9  20
  93 prop tor   8   9  20  19
  94 ben   8  21  22
  95 prop tor   8  21  22   5
  96 ben   8  21  34
  97 ben   9   8  21
  98 prop tor   9   8  21  22
  99 prop tor   9   8  21  34
 100 ben   9  10  11
 101 prop tor   9  10  11  12
 102 prop tor   9  10  11  29
 103 ben   9  20  19
 104 ben  10   9  20
 105 prop tor  10   9  20  19
 106 ben  10  11  12
 107 prop tor  10  11  12  13
 108 prop tor  10  11  12  19
 109 ben  10  11  29
 110 ben  11  12  13
 111 prop tor  11  12  13  14
 112 prop tor  11  12  13  18
 113 ben  11  12  19
 114 prop tor  11  12  19  20
 115 prop tor  11  12  19  33
 116 ben  12  11  29
 117 ben  12  13  14
 118 prop tor  12  13  14  15
 119 ben  12  13  18
 120 prop tor  12  13  18  17
 121 ben  12  19  20
 122 prop tor  12  19  20   9
 123 ben  12  19  33
 124 ben  13  12  19
 125 prop tor  13  12  19  20
 126 prop tor  13  12  19  33
 127 ben  13  14  15
 128 prop tor  13  14  15  16
 129 prop tor  13  14  15  30
 130 ben  13  18  17
 131 ben  14  13  18
 132 prop tor  14  13  18  17
 133 ben  14  15  16
 134 prop tor  14  15  16  17
 135 prop tor  14  15  16  31
 136 ben  14  15  30
 137 ben  15  16  17
 138 prop tor  15  16  17  18
 139 prop tor  15  16  17  32
 140 ben  15  16  31
 141 ben  16  15  30
 142 ben  16  17  18
 143 prop tor  16  17  18  13
 144 ben  16  17  32
 145 ben  17  16  31
 146 prop tor  18  13  14  15
 147 ben  18  17  32
 148 prop tor  19  12  13  14
 149 prop tor  19  12  13  18
 150 prop tor  20   9  10  11
 151 ben  20  19  33
 152 prop tor  21   8   9  10
 153 prop tor  21   8   9  20
 154 prop tor  22   5   6   7
 155 ben  22  21  34
 156 prop tor  23   4   5   6
 157 prop tor  23   4   5  22
 158 ben  23  24  36
 159 prop tor  24   1   2   3
 160 prop tor  24   1   2  26
 161 ben  24   1  25
 162 ben  24  23  35
 163 prop tor  25   1   2   3
 164 prop tor  25   1   2  26
 165 prop tor  25   1  24  23
 166 prop tor  25   1  24  36
 167 prop tor  26   2   3   4
 168 prop tor  26   2   3  27
 169 prop tor  27   3   4   5
 170 prop tor  27   3   4  23
 171 prop tor  28   7   8   9
 172 prop tor  28   7   8  21
 173 prop tor  29  11  12  13
 174 prop tor  29  11  12  19
 175 prop tor  30  15  16  17
 176 prop tor  30  15  16  31
 177 prop tor  31  16  17  18
 178 prop tor  31  16  17  32
 179 prop tor  32  17  18  13
 180 prop tor  33  19  20   9
 181 prop tor  34  21  22   5
 182 prop tor  35  23  24   1
 183 prop tor  35  23  24  36
 nber bend=              60
 nber lin bend=           0
 nber prop tor=          84
 nber impr tor=           0
 nber tot redund int=         183
 Reading file: 
 ./Non-cov-phenyl-N_4_C0S1.log                                                  
                                          
  Entering Gaussian System, Link 0=g16                                          
  
 Gaussian format, type: g94, g98, g03= F F F
  #P Geom=AllCheck Guess=TCheck SCRF=Check GenChk RB3LYP TD(FC,Read)/6-3    
 energy type= TD      
 Original G94 input coords:
  6  7.566654  0.000000  0.000000
  6  6.863441 -1.206530  0.000000
  6  5.476711 -1.213372  0.000000
  6  4.759756  0.000000  0.000000
  6  3.321365  0.000000  0.000000
  7  2.555940  1.118430  0.000000
  6  1.261453  1.174775  0.000000
  6  0.455719  0.000000  0.000000
  6 -0.974839  0.000000  0.000000
  7 -1.601234  1.207795  0.000000
  6 -2.920823  1.191289  0.000000
  6 -3.677539  0.000000  0.000000
  6 -5.135493  0.000000  0.000000
  7 -5.761429  1.197610  0.000000
  6 -7.089557  1.180885  0.000000
  6 -7.829012  0.000000  0.000000
  6 -7.089557 -1.180885  0.000000
  7 -5.761429 -1.197610  0.000000
  6 -2.920823 -1.191289  0.000000
  7 -1.601234 -1.207795  0.000000
  6  1.261453 -1.174775  0.000000
  7  2.555940 -1.118430  0.000000
  6  5.476711  1.213372  0.000000
  6  6.863441  1.206530  0.000000
  1  8.650261  0.000000  0.000000
  1  7.402250 -2.147318  0.000000
  1  4.934737 -2.151377  0.000000
  1  0.781367  2.150170  0.000000
  1 -3.432992  2.147649  0.000000
  1 -7.582853  2.150100  0.000000
  1 -8.910899  0.000000  0.000000
  1 -7.582853 -2.150100  0.000000
  1 -3.432992 -2.147649  0.000000
  1  0.781367 -2.150170  0.000000
  1  4.934737  2.151377  0.000000
  1  7.402250  2.147318  0.000000
 nber atoms=          36
 Original standard coords:
  6  0.000000  0.000000  7.747736
  6  0.000000  1.206530  7.044524
  6  0.000000  1.213372  5.657794
  6  0.000000  0.000000  4.940839
  6  0.000000  0.000000  3.502448
  7  0.000000 -1.118430  2.737023
  6  0.000000 -1.174775  1.442536
  6  0.000000  0.000000  0.636802
  6  0.000000  0.000000 -0.793757
  7  0.000000 -1.207795 -1.420152
  6  0.000000 -1.191289 -2.739740
  6  0.000000  0.000000 -3.496456
  6  0.000000  0.000000 -4.954411
  7  0.000000 -1.197610 -5.580346
  6  0.000000 -1.180885 -6.908474
  6  0.000000  0.000000 -7.647930
  6  0.000000  1.180885 -6.908474
  7  0.000000  1.197610 -5.580346
  6  0.000000  1.191289 -2.739740
  7  0.000000  1.207795 -1.420152
  6  0.000000  1.174775  1.442536
  7  0.000000  1.118430  2.737023
  6  0.000000 -1.213372  5.657794
  6  0.000000 -1.206530  7.044524
  1  0.000000  0.000000  8.831343
  1  0.000000  2.147318  7.583332
  1  0.000000  2.151377  5.115820
  1  0.000000 -2.150170  0.962450
  1  0.000000 -2.147649 -3.251910
  1  0.000000 -2.150100 -7.401771
  1  0.000000  0.000000 -8.729816
  1  0.000000  2.150100 -7.401771
  1  0.000000  2.147649 -3.251910
  1  0.000000  2.150170  0.962450
  1  0.000000 -2.151377  5.115820
  1  0.000000 -2.147318  7.583332
  Total Energy, E(TD-HF/TD-DFT) =  -1021.80033632                               
  
          32          49 "  -1021.80033632"
After scan for Atom:   Atom  AN      X      Y      Z        X      Y      Z        X      Y      Z   
After scan for Atom:   Atom  AN      X      Y      Z        X      Y      Z        X      Y      Z   
After scan for Atom:   Atom  AN      X      Y      Z        X      Y      Z        X      Y      Z   
After scan for Atom:   Atom  AN      X      Y      Z        X      Y      Z        X      Y      Z   
After scan for Atom:   Atom  AN      X      Y      Z        X      Y      Z        X      Y      Z   
After scan for Atom:   Atom  AN      X      Y      Z        X      Y      Z        X      Y      Z   
After scan for Atom:   Atom  AN      X      Y      Z        X      Y      Z        X      Y      Z   
After scan for Atom:   Atom  AN      X      Y      Z        X      Y      Z        X      Y      Z   
After scan for Atom:   Atom  AN      X      Y      Z        X      Y      Z        X      Y      Z   
After scan for Atom:   Atom  AN      X      Y      Z        X      Y      Z        X      Y      Z   
After scan for Atom:   Atom  AN      X      Y      Z        X      Y      Z        X      Y      Z   
After scan for Atom:   Atom  AN      X      Y      Z        X      Y      Z        X      Y      Z   
After scan for Atom:   Atom  AN      X      Y      Z        X      Y      Z        X      Y      Z   
After scan for Atom:   Atom  AN      X      Y      Z        X      Y      Z        X      Y      Z   
After scan for Atom:   Atom  AN      X      Y      Z        X      Y      Z        X      Y      Z   
After scan for Atom:   Atom  AN      X      Y      Z        X      Y      Z        X      Y      Z   
After scan for Atom:   Atom  AN      X      Y      Z        X      Y      Z        X      Y      Z   
After scan for Atom:   Atom  AN      X      Y      Z        X      Y      Z        X      Y      Z   
After scan for Atom:   Atom  AN      X      Y      Z        X      Y      Z        X      Y      Z   
After scan for Atom:   Atom  AN      X      Y      Z        X      Y      Z        X      Y      Z   
After scan for Atom:   Atom  AN      X      Y      Z        X      Y      Z        X      Y      Z   
After scan for Atom:   Atom  AN      X      Y      Z        X      Y      Z        X      Y      Z   
After scan for Atom:   Atom  AN      X      Y      Z        X      Y      Z        X      Y      Z   
After scan for Atom:   Atom  AN      X      Y      Z        X      Y      Z        X      Y      Z   
After scan for Atom:   Atom  AN      X      Y      Z        X      Y      Z        X      Y      Z   
After scan for Atom:   Atom  AN      X      Y      Z        X      Y      Z        X      Y      Z   
After scan for Atom:   Atom  AN      X      Y      Z        X      Y      Z        X      Y      Z   
After scan for Atom:   Atom  AN      X      Y      Z        X      Y      Z        X      Y      Z   
After scan for Atom:   Atom  AN      X      Y      Z        X      Y      Z        X      Y      Z   
After scan for Atom:   Atom  AN      X      Y      Z        X      Y      Z        X      Y      Z   
After scan for Atom:   Atom  AN      X      Y      Z        X      Y      Z        X      Y      Z   
After scan for Atom:   Atom  AN      X      Y      Z        X      Y      Z        X      Y      Z   
After scan for Atom:   Atom  AN      X      Y      Z        X      Y      Z        X      Y      Z   
After scan for Atom:   Atom  AN      X      Y      Z        X      Y      Z        X      Y      Z   
 g94    frequencies=
     0.0    0.0    0.0    0.0    0.0    0.0   20.4   42.2   44.0   58.1
    69.3  112.9  117.1  119.2  163.0  172.6  181.4  256.1  321.3  332.5
   378.6  409.8  412.8  414.3  438.3  445.7  476.0  495.0  507.7  532.8
   553.1  580.4  598.8  632.0  640.5  644.6  646.0  667.5  698.6  717.2
   759.7  771.3  791.5  804.3  804.4  830.7  843.9  915.4  916.3  956.6
   970.6  981.5  985.5  994.3  998.0  999.7  999.8 1006.0 1010.7 1030.9
  1037.8 1051.9 1056.5 1076.7 1087.5 1107.3 1116.7 1120.5 1181.9 1195.2
  1207.3 1240.5 1244.1 1265.9 1304.8 1308.0 1327.8 1335.2 1347.7 1357.0
  1392.1 1422.4 1424.6 1446.2 1464.3 1471.7 1489.4 1493.6 1507.5 1520.1
  1574.0 1574.6 1603.8 1617.7 1631.2 1638.6 3136.6 3138.1 3150.8 3152.1
  3165.2 3172.5 3174.8 3175.9 3183.9 3190.4 3195.1 3204.2
 g94    symmetries=
                                                B1     A2     B2     B1
      A2     B2     B1     A2     B1     A1     B2     B1     B1     A1
      B2     B1     A2     A2     A2     B2     A1     B1     B2     B1
      A2     B1     B2     B2     B1     A1     B2     B2     B1     A1
      A1     B1     B1     ?A     ?A     B1     A2     B1     B1     A1
      A2     A2     B1     A1     B1     B1     A2     A1     A2     A1
      A1     A1     B2     A1     A1     B2     A1     B2     B2     A1
      B2     B2     B2     B2     A1     B2     B2     B2     A1     B2
      A1     B2     A1     A1     B2     B2     A1     B2     B2     A1
      A1     B2     B2     A1     A1     A1     A1     B2     A1     B2
      A1     B2     B2     A1     A1     B2     A1     A1
 atomic masses:
 12.0000 12.0000 12.0000 12.0000 12.0000 14.0031 12.0000 12.0000 12.0000 14.0031
 12.0000 12.0000 12.0000 14.0031 12.0000 12.0000 12.0000 14.0031 12.0000 14.0031
 12.0000 14.0031 12.0000 12.0000  1.0078  1.0078  1.0078  1.0078  1.0078  1.0078
  1.0078  1.0078  1.0078  1.0078  1.0078  1.0078
 looking for force constants in 
 ./Non-cov-phenyl-N_4_C0S1.fchk                                                 
  
 Cartesian Force Constants                  R   N=        5886                  
  
 n3=         108        5886
 g94-fc frequencies=
    -2.5   -0.7   -0.0   -0.0   -0.0    0.4   20.4   42.3   44.0   58.1
    69.3  112.9  117.1  119.2  163.0  172.7  181.4  256.1  321.3  332.5
   378.6  409.8  412.8  414.3  438.3  445.7  476.0  495.0  507.7  532.8
   553.1  580.4  598.9  632.0  640.5  644.6  646.0  667.5  698.6  717.2
   759.7  771.3  791.5  804.3  804.4  830.8  843.9  915.4  916.4  956.6
   970.6  981.5  985.5  994.3  998.0  999.7  999.8 1006.0 1010.7 1030.9
  1037.8 1051.9 1056.6 1076.7 1087.6 1107.3 1116.7 1120.5 1181.9 1195.2
  1207.3 1240.5 1244.2 1265.9 1304.8 1308.1 1327.8 1335.2 1347.7 1357.1
  1392.1 1422.4 1424.6 1446.2 1464.4 1471.7 1489.4 1493.6 1507.5 1520.2
  1574.0 1574.7 1603.9 1617.8 1631.3 1638.6 3136.6 3138.2 3150.9 3152.2
  3165.3 3172.6 3174.9 3176.0 3183.9 3190.5 3195.2 3204.3
 at 99999: n3=         108
 symm operator            1 :  T  nop=           1
 symm operator            2 :  F  nop=           1
 symm operator            3 :  F  nop=           1
 symm operator            4 :  F  nop=           1
 symm operator            5 :  F  nop=           1
 symm operator            6 :  T  nop=           2
 symm operator            7 :  T  nop=           3
 The point group of the molecule is C2V
 enforcing symm op           1  jsymt=          -1          -1           1
 enforcing symm op           6  jsymt=           1          -1           1
 enforcing symm op           7  jsymt=          -1           1           1
 cartesian coord symmetries:
 A1 :   36 A2 :   13 B1 :   23 B2 :   36
 Symmetry rotation matrix:
   1.00000   0.00000   0.00000
   0.00000   1.00000   0.00000
   0.00000   0.00000   1.00000

 Projecting out zero-frequency components
 generating redundant internal coords
         300        3600          36
 search for int coords
   1 str   2   1   1.397
   2 str   3   2   1.387
   3 str   4   3   1.409
   4 str   5   4   1.438
   5 str   6   5   1.355
   6 str   7   6   1.296
   7 str   8   7   1.425
   8 str   9   8   1.431
   9 str  10   9   1.361
  10 str  11  10   1.320
  11 str  12  11   1.411
  12 str  13  12   1.458
  13 str  14  13   1.351
  14 str  15  14   1.328
  15 str  16  15   1.393
  16 str  17  16   1.393
  17 str  18  13   1.351
  18 str  18  17   1.328
  19 str  19  12   1.411
  20 str  20   9   1.361
  21 str  20  19   1.320
  22 str  21   8   1.425
  23 str  22   5   1.355
  24 str  22  21   1.296
  25 str  23   4   1.409
  26 str  24   1   1.397
  27 str  24  23   1.387
  28 str  25   1   1.084
  29 str  26   2   1.084
  30 str  27   3   1.083
  31 str  28   7   1.087
  32 str  29  11   1.085
  33 str  30  15   1.088
  34 str  31  16   1.082
  35 str  32  17   1.088
  36 str  33  19   1.085
  37 str  34  21   1.087
  38 str  35  23   1.083
  39 str  36  24   1.084
 nber stretches=          39
  40 ben   1   2   3
  41 prop tor   1   2   3   4
  42 prop tor   1   2   3  27
  43 ben   1   2  26
  44 ben   1  24  23
  45 ben   1  24  36
  46 ben   2   1  24
  47 prop tor   2   1  24  23
  48 prop tor   2   1  24  36
  49 ben   2   1  25
  50 ben   2   3   4
  51 prop tor   2   3   4   5
  52 prop tor   2   3   4  23
  53 ben   2   3  27
  54 ben   3   2  26
  55 ben   3   4   5
  56 prop tor   3   4   5   6
  57 prop tor   3   4   5  22
  58 ben   3   4  23
  59 prop tor   3   4  23  24
  60 prop tor   3   4  23  35
  61 ben   4   3  27
  62 ben   4   5   6
  63 prop tor   4   5   6   7
  64 ben   4   5  22
  65 prop tor   4   5  22  21
  66 ben   4  23  24
  67 prop tor   4  23  24   1
  68 prop tor   4  23  24  36
  69 ben   4  23  35
  70 ben   5   4  23
  71 prop tor   5   4  23  24
  72 prop tor   5   4  23  35
  73 ben   5   6   7
  74 prop tor   5   6   7   8
  75 prop tor   5   6   7  28
  76 ben   5  22  21
  77 ben   6   5  22
  78 prop tor   6   5  22  21
  79 ben   6   7   8
  80 prop tor   6   7   8   9
  81 prop tor   6   7   8  21
  82 ben   6   7  28
  83 ben   7   8   9
  84 prop tor   7   8   9  10
  85 prop tor   7   8   9  20
  86 ben   7   8  21
  87 prop tor   7   8  21  22
  88 prop tor   7   8  21  34
  89 ben   8   7  28
  90 ben   8   9  10
  91 prop tor   8   9  10  11
  92 ben   8   9  20
  93 prop tor   8   9  20  19
  94 ben   8  21  22
  95 prop tor   8  21  22   5
  96 ben   8  21  34
  97 ben   9   8  21
  98 prop tor   9   8  21  22
  99 prop tor   9   8  21  34
 100 ben   9  10  11
 101 prop tor   9  10  11  12
 102 prop tor   9  10  11  29
 103 ben   9  20  19
 104 ben  10   9  20
 105 prop tor  10   9  20  19
 106 ben  10  11  12
 107 prop tor  10  11  12  13
 108 prop tor  10  11  12  19
 109 ben  10  11  29
 110 ben  11  12  13
 111 prop tor  11  12  13  14
 112 prop tor  11  12  13  18
 113 ben  11  12  19
 114 prop tor  11  12  19  20
 115 prop tor  11  12  19  33
 116 ben  12  11  29
 117 ben  12  13  14
 118 prop tor  12  13  14  15
 119 ben  12  13  18
 120 prop tor  12  13  18  17
 121 ben  12  19  20
 122 prop tor  12  19  20   9
 123 ben  12  19  33
 124 ben  13  12  19
 125 prop tor  13  12  19  20
 126 prop tor  13  12  19  33
 127 ben  13  14  15
 128 prop tor  13  14  15  16
 129 prop tor  13  14  15  30
 130 ben  13  18  17
 131 ben  14  13  18
 132 prop tor  14  13  18  17
 133 ben  14  15  16
 134 prop tor  14  15  16  17
 135 prop tor  14  15  16  31
 136 ben  14  15  30
 137 ben  15  16  17
 138 prop tor  15  16  17  18
 139 prop tor  15  16  17  32
 140 ben  15  16  31
 141 ben  16  15  30
 142 ben  16  17  18
 143 prop tor  16  17  18  13
 144 ben  16  17  32
 145 ben  17  16  31
 146 prop tor  18  13  14  15
 147 ben  18  17  32
 148 prop tor  19  12  13  14
 149 prop tor  19  12  13  18
 150 prop tor  20   9  10  11
 151 ben  20  19  33
 152 prop tor  21   8   9  10
 153 prop tor  21   8   9  20
 154 prop tor  22   5   6   7
 155 ben  22  21  34
 156 prop tor  23   4   5   6
 157 prop tor  23   4   5  22
 158 ben  23  24  36
 159 prop tor  24   1   2   3
 160 prop tor  24   1   2  26
 161 ben  24   1  25
 162 ben  24  23  35
 163 prop tor  25   1   2   3
 164 prop tor  25   1   2  26
 165 prop tor  25   1  24  23
 166 prop tor  25   1  24  36
 167 prop tor  26   2   3   4
 168 prop tor  26   2   3  27
 169 prop tor  27   3   4   5
 170 prop tor  27   3   4  23
 171 prop tor  28   7   8   9
 172 prop tor  28   7   8  21
 173 prop tor  29  11  12  13
 174 prop tor  29  11  12  19
 175 prop tor  30  15  16  17
 176 prop tor  30  15  16  31
 177 prop tor  31  16  17  18
 178 prop tor  31  16  17  32
 179 prop tor  32  17  18  13
 180 prop tor  33  19  20   9
 181 prop tor  34  21  22   5
 182 prop tor  35  23  24   1
 183 prop tor  35  23  24  36
 nber bend=              60
 nber lin bend=           0
 nber prop tor=          84
 nber impr tor=           0
 nber tot redund int=         183
 Eigenvalues of G in red int coords
    Gval -0.00000000 -0.00000000 -0.00000000 -0.00000000 -0.00000000 -0.00000000 -0.00000000 -0.00000000
    Gval -0.00000000 -0.00000000 -0.00000000 -0.00000000 -0.00000000 -0.00000000 -0.00000000 -0.00000000
    Gval -0.00000000 -0.00000000 -0.00000000 -0.00000000 -0.00000000 -0.00000000 -0.00000000 -0.00000000
    Gval -0.00000000 -0.00000000 -0.00000000 -0.00000000 -0.00000000 -0.00000000 -0.00000000 -0.00000000
    Gval -0.00000000 -0.00000000 -0.00000000 -0.00000000 -0.00000000 -0.00000000 -0.00000000 -0.00000000
    Gval  0.00000000  0.00000000  0.00000000  0.00000000  0.00000000  0.00000000  0.00000000  0.00000000
    Gval  0.00000000  0.00000000  0.00000000  0.00000000  0.00000000  0.00000000  0.00000000  0.00000000
    Gval  0.00000000  0.00000000  0.00000000  0.00000000  0.00000000  0.00000000  0.00000000  0.00000000
    Gval  0.00000000  0.00000000  0.00000000  0.00000000  0.00000000  0.00000000  0.00000000  0.00000000
    Gval  0.00000000  0.00000000  0.00000000  0.00000000  0.00000000  0.00000000  0.00000000  0.00000000
    Gval  0.00000000  0.00000049  0.00000167  0.00000203  0.00000296  0.00000764  0.00000869  0.00001281
    Gval  0.00001293  0.00001522  0.00001967  0.00002827  0.00003028  0.00004194  0.00004502  0.00004707
    Gval  0.00004713  0.00004715  0.00004948  0.00005498  0.00005518  0.00005822  0.00005867  0.00006598
    Gval  0.00006644  0.00007683  0.00008834  0.00008839  0.00010186  0.00010357  0.00010638  0.00011476
    Gval  0.00011671  0.00011840  0.00011901  0.00012138  0.00012971  0.00013082  0.00017228  0.00021312
    Gval  0.00022386  0.00025081  0.00026088  0.00027153  0.00027889  0.00028939  0.00031085  0.00034616
    Gval  0.00036165  0.00037561  0.00037894  0.00038461  0.00040528  0.00042317  0.00044277  0.00051042
    Gval  0.00052694  0.00057010  0.00057185  0.00059305  0.00059363  0.00059374  0.00060422  0.00060430
    Gval  0.00061926  0.00062225  0.00062585  0.00062600  0.00062661  0.00064169  0.00066044  0.00069919
    Gval  0.00073373  0.00089288  0.00103999  0.00105447  0.00106045  0.00110505  0.00110606  0.00110896
    Gval  0.00112595  0.00112744  0.00112888  0.00113933  0.00117163  0.00117248  0.00117451  0.00140075
    Gval  0.00143472  0.00144486  0.00154069  0.00160644  0.00192256  0.00223553  0.00223924  0.00225418
    Gval  0.00234082  0.00234961  0.00240621  0.00313256  0.00373448  0.00374776  0.00406905
  4.872814767238846E-007  4.872814767238846E-007
  1.670985273400734E-006  4.872814767238846E-007
  2.027174364000147E-006  4.872814767238846E-007
  2.955431424807815E-006  4.872814767238846E-007
  7.644547098393541E-006  4.872814767238846E-007
  8.692659209864707E-006  4.872814767238846E-007
  1.280766084255662E-005  4.872814767238846E-007
  1.293296167520136E-005  4.872814767238846E-007
  1.521824532712785E-005  4.872814767238846E-007
  1.966740351007418E-005  4.872814767238846E-007
  2.827441829073308E-005  4.872814767238846E-007
  3.027944071183610E-005  4.872814767238846E-007
  4.194288711806818E-005  4.872814767238846E-007
  4.502340816756551E-005  4.872814767238846E-007
  4.707499547836713E-005  4.872814767238846E-007
  4.712751124577333E-005  4.872814767238846E-007
  4.715019357879801E-005  4.872814767238846E-007
  4.947677157217825E-005  4.872814767238846E-007
  5.497666331153838E-005  4.872814767238846E-007
  5.517974606080324E-005  4.872814767238846E-007
  5.822037434220165E-005  4.872814767238846E-007
  5.866713079087009E-005  4.872814767238846E-007
  6.597807476521991E-005  4.872814767238846E-007
  6.644060838374766E-005  4.872814767238846E-007
  7.682951537739822E-005  4.872814767238846E-007
  8.833533325406536E-005  4.872814767238846E-007
  8.838979278433849E-005  4.872814767238846E-007
  1.018552624682567E-004  4.872814767238846E-007
  1.035742838799062E-004  4.872814767238846E-007
  1.063834402952552E-004  4.872814767238846E-007
  1.147637679367049E-004  4.872814767238846E-007
  1.167134256471542E-004  4.872814767238846E-007
  1.184013995991672E-004  4.872814767238846E-007
  1.190125006747088E-004  4.872814767238846E-007
  1.213774089940020E-004  4.872814767238846E-007
  1.297055186181556E-004  4.872814767238846E-007
  1.308176884091608E-004  4.872814767238846E-007
  1.722816952359342E-004  4.872814767238846E-007
  2.131152880310722E-004  4.872814767238846E-007
  2.238551316369089E-004  4.872814767238846E-007
  2.508106287097016E-004  4.872814767238846E-007
  2.608812280150983E-004  4.872814767238846E-007
  2.715257438508411E-004  4.872814767238846E-007
  2.788944474981595E-004  4.872814767238846E-007
  2.893947051926499E-004  4.872814767238846E-007
  3.108496431313544E-004  4.872814767238846E-007
  3.461632465741826E-004  4.872814767238846E-007
  3.616491251960322E-004  4.872814767238846E-007
  3.756069528511850E-004  4.872814767238846E-007
  3.789350402067788E-004  4.872814767238846E-007
  3.846119194914498E-004  4.872814767238846E-007
  4.052800262037073E-004  4.872814767238846E-007
  4.231686185442544E-004  4.872814767238846E-007
  4.427680433790301E-004  4.872814767238846E-007
  5.104200733561028E-004  4.872814767238846E-007
  5.269438297785651E-004  4.872814767238846E-007
  5.701047320692457E-004  4.872814767238846E-007
  5.718509401334429E-004  4.872814767238846E-007
  5.930544007562959E-004  4.872814767238846E-007
  5.936314140493236E-004  4.872814767238846E-007
  5.937364404495570E-004  4.872814767238846E-007
  6.042219646334096E-004  4.872814767238846E-007
  6.043039362519501E-004  4.872814767238846E-007
  6.192606964815386E-004  4.872814767238846E-007
  6.222487711171813E-004  4.872814767238846E-007
  6.258457715576658E-004  4.872814767238846E-007
  6.260036585239101E-004  4.872814767238846E-007
  6.266107007862578E-004  4.872814767238846E-007
  6.416899033562419E-004  4.872814767238846E-007
  6.604360869709643E-004  4.872814767238846E-007
  6.991938967511491E-004  4.872814767238846E-007
  7.337292667057511E-004  4.872814767238846E-007
  8.928840794182613E-004  4.872814767238846E-007
  1.039990955566843E-003  4.872814767238846E-007
  1.054473079782556E-003  4.872814767238846E-007
  1.060446164611833E-003  4.872814767238846E-007
  1.105054125594054E-003  4.872814767238846E-007
  1.106059693722805E-003  4.872814767238846E-007
  1.108962128753170E-003  4.872814767238846E-007
  1.125949733875914E-003  4.872814767238846E-007
  1.127444210026876E-003  4.872814767238846E-007
  1.128877921055795E-003  4.872814767238846E-007
  1.139333987828195E-003  4.872814767238846E-007
  1.171634628395690E-003  4.872814767238846E-007
  1.172484972619468E-003  4.872814767238846E-007
  1.174512460504309E-003  4.872814767238846E-007
  1.400751427620940E-003  4.872814767238846E-007
  1.434723479361616E-003  4.872814767238846E-007
  1.444857998930946E-003  4.872814767238846E-007
  1.540692917836524E-003  4.872814767238846E-007
  1.606439557838462E-003  4.872814767238846E-007
  1.922562336622687E-003  4.872814767238846E-007
  2.235532505819799E-003  4.872814767238846E-007
  2.239235237129838E-003  4.872814767238846E-007
  2.254183420949243E-003  4.872814767238846E-007
  2.340819851623548E-003  4.872814767238846E-007
  2.349606171540425E-003  4.872814767238846E-007
  2.406213690526710E-003  4.872814767238846E-007
  3.132555362899280E-003  4.872814767238846E-007
  3.734477371543998E-003  4.872814767238846E-007
  3.747764609645061E-003  4.872814767238846E-007
  4.069049998395112E-003  4.872814767238846E-007
 cut=1d-8, nber non-redundant internal coords=         102
 Check on Eigenvals of non-red overlap matrix:
  0.00000049  0.00000167  0.00000203  0.00000296  0.00000764  0.00000869  0.00001281  0.00001293
  0.00001522  0.00001967  0.00002827  0.00003028  0.00004194  0.00004502  0.00004707  0.00004713
  0.00004715  0.00004948  0.00005498  0.00005518  0.00005822  0.00005867  0.00006598  0.00006644
  0.00007683  0.00008834  0.00008839  0.00010186  0.00010357  0.00010638  0.00011476  0.00011671
  0.00011840  0.00011901  0.00012138  0.00012971  0.00013082  0.00017228  0.00021312  0.00022386
  0.00025081  0.00026088  0.00027153  0.00027889  0.00028939  0.00031085  0.00034616  0.00036165
  0.00037561  0.00037894  0.00038461  0.00040528  0.00042317  0.00044277  0.00051042  0.00052694
  0.00057010  0.00057185  0.00059305  0.00059363  0.00059374  0.00060422  0.00060430  0.00061926
  0.00062225  0.00062585  0.00062600  0.00062661  0.00064169  0.00066044  0.00069919  0.00073373
  0.00089288  0.00103999  0.00105447  0.00106045  0.00110505  0.00110606  0.00110896  0.00112595
  0.00112744  0.00112888  0.00113933  0.00117163  0.00117248  0.00117451  0.00140075  0.00143472
  0.00144486  0.00154069  0.00160644  0.00192256  0.00223553  0.00223924  0.00225418  0.00234082
  0.00234961  0.00240621  0.00313256  0.00373448  0.00374776  0.00406905
 Checking for correct frequencies
 recalc frequencies=
    -0.0   -0.0   -0.0    0.0    0.0    0.0   20.4   42.3   44.0   58.1
    69.3  112.9  117.1  119.2  163.0  172.7  181.4  256.1  321.3  332.5
   378.6  409.8  412.8  414.3  438.3  445.7  476.0  495.0  507.7  532.8
   553.1  580.4  598.9  632.0  640.5  644.6  646.0  667.5  698.6  717.2
   759.7  771.3  791.5  804.3  804.4  830.8  843.9  915.4  916.4  956.6
   970.6  981.5  985.5  994.3  998.0  999.7  999.8 1006.0 1010.7 1030.9
  1037.8 1051.9 1056.6 1076.7 1087.6 1107.3 1116.7 1120.5 1181.9 1195.2
  1207.3 1240.5 1244.2 1265.9 1304.8 1308.1 1327.8 1335.2 1347.7 1357.1
  1392.1 1422.4 1424.6 1446.2 1464.4 1471.7 1489.4 1493.6 1507.5 1520.2
  1574.0 1574.7 1603.9 1617.8 1631.3 1638.6 3136.6 3138.2 3150.9 3152.2
  3165.3 3172.6 3174.9 3176.0 3183.9 3190.5 3195.2 3204.3
 recalc symmetries=
     B2     B1     B1     A2     B2     A1     B1     A2     B2     B1 
     A2     B2     B1     A2     B1     A1     B2     B1     B1     A1 
     B2     B1     A2     A2     A2     B2     A1     B1     B2     B1 
     A2     B1     B2     B2     B1     A1     B2     B2     B1     A1 
     A1     B1     B1     B1     A1     B1     A2     B1     B1     A1 
     A2     A2     B1     A1     B1     B1     A2     A1     A2     A1 
     A1     A1     B2     A1     A1     B2     A1     B2     B2     A1 
     B2     B2     B2     B2     A1     B2     B2     B2     A1     B2 
     A1     B2     A1     A1     B2     B2     A1     B2     B2     A1 
     A1     B2     B2     A1     A1     A1     A1     B2     A1     B2 
     A1     B2     B2     A1     A1     B2     A1     A1 
 recalc freqs check OK
 Zero-point lengths:
 10.0000 10.0000 10.0000 10.0000 10.0000 10.0000 54.9104 38.1400 37.3531 32.5364
 29.7756 23.3281 22.9099 22.7048 19.4192 18.8674 18.4044 15.4912 13.8308 13.5947
 12.7407 12.2469 12.2018 12.1791 11.8416 11.7429 11.3630 11.1429 11.0028 10.7400
 10.5415 10.2904 10.1306  9.8614  9.7958  9.7643  9.7538  9.5953  9.3793  9.2572
  8.9945  8.9264  8.8117  8.7413  8.7410  8.6011  8.5339  8.1940  8.1896  8.0155
  7.9573  7.9130  7.8970  7.8620  7.8473  7.8407  7.8403  7.8163  7.7981  7.7211
  7.6954  7.6438  7.6269  7.5551  7.5174  7.4501  7.4187  7.4061  7.2112  7.1708
  7.1348  7.0388  7.0284  6.9677  6.8631  6.8546  6.8035  6.7845  6.7530  6.7297
  6.6445  6.5732  6.5682  6.5189  6.4785  6.4623  6.4238  6.4147  6.3850  6.3584
  6.2487  6.2474  6.1903  6.1637  6.1381  6.1242  4.4265  4.4254  4.4165  4.4156
  4.4064  4.4014  4.3998  4.3990  4.3935  4.3890  4.3858  4.3796
 highest evec of mol 2
  0.0000  0.0000  0.0001
  0.0000  0.0000 -0.0000
  0.0000  0.0001  0.0000
  0.0000  0.0000 -0.0002
  0.0000  0.0000  0.0003
  0.0000 -0.0001 -0.0002
  0.0000 -0.0003  0.0001
  0.0000  0.0000 -0.0002
  0.0000  0.0000  0.0002
  0.0000 -0.0001 -0.0002
  0.0000  0.0024  0.0010
  0.0000  0.0000  0.0004
  0.0000  0.0000  0.0016
  0.0000  0.0009  0.0021
  0.0000 -0.0435 -0.0095
  0.0000  0.0000 -0.2881
  0.0000  0.0435 -0.0095
  0.0000 -0.0009  0.0021
  0.0000 -0.0024  0.0010
  0.0000  0.0001 -0.0002
  0.0000  0.0003  0.0001
  0.0000  0.0001 -0.0002
  0.0000 -0.0001  0.0000
  0.0000 -0.0000 -0.0000
  0.0000  0.0000 -0.0004
  0.0000  0.0000  0.0000
  0.0000 -0.0001  0.0001
  0.0000  0.0007  0.0004
  0.0000 -0.0074 -0.0035
  0.0000  0.1079  0.0486
  0.0000  0.0000  0.9407
  0.0000 -0.1079  0.0486
  0.0000  0.0074 -0.0035
  0.0000 -0.0007  0.0004
  0.0000  0.0001  0.0001
  0.0000 -0.0000  0.0000
 Enter nber and list of atoms to keep of mol #2
 keep list:          36           1           2           3           4
           5           6           7           8           9          10
          11          12          13          14          15          16
          17          18          19          20          21          22
          23          24          25          26          27          28
          29          30          31          32          33          34
          35          36
 reordering atoms
           1   7.78860304321855     
           2   7.08539104321855     
           3   5.69866104321855     
           4   4.98170604321855     
           5   3.54331504321855     
           6   2.77789004321855     
           7   1.48340304321855     
           8  0.677669043218546     
           9 -0.752889956781454     
          10  -1.37928495678145     
          11  -2.69887295678145     
          12  -3.45558895678145     
          13  -4.91354395678145     
          14  -5.53947895678145     
          15  -6.86760695678145     
          16  -7.60706295678145     
          17  -6.86760695678145     
          18  -5.53947895678145     
          19  -2.69887295678145     
          20  -1.37928495678145     
          21   1.48340304321855     
          22   2.77789004321855     
          23   5.69866104321855     
          24   7.08539104321855     
          25   8.87221004321855     
          26   7.62419904321855     
          27   5.15668704321855     
          28   1.00331704321855     
          29  -3.21104295678145     
          30  -7.36090395678145     
          31  -8.68894895678145     
          32  -7.36090395678145     
          33  -3.21104295678145     
          34   1.00331704321855     
          35   5.15668704321855     
          36   7.62419904321855     
           1           1
           2           2
           3           3
           4           4
           5           5
           6           6
           7           7
           8           8
           9           9
          10          10
          11          11
          12          12
          13          13
          14          14
          15          15
          16          16
          17          17
          18          18
          19          19
          20          20
          21          21
          22          22
          23          23
          24          24
          25          25
          26          26
          27          27
          28          28
          29          29
          30          30
          31          31
          32          32
          33          33
          34          34
          35          35
          36          36
 initial cartes coords mol 1
   6   0.00000   0.00000   7.72328
   6   0.00000  -1.20660   7.02384
   6   0.00000  -1.20925   5.63372
   6   0.00000   0.00000   4.92353
   6   0.00000   0.00000   3.44255
   7   0.00000   1.19158   2.81851
   6   0.00000   1.18314   1.49113
   6   0.00000   0.00000   0.74250
   6   0.00000   0.00000  -0.73068
   7   0.00000   1.19291  -1.34885
   6   0.00000   1.18384  -2.67730
   6   0.00000   0.00000  -3.42381
   6   0.00000   0.00000  -4.90068
   7   0.00000   1.19288  -5.51554
   6   0.00000   1.18115  -6.84734
   6   0.00000   0.00000  -7.58232
   6   0.00000  -1.18115  -6.84734
   7   0.00000  -1.19288  -5.51554
   6   0.00000  -1.18384  -2.67730
   7   0.00000  -1.19291  -1.34885
   6   0.00000  -1.18314   1.49113
   7   0.00000  -1.19158   2.81851
   6   0.00000   1.20925   5.63372
   6   0.00000   1.20660   7.02384
   1   0.00000   0.00000   8.80730
   1   0.00000  -2.14652   7.56355
   1   0.00000  -2.13733   5.07804
   1   0.00000   2.14282   0.98526
   1   0.00000   2.14316  -3.18320
   1   0.00000   2.15067  -7.33828
   1   0.00000   0.00000  -8.66512
   1   0.00000  -2.15067  -7.33828
   1   0.00000  -2.14316  -3.18320
   1   0.00000  -2.14282   0.98526
   1   0.00000   2.13733   5.07804
   1   0.00000   2.14652   7.56355
 initial cartes coords mol 2
   6   0.00000   0.00000   7.78860
   6   0.00000  -1.20653   7.08539
   6   0.00000  -1.21337   5.69866
   6   0.00000   0.00000   4.98171
   6   0.00000   0.00000   3.54332
   7   0.00000   1.11843   2.77789
   6   0.00000   1.17477   1.48340
   6   0.00000   0.00000   0.67767
   6   0.00000   0.00000  -0.75289
   7   0.00000   1.20779  -1.37928
   6   0.00000   1.19129  -2.69887
   6   0.00000   0.00000  -3.45559
   6   0.00000   0.00000  -4.91354
   7   0.00000   1.19761  -5.53948
   6   0.00000   1.18088  -6.86761
   6   0.00000   0.00000  -7.60706
   6   0.00000  -1.18088  -6.86761
   7   0.00000  -1.19761  -5.53948
   6   0.00000  -1.19129  -2.69887
   7   0.00000  -1.20779  -1.37928
   6   0.00000  -1.17477   1.48340
   7   0.00000  -1.11843   2.77789
   6   0.00000   1.21337   5.69866
   6   0.00000   1.20653   7.08539
   1   0.00000   0.00000   8.87221
   1   0.00000  -2.14732   7.62420
   1   0.00000  -2.15138   5.15669
   1   0.00000   2.15017   1.00332
   1   0.00000   2.14765  -3.21104
   1   0.00000   2.15010  -7.36090
   1   0.00000   0.00000  -8.68895
   1   0.00000  -2.15010  -7.36090
   1   0.00000  -2.14765  -3.21104
   1   0.00000  -2.15017   1.00332
   1   0.00000   2.15138   5.15669
   1   0.00000   2.14732   7.62420
 loop 1 0
 mod cartes coords mol 2
   6   0.00000   0.00000   7.78860
   6   0.00000  -1.20653   7.08539
   6   0.00000  -1.21337   5.69866
   6   0.00000   0.00000   4.98171
   6   0.00000   0.00000   3.54332
   7   0.00000   1.11843   2.77789
   6   0.00000   1.17477   1.48340
   6   0.00000   0.00000   0.67767
   6   0.00000   0.00000  -0.75289
   7   0.00000   1.20779  -1.37928
   6   0.00000   1.19129  -2.69887
   6   0.00000   0.00000  -3.45559
   6   0.00000   0.00000  -4.91354
   7   0.00000   1.19761  -5.53948
   6   0.00000   1.18088  -6.86761
   6   0.00000   0.00000  -7.60706
   6   0.00000  -1.18088  -6.86761
   7   0.00000  -1.19761  -5.53948
   6   0.00000  -1.19129  -2.69887
   7   0.00000  -1.20779  -1.37928
   6   0.00000  -1.17477   1.48340
   7   0.00000  -1.11843   2.77789
   6   0.00000   1.21337   5.69866
   6   0.00000   1.20653   7.08539
   1   0.00000   0.00000   8.87221
   1   0.00000  -2.14732   7.62420
   1   0.00000  -2.15138   5.15669
   1   0.00000   2.15017   1.00332
   1   0.00000   2.14765  -3.21104
   1   0.00000   2.15010  -7.36090
   1   0.00000   0.00000  -8.68895
   1   0.00000  -2.15010  -7.36090
   1   0.00000  -2.14765  -3.21104
   1   0.00000  -2.15017   1.00332
   1   0.00000   2.15138   5.15669
   1   0.00000   2.14732   7.62420
 read in order, maxerr=  0.10 for atom   5
 final axis swaps:           1           1           1
 final xyz swap pattern=           1
 reorder list:
   1   2   3   4   5   6   7   8   9  10  11  12  13  14  15  16  17  18  19  20
  21  22  23  24  25  26  27  28  29  30  31  32  33  34  35  36
 axis signs=           1           1           1
  6     0.000000  0.000000  7.788603     0.000000  0.000000  7.723277
  6     0.000000 -1.206530  7.085391     0.000000 -1.206604  7.023839
  6     0.000000 -1.213372  5.698661     0.000000 -1.209251  5.633716
  6     0.000000  0.000000  4.981706     0.000000  0.000000  4.923525
  6     0.000000  0.000000  3.543315     0.000000  0.000000  3.442554
  7     0.000000  1.118430  2.777890     0.000000  1.191579  2.818507
  6     0.000000  1.174775  1.483403     0.000000  1.183136  1.491133
  6     0.000000  0.000000  0.677669     0.000000  0.000000  0.742498
  6     0.000000  0.000000 -0.752890     0.000000  0.000000 -0.730682
  7     0.000000  1.207795 -1.379285     0.000000  1.192908 -1.348851
  6     0.000000  1.191289 -2.698873     0.000000  1.183842 -2.677299
  6     0.000000  0.000000 -3.455589     0.000000  0.000000 -3.423809
  6     0.000000  0.000000 -4.913544     0.000000  0.000000 -4.900679
  7     0.000000  1.197610 -5.539479     0.000000  1.192885 -5.515542
  6     0.000000  1.180885 -6.867607     0.000000  1.181152 -6.847339
  6     0.000000  0.000000 -7.607063     0.000000  0.000000 -7.582319
  6     0.000000 -1.180885 -6.867607     0.000000 -1.181152 -6.847339
  7     0.000000 -1.197610 -5.539479     0.000000 -1.192885 -5.515542
  6     0.000000 -1.191289 -2.698873     0.000000 -1.183842 -2.677299
  7     0.000000 -1.207795 -1.379285     0.000000 -1.192908 -1.348851
  6     0.000000 -1.174775  1.483403     0.000000 -1.183136  1.491133
  7     0.000000 -1.118430  2.777890     0.000000 -1.191579  2.818507
  6     0.000000  1.213372  5.698661     0.000000  1.209251  5.633716
  6     0.000000  1.206530  7.085391     0.000000  1.206604  7.023839
  1     0.000000  0.000000  8.872210     0.000000  0.000000  8.807301
  1     0.000000 -2.147318  7.624199     0.000000 -2.146519  7.563552
  1     0.000000 -2.151377  5.156687     0.000000 -2.137327  5.078039
  1     0.000000  2.150170  1.003317     0.000000  2.142824  0.985258
  1     0.000000  2.147649 -3.211043     0.000000  2.143157 -3.183202
  1     0.000000  2.150100 -7.360904     0.000000  2.150671 -7.338283
  1     0.000000  0.000000 -8.688949     0.000000  0.000000 -8.665121
  1     0.000000 -2.150100 -7.360904     0.000000 -2.150671 -7.338283
  1     0.000000 -2.147649 -3.211043     0.000000 -2.143157 -3.183202
  1     0.000000 -2.150170  1.003317     0.000000 -2.142824  0.985258
  1     0.000000  2.151377  5.156687     0.000000  2.137327  5.078039
  1     0.000000  2.147318  7.624199     0.000000  2.146519  7.563552
 generating redundant internal coords
         300        3600          36
 Adding extra bonds for z output only
           6           6           6           6           6           7
           6           6           6           7           6           6
           6           7           6           6           6           7
           6           7           6           7           6           6
           1           1           1           1           1           1
           1           1           1           1           1           1
 search for int coords
   1 str   2   1   1.397
   2 str   3   2   1.387
   3 str   4   3   1.409
   4 str   5   4   1.438
   5 str   6   5   1.355
   6 str   7   6   1.296
   7 str   8   7   1.425
   8 str   9   8   1.431
   9 str  10   9   1.361
  10 str  11  10   1.320
  11 str  12  11   1.411
  12 str  13  12   1.458
  13 str  14  13   1.351
  14 str  15  14   1.328
  15 str  16  15   1.393
  16 str  17  16   1.393
  17 str  18  13   1.351
  18 str  18  17   1.328
  19 str  19  12   1.411
  20 str  20   9   1.361
  21 str  20  19   1.320
  22 str  21   8   1.425
  23 str  22   5   1.355
  24 str  22  21   1.296
  25 str  23   4   1.409
  26 str  24   1   1.397
  27 str  24  23   1.387
  28 str  25   1   1.084
  29 str  26   2   1.084
  30 str  27   3   1.083
  31 str  28   7   1.087
  32 str  29  11   1.085
  33 str  30  15   1.088
  34 str  31  16   1.082
  35 str  32  17   1.088
  36 str  33  19   1.085
  37 str  34  21   1.087
  38 str  35  23   1.083
  39 str  36  24   1.084
 nber stretches=          39
  40 ben   1   2   3
  41 prop tor   1   2   3   4
  42 prop tor   1   2   3  27
  43 ben   1   2  26
  44 ben   1  24  23
  45 ben   1  24  36
  46 ben   2   1  24
  47 prop tor   2   1  24  23
  48 prop tor   2   1  24  36
  49 ben   2   1  25
  50 ben   2   3   4
  51 prop tor   2   3   4   5
  52 prop tor   2   3   4  23
  53 ben   2   3  27
  54 ben   3   2  26
  55 ben   3   4   5
  56 prop tor   3   4   5   6
  57 prop tor   3   4   5  22
  58 ben   3   4  23
  59 prop tor   3   4  23  24
  60 prop tor   3   4  23  35
  61 ben   4   3  27
  62 ben   4   5   6
  63 prop tor   4   5   6   7
  64 ben   4   5  22
  65 prop tor   4   5  22  21
  66 ben   4  23  24
  67 prop tor   4  23  24   1
  68 prop tor   4  23  24  36
  69 ben   4  23  35
  70 ben   5   4  23
  71 prop tor   5   4  23  24
  72 prop tor   5   4  23  35
  73 ben   5   6   7
  74 prop tor   5   6   7   8
  75 prop tor   5   6   7  28
  76 ben   5  22  21
  77 ben   6   5  22
  78 prop tor   6   5  22  21
  79 ben   6   7   8
  80 prop tor   6   7   8   9
  81 prop tor   6   7   8  21
  82 ben   6   7  28
  83 ben   7   8   9
  84 prop tor   7   8   9  10
  85 prop tor   7   8   9  20
  86 ben   7   8  21
  87 prop tor   7   8  21  22
  88 prop tor   7   8  21  34
  89 ben   8   7  28
  90 ben   8   9  10
  91 prop tor   8   9  10  11
  92 ben   8   9  20
  93 prop tor   8   9  20  19
  94 ben   8  21  22
  95 prop tor   8  21  22   5
  96 ben   8  21  34
  97 ben   9   8  21
  98 prop tor   9   8  21  22
  99 prop tor   9   8  21  34
 100 ben   9  10  11
 101 prop tor   9  10  11  12
 102 prop tor   9  10  11  29
 103 ben   9  20  19
 104 ben  10   9  20
 105 prop tor  10   9  20  19
 106 ben  10  11  12
 107 prop tor  10  11  12  13
 108 prop tor  10  11  12  19
 109 ben  10  11  29
 110 ben  11  12  13
 111 prop tor  11  12  13  14
 112 prop tor  11  12  13  18
 113 ben  11  12  19
 114 prop tor  11  12  19  20
 115 prop tor  11  12  19  33
 116 ben  12  11  29
 117 ben  12  13  14
 118 prop tor  12  13  14  15
 119 ben  12  13  18
 120 prop tor  12  13  18  17
 121 ben  12  19  20
 122 prop tor  12  19  20   9
 123 ben  12  19  33
 124 ben  13  12  19
 125 prop tor  13  12  19  20
 126 prop tor  13  12  19  33
 127 ben  13  14  15
 128 prop tor  13  14  15  16
 129 prop tor  13  14  15  30
 130 ben  13  18  17
 131 ben  14  13  18
 132 prop tor  14  13  18  17
 133 ben  14  15  16
 134 prop tor  14  15  16  17
 135 prop tor  14  15  16  31
 136 ben  14  15  30
 137 ben  15  16  17
 138 prop tor  15  16  17  18
 139 prop tor  15  16  17  32
 140 ben  15  16  31
 141 ben  16  15  30
 142 ben  16  17  18
 143 prop tor  16  17  18  13
 144 ben  16  17  32
 145 ben  17  16  31
 146 prop tor  18  13  14  15
 147 ben  18  17  32
 148 prop tor  19  12  13  14
 149 prop tor  19  12  13  18
 150 prop tor  20   9  10  11
 151 ben  20  19  33
 152 prop tor  21   8   9  10
 153 prop tor  21   8   9  20
 154 prop tor  22   5   6   7
 155 ben  22  21  34
 156 prop tor  23   4   5   6
 157 prop tor  23   4   5  22
 158 ben  23  24  36
 159 prop tor  24   1   2   3
 160 prop tor  24   1   2  26
 161 ben  24   1  25
 162 ben  24  23  35
 163 prop tor  25   1   2   3
 164 prop tor  25   1   2  26
 165 prop tor  25   1  24  23
 166 prop tor  25   1  24  36
 167 prop tor  26   2   3   4
 168 prop tor  26   2   3  27
 169 prop tor  27   3   4   5
 170 prop tor  27   3   4  23
 171 prop tor  28   7   8   9
 172 prop tor  28   7   8  21
 173 prop tor  29  11  12  13
 174 prop tor  29  11  12  19
 175 prop tor  30  15  16  17
 176 prop tor  30  15  16  31
 177 prop tor  31  16  17  18
 178 prop tor  31  16  17  32
 179 prop tor  32  17  18  13
 180 prop tor  33  19  20   9
 181 prop tor  34  21  22   5
 182 prop tor  35  23  24   1
 183 prop tor  35  23  24  36
 nber bend=              60
 nber lin bend=           0
 nber prop tor=          84
 nber impr tor=           0
 nber tot redund int=         183
 generating redundant internal coords
         300        3600          36
 search for int coords
   1 str   2   1   1.395
   2 str   3   2   1.390
   3 str   4   3   1.402
   4 str   5   4   1.481
   5 str   6   5   1.345
   6 str   7   6   1.327
   7 str   8   7   1.400
   8 str   9   8   1.473
   9 str  10   9   1.344
  10 str  11  10   1.328
  11 str  12  11   1.400
  12 str  13  12   1.477
  13 str  14  13   1.342
  14 str  15  14   1.332
  15 str  16  15   1.391
  16 str  17  16   1.391
  17 str  18  13   1.342
  18 str  18  17   1.332
  19 str  19  12   1.400
  20 str  20   9   1.344
  21 str  20  19   1.328
  22 str  21   8   1.400
  23 str  22   5   1.345
  24 str  22  21   1.327
  25 str  23   4   1.402
  26 str  24   1   1.395
  27 str  24  23   1.390
  28 str  25   1   1.084
  29 str  26   2   1.084
  30 str  27   3   1.082
  31 str  28   7   1.085
  32 str  29  11   1.085
  33 str  30  15   1.087
  34 str  31  16   1.083
  35 str  32  17   1.087
  36 str  33  19   1.085
  37 str  34  21   1.085
  38 str  35  23   1.082
  39 str  36  24   1.084
 nber stretches=          39
  40 ben   1   2   3
  41 prop tor   1   2   3   4
  42 prop tor   1   2   3  27
  43 ben   1   2  26
  44 ben   1  24  23
  45 ben   1  24  36
  46 ben   2   1  24
  47 prop tor   2   1  24  23
  48 prop tor   2   1  24  36
  49 ben   2   1  25
  50 ben   2   3   4
  51 prop tor   2   3   4   5
  52 prop tor   2   3   4  23
  53 ben   2   3  27
  54 ben   3   2  26
  55 ben   3   4   5
  56 prop tor   3   4   5   6
  57 prop tor   3   4   5  22
  58 ben   3   4  23
  59 prop tor   3   4  23  24
  60 prop tor   3   4  23  35
  61 ben   4   3  27
  62 ben   4   5   6
  63 prop tor   4   5   6   7
  64 ben   4   5  22
  65 prop tor   4   5  22  21
  66 ben   4  23  24
  67 prop tor   4  23  24   1
  68 prop tor   4  23  24  36
  69 ben   4  23  35
  70 ben   5   4  23
  71 prop tor   5   4  23  24
  72 prop tor   5   4  23  35
  73 ben   5   6   7
  74 prop tor   5   6   7   8
  75 prop tor   5   6   7  28
  76 ben   5  22  21
  77 ben   6   5  22
  78 prop tor   6   5  22  21
  79 ben   6   7   8
  80 prop tor   6   7   8   9
  81 prop tor   6   7   8  21
  82 ben   6   7  28
  83 ben   7   8   9
  84 prop tor   7   8   9  10
  85 prop tor   7   8   9  20
  86 ben   7   8  21
  87 prop tor   7   8  21  22
  88 prop tor   7   8  21  34
  89 ben   8   7  28
  90 ben   8   9  10
  91 prop tor   8   9  10  11
  92 ben   8   9  20
  93 prop tor   8   9  20  19
  94 ben   8  21  22
  95 prop tor   8  21  22   5
  96 ben   8  21  34
  97 ben   9   8  21
  98 prop tor   9   8  21  22
  99 prop tor   9   8  21  34
 100 ben   9  10  11
 101 prop tor   9  10  11  12
 102 prop tor   9  10  11  29
 103 ben   9  20  19
 104 ben  10   9  20
 105 prop tor  10   9  20  19
 106 ben  10  11  12
 107 prop tor  10  11  12  13
 108 prop tor  10  11  12  19
 109 ben  10  11  29
 110 ben  11  12  13
 111 prop tor  11  12  13  14
 112 prop tor  11  12  13  18
 113 ben  11  12  19
 114 prop tor  11  12  19  20
 115 prop tor  11  12  19  33
 116 ben  12  11  29
 117 ben  12  13  14
 118 prop tor  12  13  14  15
 119 ben  12  13  18
 120 prop tor  12  13  18  17
 121 ben  12  19  20
 122 prop tor  12  19  20   9
 123 ben  12  19  33
 124 ben  13  12  19
 125 prop tor  13  12  19  20
 126 prop tor  13  12  19  33
 127 ben  13  14  15
 128 prop tor  13  14  15  16
 129 prop tor  13  14  15  30
 130 ben  13  18  17
 131 ben  14  13  18
 132 prop tor  14  13  18  17
 133 ben  14  15  16
 134 prop tor  14  15  16  17
 135 prop tor  14  15  16  31
 136 ben  14  15  30
 137 ben  15  16  17
 138 prop tor  15  16  17  18
 139 prop tor  15  16  17  32
 140 ben  15  16  31
 141 ben  16  15  30
 142 ben  16  17  18
 143 prop tor  16  17  18  13
 144 ben  16  17  32
 145 ben  17  16  31
 146 prop tor  18  13  14  15
 147 ben  18  17  32
 148 prop tor  19  12  13  14
 149 prop tor  19  12  13  18
 150 prop tor  20   9  10  11
 151 ben  20  19  33
 152 prop tor  21   8   9  10
 153 prop tor  21   8   9  20
 154 prop tor  22   5   6   7
 155 ben  22  21  34
 156 prop tor  23   4   5   6
[...]
  71 B2   1226. -0.5064    25.6    99.8  72 B2   1240.
                 0.4681    21.9          73 B2   1244.
                 0.4670    21.8          74 B2   1266.
  72 B2   1244. -0.3826    14.6    99.8  71 B2   1207.
                -0.7878    62.1          72 B2   1240.
                -0.3248    10.5          76 B2   1308.
  73 B2   1272. -0.3332    11.1    98.2  63 B2   1057.
                 0.4397    19.3          71 B2   1207.
                -0.5492    30.2          73 B2   1244.
                 0.3776    14.3          77 B2   1328.
  74 B2   1285. -0.6360    40.4    99.9  74 B2   1266.
                 0.4488    20.1          78 B2   1335.
  75 B2   1292.  0.4724    22.3    99.8  74 B2   1266.
                -0.7905    62.5          76 B2   1308.
  76 B2   1336. -0.8615    74.2   100.3  77 B2   1328.
                 0.3188    10.2          78 B2   1335.
  77 A1   1344.  0.8426    71.0   100.3  75 A1   1305.
                -0.3497    12.2          81 A1   1392.
  78 A1   1346.  0.9395    88.3   100.2  79 A1   1348.
  79 B2   1349.  0.9741    94.9    99.9  80 B2   1357.
  80 A1   1353. -0.7733    59.8   100.6  81 A1   1392.
                 0.4582    21.0          84 A1   1446.
  81 B2   1399. -0.5227    27.3    99.7  78 B2   1335.
                 0.5550    30.8          82 B2   1422.
                -0.3957    15.7          85 B2   1464.
  82 B2   1425.  0.3614    13.1    99.8  73 B2   1244.
                 0.6969    48.6          82 B2   1422.
                 0.3852    14.8          86 B2   1472.
                -0.3408    11.6          89 B2   1507.
  83 A1   1429. -0.9094    82.7   100.3  83 A1   1425.
  84 A1   1465. -0.4437    19.7   101.0  81 A1   1392.
                -0.7064    49.9          84 A1   1446.
  85 B2   1469. -0.6232    38.8    99.8  85 B2   1464.
                 0.6875    47.3          86 B2   1472.
  86 B2   1482. -0.4973    24.7   100.2  85 B2   1464.
                -0.4534    20.6          86 B2   1472.
                 0.6377    40.7          88 B2   1494.
  87 A1   1498.  0.4062    16.5   100.1  84 A1   1446.
                 0.8133    66.1          87 A1   1489.
  88 A1   1525.  0.9366    87.7   100.0  90 A1   1520.
  89 B2   1555.  0.4138    17.1    98.4  78 B2   1335.
                 0.6373    40.6          89 B2   1507.
  90 B2   1585. -0.3558    12.7    99.0  78 B2   1335.
                 0.3301    10.9          85 B2   1464.
                 0.5473    30.0          88 B2   1494.
                 0.3889    15.1          89 B2   1507.
                -0.3668    13.5          92 B2   1575.
  91 A1   1602. -0.8994    80.9   100.2  94 A1   1618.
  92 B2   1606. -0.9223    85.1   100.0  92 B2   1575.
  93 A1   1621. -0.7352    54.1   100.5  91 A1   1574.
                 0.5774    33.3          95 A1   1631.
  94 B2   1624.  0.9656    93.2    99.9  93 B2   1604.
  95 A1   1638.  0.5204    27.1   100.2  91 A1   1574.
                 0.3554    12.6          94 A1   1618.
                 0.7095    50.3          95 A1   1631.
  96 A1   1648. -0.9440    89.1   100.4  96 A1   1639.
  97 A1   3149. -0.9987    99.7   100.0  97 A1   3137.
  98 B2   3151.  1.0000   100.0   100.0  98 B2   3138.
  99 A1   3165. -0.9627    92.7   100.0 101 A1   3165.
 100 B2   3176. -0.9567    91.5   100.0 102 B2   3173.
 101 B2   3178. -0.9896    97.9   100.0 100 B2   3152.
 102 A1   3179. -0.9954    99.1   100.0  99 A1   3151.
 103 B2   3182. -0.9930    98.6   100.0 103 B2   3175.
 104 A1   3183.  0.9962    99.2   100.0 104 A1   3176.
 105 A1   3188.  0.7024    49.3   100.0 105 A1   3184.
                 0.6769    45.8         107 A1   3195.
 106 A1   3200. -0.9987    99.7   100.0 108 A1   3204.
 107 B2   3210. -0.9597    92.1   100.0 106 B2   3190.
 108 A1   3211. -0.6582    43.3   100.0 105 A1   3184.
                 0.7354    54.1         107 A1   3195.
 nber times 1st assigned=           1           0
 nber times 1st assigned=           2           0
 nber times 1st assigned=           3           0
 nber times 1st assigned=           4           0
 nber times 1st assigned=           5           0
 nber times 1st assigned=           6           0
 nber times 1st assigned=           7           0
 nber times 1st assigned=           8           0
 nber times 1st assigned=           9           0
 nber times 1st assigned=          10           0
 nber times 1st assigned=          11           0
 nber times 1st assigned=          12           0
 nber times 1st assigned=          13           0
 nber times 1st assigned=          14           0
 nber times 1st assigned=          15           0
 nber times 1st assigned=          16           0
 nber times 1st assigned=          17           0
 nber times 1st assigned=          18           0
 nber times 1st assigned=          19           0
 nber times 1st assigned=          20           0
 nber times 1st assigned=          21           0
 nber times 1st assigned=          22           0
 nber times 1st assigned=          23           0
 nber times 1st assigned=          24           0
 nber times 1st assigned=          25           0
 nber times 1st assigned=          26           0
 nber times 1st assigned=          27           0
 nber times 1st assigned=          28           0
 nber times 1st assigned=          29           0
 nber times 1st assigned=          30           0
 nber times 1st assigned=          31           0
 nber times 1st assigned=          32           0
 nber times 1st assigned=          33           0
 nber times 1st assigned=          34           0
 nber times 1st assigned=          35           0
 nber times 1st assigned=          36           0
 nber times 1st assigned=          37           0
 nber times 1st assigned=          38           0
 nber times 1st assigned=          39           0
 nber times 1st assigned=          40           0
 nber times 1st assigned=          41           0
 nber times 1st assigned=          42           0
 nber times 1st assigned=          43           0
 nber times 1st assigned=          44           0
 nber times 1st assigned=          45           0
 nber times 1st assigned=          46           0
 nber times 1st assigned=          47           0
 nber times 1st assigned=          48           0
 nber times 1st assigned=          49           0
 nber times 1st assigned=          50           0
 nber times 1st assigned=          51           0
 nber times 1st assigned=          52           0
 nber times 1st assigned=          53           0
 nber times 1st assigned=          54           0
 nber times 1st assigned=          55           0
 nber times 1st assigned=          56           0
 nber times 1st assigned=          57           0
 nber times 1st assigned=          58           0
 nber times 1st assigned=          59           0
 nber times 1st assigned=          60           0
 nber times 1st assigned=          61           0
 nber times 1st assigned=          62           0
 nber times 1st assigned=          63           0
 nber times 1st assigned=          64           0
 nber times 1st assigned=          65           0
 nber times 1st assigned=          66           0
 nber times 1st assigned=          67           0
 nber times 1st assigned=          68           0
 nber times 1st assigned=          69           0
 nber times 1st assigned=          70           0
 nber times 1st assigned=          71           0
 nber times 1st assigned=          72           0
 nber times 1st assigned=          73           0
 nber times 1st assigned=          74           0
 nber times 1st assigned=          75           0
 nber times 1st assigned=          76           0
 nber times 1st assigned=          77           0
 nber times 1st assigned=          78           0
 nber times 1st assigned=          79           0
 nber times 1st assigned=          80           0
 nber times 1st assigned=          81           0
 nber times 1st assigned=          82           0
 nber times 1st assigned=          83           0
 nber times 1st assigned=          84           0
 nber times 1st assigned=          85           0
 nber times 1st assigned=          86           0
 nber times 1st assigned=          87           0
 nber times 1st assigned=          88           0
 nber times 1st assigned=          89           0
 nber times 1st assigned=          90           0
 nber times 1st assigned=          91           0
 nber times 1st assigned=          92           0
 nber times 1st assigned=          93           0
 nber times 1st assigned=          94           0
 nber times 1st assigned=          95           0
 nber times 1st assigned=          96           0
 nber times 1st assigned=          97           0
 nber times 1st assigned=          98           0
 nber times 1st assigned=          99           0
 nber times 1st assigned=         100           0
 nber times 1st assigned=         101           0
 nber times 1st assigned=         102           0
 nber times 1st assigned=         103           0
 nber times 1st assigned=         104           0
 nber times 1st assigned=         105           0
 nber times 1st assigned=         106           0
 nber times 1st assigned=         107           0
 nber times 1st assigned=         108           0
 modes represented=   104.220673745694     
 p1=
   -0.   -0.    0.   -0.    0.    0.   -0.   -0.    0.   -0.    0.    0.   -0.   -0.   -0.  -25.   -0.    0.   18.    0.
    0.   -0.   -0.   -0.   -0.    0.   -0.    2.    0.   -0.    0.    0.    0.    0.   -0.   -0.   13.   -0.   -3.    0.
   -9.   -0.    0.    7.    0.   -0.    0.   -0.   -0.    0.    0.   -0.   -0.   -0.    0.   -0.   -1.    0.   -6.   -5.
    6.    4.   -2.   -0.    1.    0.    0.    0.    3.    0.   -0.    0.    0.    0.    0.    0.    4.    2.   -0.    6.
    0.    0.   -4.    2.    0.    0.    1.   -2.    0.   -0.    5.    0.    4.   -0.   -2.   -2.   -0.    0.   -0.    0.
   -0.   -0.   -0.   -0.    0.   -0.    0.   -0.
 p2=
   -0.   -0.    0.    0.    0.   -0.    0.    0.    0.   -0.   -0.    0.   -0.   -0.    0.  -23.   -0.   -0.    0.  -17.
   -0.   -0.   -0.    0.   -0.    0.   -1.    0.   -0.   -0.    0.   -0.    0.   -0.   -0.  -16.    0.    0.   -0.   -4.
   -8.    0.    0.   -0.   -4.    0.   -0.    0.   -0.    8.    0.    0.    0.   -0.    0.    0.   -0.    1.    0.   -1.
    1.    1.    0.   -1.   -3.    0.    1.   -0.    0.   -2.    0.    0.    0.   -0.   -2.    0.   -0.    0.   -1.    0.
    4.    0.   -3.   -1.   -0.   -0.    1.   -0.   -0.    2.    4.   -0.    0.    6.   -3.   -2.   -0.   -0.    0.   -0.
    0.    0.   -0.    0.   -0.   -0.    0.   -0.

 Displacement: in terms of nc of 1 THEN of nc of 2

   1 A1  freq=    -0. Q= -0.000 lam=    -0.0 B2  freq=    -0. Q= -0.000 lam=    -0.0
   2 A2  freq=    -0. Q= -0.000 lam=    -0.0 B1  freq=    -0. Q= -0.000 lam=    -0.0
   3 B1  freq=     0. Q=  0.000 lam=     0.0 B1  freq=    -0. Q=  0.000 lam=    -0.0
   4 B1  freq=     0. Q= -0.000 lam=     0.0 A2  freq=     0. Q= -0.000 lam=     0.0
   5 B2  freq=     0. Q=  0.000 lam=     0.0 B2  freq=     0. Q=  0.000 lam=     0.0
   6 B2  freq=     0. Q=  0.000 lam=     0.0 A1  freq=     0. Q=  0.000 lam=     0.0
   7 B1  freq=    20. Q= -0.000 lam=     0.0 B1  freq=    20. Q= -0.000 lam=     0.0
   8 A2  freq=    29. Q= -0.000 lam=     0.0 A2  freq=    42. Q= -0.000 lam=     0.0
   9 B2  freq=    50. Q=  0.000 lam=     0.0 B2  freq=    44. Q=  0.000 lam=     0.0
  10 A2  freq=    54. Q= -0.000 lam=     0.0 B1  freq=    58. Q= -0.000 lam=     0.0
  11 B1  freq=    56. Q=  0.000 lam=     0.0 A2  freq=    69. Q=  0.000 lam=     0.0
  12 A2  freq=    73. Q=  0.000 lam=     0.0 B2  freq=   113. Q=  0.000 lam=     0.0
  13 B1  freq=   121. Q= -0.000 lam=     0.0 B1  freq=   117. Q= -0.000 lam=     0.0
  14 B2  freq=   125. Q= -0.000 lam=     0.0 A2  freq=   119. Q= -0.000 lam=     0.0
  15 B1  freq=   168. Q= -0.000 lam=     0.0 B1  freq=   163. Q= -0.000 lam=     0.0
  16 A1  freq=   175. Q= -1.339 lam=   157.4 A1  freq=   173. Q= -1.242 lam=   133.1
  17 B2  freq=   199. Q= -0.000 lam=     0.0 B2  freq=   181. Q= -0.000 lam=     0.0
  18 B1  freq=   257. Q=  0.000 lam=     0.0 B1  freq=   256. Q=  0.000 lam=     0.0
  19 A1  freq=   338. Q=  1.311 lam=   290.4 B1  freq=   321. Q=  0.000 lam=     0.0
  20 B1  freq=   349. Q=  0.000 lam=     0.0 A1  freq=   333. Q=  1.235 lam=   253.5
  21 B2  freq=   387. Q=  0.000 lam=     0.0 B2  freq=   379. Q=  0.000 lam=     0.0
  22 A2  freq=   405. Q= -0.000 lam=     0.0 B1  freq=   410. Q= -0.000 lam=     0.0
  23 A2  freq=   409. Q= -0.000 lam=     0.0 A2  freq=   413. Q= -0.000 lam=     0.0
  24 A2  freq=   414. Q= -0.000 lam=     0.0 A2  freq=   414. Q= -0.000 lam=     0.0
  25 A2  freq=   417. Q= -0.000 lam=     0.0 A2  freq=   438. Q= -0.000 lam=     0.0
  26 B1  freq=   433. Q=  0.000 lam=     0.0 B2  freq=   446. Q=  0.000 lam=     0.0
  27 B2  freq=   458. Q= -0.000 lam=     0.0 A1  freq=   476. Q= -0.058 lam=     0.8
  28 A1  freq=   476. Q=  0.189 lam=     8.5 B1  freq=   495. Q=  0.000 lam=     0.0
  29 B2  freq=   515. Q=  0.000 lam=     0.0 B2  freq=   508. Q=  0.000 lam=     0.0
  30 B1  freq=   517. Q= -0.000 lam=     0.0 B1  freq=   533. Q= -0.000 lam=     0.0
  31 B1  freq=   570. Q=  0.000 lam=     0.0 A2  freq=   553. Q=  0.000 lam=     0.0
  32 B1  freq=   606. Q=  0.000 lam=     0.0 B1  freq=   580. Q=  0.000 lam=     0.0
  33 B2  freq=   631. Q=  0.000 lam=     0.0 B2  freq=   599. Q=  0.000 lam=     0.0
  34 B2  freq=   645. Q=  0.000 lam=     0.0 B2  freq=   632. Q=  0.000 lam=     0.0
  35 B2  freq=   660. Q= -0.000 lam=     0.0 B1  freq=   640. Q= -0.000 lam=     0.0
  36 B2  freq=   674. Q= -0.000 lam=     0.0 A1  freq=   645. Q= -1.613 lam=   838.1
  37 A1  freq=   679. Q=  1.318 lam=   589.6 B2  freq=   646. Q=  0.000 lam=     0.0
  38 B1  freq=   709. Q= -0.000 lam=     0.0 B2  freq=   668. Q= -0.000 lam=     0.0
  39 A1  freq=   726. Q= -0.287 lam=    29.9 B1  freq=   699. Q= -0.000 lam=     0.0
  40 B1  freq=   769. Q=  0.000 lam=     0.0 A1  freq=   717. Q=  0.451 lam=    72.9
  41 A1  freq=   797. Q= -1.042 lam=   433.0 A1  freq=   760. Q= -0.939 lam=   335.2
  42 B1  freq=   822. Q= -0.000 lam=     0.0 B1  freq=   771. Q= -0.000 lam=     0.0
  43 B1  freq=   827. Q=  0.000 lam=     0.0 B1  freq=   792. Q=  0.000 lam=     0.0
  44 A1  freq=   838. Q=  0.833 lam=   290.7 B1  freq=   804. Q=  0.000 lam=     0.0
  45 B1  freq=   844. Q=  0.000 lam=     0.0 A1  freq=   804. Q=  0.460 lam=    85.0
  46 B1  freq=   858. Q= -0.000 lam=     0.0 B1  freq=   831. Q= -0.000 lam=     0.0
  47 A2  freq=   867. Q=  0.000 lam=     0.0 A2  freq=   844. Q=  0.000 lam=     0.0
  48 B1  freq=   961. Q= -0.000 lam=     0.0 B1  freq=   915. Q= -0.000 lam=     0.0
  49 B1  freq=   995. Q= -0.000 lam=     0.0 B1  freq=   916. Q= -0.000 lam=     0.0
  50 A2  freq=  1003. Q=  0.000 lam=     0.0 A1  freq=   957. Q=  0.984 lam=   463.6
  51 A2  freq=  1006. Q=  0.000 lam=     0.0 A2  freq=   971. Q=  0.000 lam=     0.0
  52 B1  freq=  1007. Q= -0.000 lam=     0.0 A2  freq=   982. Q= -0.000 lam=     0.0
  53 A1  freq=  1010. Q= -0.020 lam=     0.2 B1  freq=   986. Q= -0.000 lam=     0.0
  54 B1  freq=  1014. Q= -0.000 lam=     0.0 A1  freq=   994. Q= -0.022 lam=     0.2
  55 B1  freq=  1016. Q=  0.000 lam=     0.0 B1  freq=   998. Q=  0.000 lam=     0.0
  56 A2  freq=  1017. Q= -0.000 lam=     0.0 B1  freq=  1000. Q= -0.000 lam=     0.0
  57 A1  freq=  1017. Q= -0.089 lam=     4.0 A2  freq=  1000. Q= -0.000 lam=     0.0
  58 A2  freq=  1020. Q=  0.000 lam=     0.0 A1  freq=  1006. Q=  0.185 lam=    17.2
  59 A1  freq=  1039. Q= -0.835 lam=   362.1 A2  freq=  1011. Q= -0.000 lam=     0.0
  60 A1  freq=  1045. Q= -0.597 lam=   185.9 A1  freq=  1031. Q= -0.082 lam=     3.5
  61 A1  freq=  1048. Q=  0.726 lam=   276.4 A1  freq=  1038. Q=  0.102 lam=     5.4
  62 A1  freq=  1072. Q=  0.480 lam=   123.5 A1  freq=  1052. Q=  0.195 lam=    20.0
  63 A1  freq=  1083. Q= -0.218 lam=    25.8 B2  freq=  1057. Q= -0.000 lam=     0.0
  64 B2  freq=  1099. Q= -0.000 lam=     0.0 A1  freq=  1077. Q= -0.103 lam=     5.7
  65 A1  freq=  1110. Q=  0.095 lam=     5.0 A1  freq=  1088. Q=  0.339 lam=    62.5
  66 B2  freq=  1116. Q=  0.000 lam=     0.0 B2  freq=  1107. Q=  0.000 lam=     0.0
  67 A1  freq=  1135. Q=  0.047 lam=     1.2 A1  freq=  1117. Q=  0.080 lam=     3.5
  68 B2  freq=  1180. Q=  0.000 lam=     0.0 B2  freq=  1120. Q=  0.000 lam=     0.0
  69 A1  freq=  1195. Q=  0.402 lam=    96.7 B2  freq=  1182. Q=  0.000 lam=     0.0
  70 B2  freq=  1223. Q=  0.000 lam=     0.0 A1  freq=  1195. Q=  0.324 lam=    62.6
  71 B2  freq=  1226. Q= -0.000 lam=     0.0 B2  freq=  1207. Q= -0.000 lam=     0.0
  72 B2  freq=  1244. Q=  0.000 lam=     0.0 B2  freq=  1240. Q=  0.000 lam=     0.0
  73 B2  freq=  1272. Q=  0.000 lam=     0.0 B2  freq=  1244. Q=  0.000 lam=     0.0
  74 B2  freq=  1285. Q=  0.000 lam=     0.0 B2  freq=  1266. Q=  0.000 lam=     0.0
  75 B2  freq=  1292. Q=  0.000 lam=     0.0 A1  freq=  1305. Q=  0.255 lam=    42.4
  76 B2  freq=  1336. Q=  0.000 lam=     0.0 B2  freq=  1308. Q=  0.000 lam=     0.0
  77 A1  freq=  1344. Q=  0.571 lam=   219.4 B2  freq=  1328. Q=  0.000 lam=     0.0
  78 A1  freq=  1346. Q=  0.289 lam=    56.2 B2  freq=  1335. Q=  0.000 lam=     0.0
  79 B2  freq=  1349. Q= -0.000 lam=     0.0 A1  freq=  1348. Q= -0.094 lam=     6.0
  80 A1  freq=  1353. Q=  0.842 lam=   479.7 B2  freq=  1357. Q=  0.000 lam=     0.0
  81 B2  freq=  1399. Q=  0.000 lam=     0.0 A1  freq=  1392. Q=  0.664 lam=   307.2
  82 B2  freq=  1425. Q=  0.000 lam=     0.0 B2  freq=  1422. Q=  0.000 lam=     0.0
  83 A1  freq=  1429. Q= -0.556 lam=   220.7 A1  freq=  1425. Q= -0.473 lam=   159.6
  84 A1  freq=  1465. Q=  0.372 lam=   101.5 A1  freq=  1446. Q=  0.107 lam=     8.3
  85 B2  freq=  1469. Q=  0.000 lam=     0.0 B2  freq=  1464. Q=  0.000 lam=     0.0
  86 B2  freq=  1482. Q=  0.000 lam=     0.0 B2  freq=  1472. Q=  0.000 lam=     0.0
  87 A1  freq=  1498. Q=  0.221 lam=    36.6 A1  freq=  1489. Q=  0.231 lam=    39.7
  88 A1  freq=  1525. Q= -0.359 lam=    98.1 B2  freq=  1494. Q= -0.000 lam=     0.0
  89 B2  freq=  1555. Q=  0.000 lam=     0.0 B2  freq=  1507. Q=  0.000 lam=     0.0
  90 B2  freq=  1585. Q= -0.000 lam=     0.0 A1  freq=  1520. Q= -0.377 lam=   108.1
  91 A1  freq=  1602. Q=  0.747 lam=   447.4 A1  freq=  1574. Q=  0.673 lam=   356.7
  92 B2  freq=  1606. Q=  0.000 lam=     0.0 B2  freq=  1575. Q=  0.000 lam=     0.0
  93 A1  freq=  1621. Q=  0.665 lam=   358.7 B2  freq=  1604. Q=  0.000 lam=     0.0
  94 B2  freq=  1624. Q= -0.000 lam=     0.0 A1  freq=  1618. Q= -0.912 lam=   672.3
  95 A1  freq=  1638. Q= -0.277 lam=    62.9 A1  freq=  1631. Q= -0.564 lam=   259.5
  96 A1  freq=  1648. Q= -0.343 lam=    96.9 A1  freq=  1639. Q= -0.404 lam=   133.7
  97 A1  freq=  3149. Q= -0.008 lam=     0.1 A1  freq=  3137. Q= -0.009 lam=     0.1
  98 B2  freq=  3151. Q=  0.000 lam=     0.0 B2  freq=  3138. Q=  0.000 lam=     0.0
  99 A1  freq=  3165. Q= -0.006 lam=     0.1 A1  freq=  3151. Q= -0.026 lam=     1.0
 100 B2  freq=  3176. Q=  0.000 lam=     0.0 B2  freq=  3152. Q=  0.000 lam=     0.0
 101 B2  freq=  3178. Q= -0.000 lam=     0.0 A1  freq=  3165. Q= -0.006 lam=     0.1
 102 A1  freq=  3179. Q= -0.012 lam=     0.2 B2  freq=  3173. Q= -0.000 lam=     0.0
 103 B2  freq=  3182. Q= -0.000 lam=     0.0 B2  freq=  3175. Q= -0.000 lam=     0.0
 104 A1  freq=  3183. Q= -0.002 lam=     0.0 A1  freq=  3176. Q= -0.005 lam=     0.0
 105 A1  freq=  3188. Q=  0.001 lam=     0.0 A1  freq=  3184. Q=  0.024 lam=     0.9
 106 A1  freq=  3200. Q= -0.008 lam=     0.1 B2  freq=  3190. Q= -0.000 lam=     0.0
 107 B2  freq=  3210. Q=  0.000 lam=     0.0 A1  freq=  3195. Q=  0.016 lam=     0.4
 108 A1  freq=  3211. Q= -0.015 lam=     0.3 A1  freq=  3204. Q= -0.010 lam=     0.2

 total reorg energy (cm**-1, kcal/mol)=     5059.     4459.     14.46     12.75
 Nber of molecules processed=           2
