 Enter ifcurve (0=recti, 1=orth curvi, 2=apprx curvi, -1 = skip
 And atom ordering flag, 0= never changes, 1= use the first order thenceforth,
  2= deduce it (does read on fail), 3= always read it
 Reading file: 
 ./conjugated_carbonyls_2_C-1S0.log                                             
                                          
  Entering Gaussian System, Link 0=g16                                          
  
 Gaussian format, type: g94, g98, g03= F F F
  #P Geom=AllCheck Guess=TCheck SCRF=Check Test GenChk UB3LYP/6-311G(d,p    
 energy type= B3LYP   
 Original G94 input coords:
  8  1.421050 -3.250100  0.000000
  6  0.755228 -2.197724 -0.000001
  6 -0.755228 -2.197724  0.000000
  8 -1.421050 -3.250100  0.000000
  6 -1.372671 -0.888217  0.000000
 16 -3.117366 -0.684235  0.000000
  6 -2.940316  1.055001  0.000000
  6 -1.633945  1.446888  0.000000
  6 -0.718027  0.347874  0.000000
  6  0.718027  0.347874  0.000000
  6  1.633945  1.446888  0.000000
  6  2.940316  1.055001  0.000000
 16  3.117366 -0.684235  0.000000
  6  1.372671 -0.888217  0.000000
  1 -3.818885  1.683452  0.000000
  1 -1.328167  2.487061  0.000000
  1  1.328167  2.487061  0.000000
  1  3.818885  1.683452  0.000000
 nber atoms=          18
  SCF Done:  E(UB3LYP) =  -1330.52404341     A.U. after    1 cycles             
  
          23          40 "  -1330.52404341"
After scan for Atom:   Atom  AN      X      Y      Z        X      Y      Z        X      Y      Z   
After scan for Atom:   Atom  AN      X      Y      Z        X      Y      Z        X      Y      Z   
After scan for Atom:   Atom  AN      X      Y      Z        X      Y      Z        X      Y      Z   
After scan for Atom:   Atom  AN      X      Y      Z        X      Y      Z        X      Y      Z   
After scan for Atom:   Atom  AN      X      Y      Z        X      Y      Z        X      Y      Z   
After scan for Atom:   Atom  AN      X      Y      Z        X      Y      Z        X      Y      Z   
After scan for Atom:   Atom  AN      X      Y      Z        X      Y      Z        X      Y      Z   
After scan for Atom:   Atom  AN      X      Y      Z        X      Y      Z        X      Y      Z   
After scan for Atom:   Atom  AN      X      Y      Z        X      Y      Z        X      Y      Z   
After scan for Atom:   Atom  AN      X      Y      Z        X      Y      Z        X      Y      Z   
After scan for Atom:   Atom  AN      X      Y      Z        X      Y      Z        X      Y      Z   
After scan for Atom:   Atom  AN      X      Y      Z        X      Y      Z        X      Y      Z   
After scan for Atom:   Atom  AN      X      Y      Z        X      Y      Z        X      Y      Z   
After scan for Atom:   Atom  AN      X      Y      Z        X      Y      Z        X      Y      Z   
After scan for Atom:   Atom  AN      X      Y      Z        X      Y      Z        X      Y      Z   
After scan for Atom:   Atom  AN      X      Y      Z        X      Y      Z        X      Y      Z   
 g94    frequencies=
     0.0    0.0    0.0    0.0    0.0    0.0   87.2  102.0  157.6  166.6
   200.7  255.7  300.0  323.0  367.6  399.0  402.3  460.1  492.3  528.2
   536.2  595.7  626.3  676.5  681.5  682.1  699.2  756.7  761.5  805.2
   839.3  850.1  855.9  863.2  911.7 1001.1 1093.9 1110.8 1176.3 1230.1
  1231.0 1300.5 1367.5 1399.1 1449.7 1468.0 1546.6 1551.6 1569.9 1588.1
  3166.8 3171.7 3221.1 3221.4
 g94    symmetries=
                                                 A      A      A      A
       A      A      A      A      A      A      A      A      A      A
       A      A      A      A      A      A      A      A      A      A
       A      A      A      A      A      A      A      A      A      A
       A      A      A      A      A      A      A      A      A      A
       A      A      A      A
 atomic masses:
 15.9949 12.0000 12.0000 15.9949 12.0000 31.9721 12.0000 12.0000 12.0000 12.0000
 12.0000 12.0000 31.9721 12.0000  1.0078  1.0078  1.0078  1.0078
 looking for force constants in 
 ./conjugated_carbonyls_2_C-1S0.fchk                                            
  
 Cartesian Force Constants                  R   N=        1485                  
  
 n3=          54        1485
 g94-fc frequencies=
    -1.3   -0.0   -0.0    0.0    2.3    4.7   87.2  102.0  157.6  166.6
   200.7  255.7  300.0  323.0  367.6  399.1  402.3  460.2  492.3  528.2
   536.2  595.7  626.3  676.6  681.5  682.1  699.2  756.7  761.5  805.2
   839.4  850.1  855.9  863.2  911.7 1001.1 1093.9 1110.8 1176.3 1230.1
  1231.0 1300.5 1367.5 1399.2 1449.8 1468.1 1546.6 1551.6 1569.9 1588.1
  3166.8 3171.8 3221.2 3221.4
 at 99999: n3=          54
 symm operator            1 :  F  nop=           0
 symm operator            2 :  T  nop=           1
 symm operator            3 :  F  nop=           1
 symm operator            4 :  F  nop=           1
 symm operator            5 :  T  nop=           2
 symm operator            6 :  F  nop=           2
 symm operator            7 :  T  nop=           3
 swap           2           3
   1   1.42105   0.00000  -3.25010
   2   0.75523  -0.00000  -2.19772
   3  -0.75523   0.00000  -2.19772
   4  -1.42105   0.00000  -3.25010
   5  -1.37267   0.00000  -0.88822
   6  -3.11737   0.00000  -0.68424
   7  -2.94032   0.00000   1.05500
   8  -1.63394   0.00000   1.44689
   9  -0.71803   0.00000   0.34787
  10   0.71803   0.00000   0.34787
  11   1.63394   0.00000   1.44689
  12   2.94032   0.00000   1.05500
  13   3.11737   0.00000  -0.68424
  14   1.37267   0.00000  -0.88822
  15  -3.81888   0.00000   1.68345
  16  -1.32817   0.00000   2.48706
  17   1.32817   0.00000   2.48706
  18   3.81888   0.00000   1.68345
 swap           1           2
   1   0.00000   1.42105  -3.25010
   2  -0.00000   0.75523  -2.19772
   3   0.00000  -0.75523  -2.19772
   4   0.00000  -1.42105  -3.25010
   5   0.00000  -1.37267  -0.88822
   6   0.00000  -3.11737  -0.68424
   7   0.00000  -2.94032   1.05500
   8   0.00000  -1.63394   1.44689
   9   0.00000  -0.71803   0.34787
  10   0.00000   0.71803   0.34787
  11   0.00000   1.63394   1.44689
  12   0.00000   2.94032   1.05500
  13   0.00000   3.11737  -0.68424
  14   0.00000   1.37267  -0.88822
  15   0.00000  -3.81888   1.68345
  16   0.00000  -1.32817   2.48706
  17   0.00000   1.32817   2.48706
  18   0.00000   3.81888   1.68345
 The point group of the molecule is C2V
 enforcing symm op           1  jsymt=          -1          -1           1
 enforcing symm op           6  jsymt=           1          -1           1
 enforcing symm op           7  jsymt=          -1           1           1
 cartesian coord symmetries:
 A1 :   18 A2 :    9 B1 :    9 B2 :   18
 Symmetry rotation matrix:
   0.00000   0.00000   1.00000
  -1.00000   0.00000   0.00000
   0.00000  -1.00000   0.00000

 Projecting out zero-frequency components
 generating redundant internal coords
         300        3600          18
 search for int coords
   1 str   2   1   1.245
   2 str   3   2   1.510
   3 str   4   3   1.245
   4 str   5   3   1.448
   5 str   6   5   1.757
   6 str   7   6   1.748
   7 str   8   7   1.364
   8 str   9   5   1.399
   9 str   9   8   1.431
  10 str  10   9   1.436
  11 str  11  10   1.431
  12 str  12  11   1.364
  13 str  13  12   1.748
  14 str  14   2   1.448
  15 str  14  10   1.399
  16 str  14  13   1.757
  17 str  15   7   1.080
  18 str  16   8   1.084
  19 str  17  11   1.084
  20 str  18  12   1.080
 nber stretches=          20
  21 ben   1   2   3
  22 prop tor   1   2   3   4
  23 prop tor   1   2   3   5
  24 ben   1   2  14
  25 prop tor   1   2  14  10
  26 prop tor   1   2  14  13
  27 ben   2   3   4
  28 ben   2   3   5
  29 prop tor   2   3   5   6
  30 prop tor   2   3   5   9
  31 ben   2  14  10
  32 ben   2  14  13
  33 ben   3   2  14
  34 prop tor   3   2  14  10
  35 prop tor   3   2  14  13
  36 ben   3   5   6
  37 prop tor   3   5   6   7
  38 ben   3   5   9
  39 prop tor   3   5   9   8
  40 prop tor   3   5   9  10
  41 ben   4   3   5
  42 prop tor   4   3   5   6
  43 prop tor   4   3   5   9
  44 ben   5   6   7
  45 prop tor   5   6   7   8
  46 prop tor   5   6   7  15
  47 ben   5   9   8
  48 ben   5   9  10
  49 prop tor   5   9  10  11
  50 prop tor   5   9  10  14
  51 ben   6   5   9
  52 prop tor   6   5   9   8
  53 prop tor   6   5   9  10
  54 ben   6   7   8
  55 prop tor   6   7   8   9
  56 prop tor   6   7   8  16
  57 ben   6   7  15
  58 ben   7   8   9
  59 prop tor   7   8   9   5
  60 prop tor   7   8   9  10
  61 ben   7   8  16
  62 ben   8   7  15
  63 ben   8   9  10
  64 prop tor   8   9  10  11
  65 prop tor   8   9  10  14
  66 prop tor   9   5   6   7
  67 ben   9   8  16
  68 ben   9  10  11
  69 prop tor   9  10  11  12
  70 prop tor   9  10  11  17
  71 ben   9  10  14
  72 prop tor   9  10  14   2
  73 prop tor   9  10  14  13
  74 ben  10  11  12
  75 prop tor  10  11  12  13
  76 prop tor  10  11  12  18
  77 ben  10  11  17
  78 ben  10  14  13
  79 ben  11  10  14
  80 prop tor  11  10  14   2
  81 prop tor  11  10  14  13
  82 ben  11  12  13
  83 prop tor  11  12  13  14
  84 ben  11  12  18
  85 ben  12  11  17
  86 ben  12  13  14
  87 prop tor  12  13  14   2
  88 prop tor  12  13  14  10
  89 ben  13  12  18
  90 prop tor  14   2   3   4
  91 prop tor  14   2   3   5
  92 prop tor  14  10  11  12
  93 prop tor  14  10  11  17
  94 prop tor  15   7   8   9
  95 prop tor  15   7   8  16
  96 prop tor  16   8   9   5
  97 prop tor  16   8   9  10
  98 prop tor  17  11  12  13
  99 prop tor  17  11  12  18
 100 prop tor  18  12  13  14
 nber bend=              32
 nber lin bend=           0
 nber prop tor=          48
 nber impr tor=           0
 nber tot redund int=         100
 Eigenvalues of G in red int coords
    Gval -0.00000000 -0.00000000 -0.00000000 -0.00000000 -0.00000000 -0.00000000 -0.00000000 -0.00000000
    Gval -0.00000000 -0.00000000 -0.00000000 -0.00000000 -0.00000000 -0.00000000 -0.00000000 -0.00000000
    Gval -0.00000000 -0.00000000 -0.00000000 -0.00000000 -0.00000000 -0.00000000 -0.00000000 -0.00000000
    Gval -0.00000000 -0.00000000  0.00000000  0.00000000  0.00000000  0.00000000  0.00000000  0.00000000
    Gval  0.00000000  0.00000000  0.00000000  0.00000000  0.00000000  0.00000000  0.00000000  0.00000000
    Gval  0.00000000  0.00000000  0.00000000  0.00000000  0.00000000  0.00000000  0.00000000  0.00000000
    Gval  0.00000000  0.00000000  0.00000000  0.00000000  0.00000841  0.00000977  0.00001136  0.00002135
    Gval  0.00002167  0.00002453  0.00003219  0.00004439  0.00004796  0.00004910  0.00005288  0.00006070
    Gval  0.00007097  0.00009303  0.00010304  0.00010456  0.00010465  0.00010570  0.00011043  0.00013284
    Gval  0.00017063  0.00017720  0.00025116  0.00025726  0.00031023  0.00033650  0.00035427  0.00035902
    Gval  0.00041521  0.00044570  0.00045578  0.00054104  0.00059646  0.00059687  0.00062261  0.00062751
    Gval  0.00066051  0.00107673  0.00107844  0.00118030  0.00118053  0.00120903  0.00130621  0.00187709
    Gval  0.00200223  0.00246556  0.00385352  0.00396815
  8.409904287219143E-006  8.409904287219143E-006
  9.771678265783858E-006  8.409904287219143E-006
  1.135900844480283E-005  8.409904287219143E-006
  2.135467049387030E-005  8.409904287219143E-006
  2.166630069512572E-005  8.409904287219143E-006
  2.453312843977541E-005  8.409904287219143E-006
  3.219048663653019E-005  8.409904287219143E-006
  4.439418238432904E-005  8.409904287219143E-006
  4.796218250987514E-005  8.409904287219143E-006
  4.910314123948207E-005  8.409904287219143E-006
  5.288038277221012E-005  8.409904287219143E-006
  6.070081268295291E-005  8.409904287219143E-006
  7.097448714744406E-005  8.409904287219143E-006
  9.302612423423793E-005  8.409904287219143E-006
  1.030364128633824E-004  8.409904287219143E-006
  1.045592841522474E-004  8.409904287219143E-006
  1.046495027399299E-004  8.409904287219143E-006
  1.056957313071954E-004  8.409904287219143E-006
  1.104279214695473E-004  8.409904287219143E-006
  1.328393163876065E-004  8.409904287219143E-006
  1.706310572099606E-004  8.409904287219143E-006
  1.772028267802545E-004  8.409904287219143E-006
  2.511639224673837E-004  8.409904287219143E-006
  2.572605644359685E-004  8.409904287219143E-006
  3.102283839797788E-004  8.409904287219143E-006
  3.365046126610283E-004  8.409904287219143E-006
  3.542656435845738E-004  8.409904287219143E-006
  3.590204128134553E-004  8.409904287219143E-006
  4.152099780841207E-004  8.409904287219143E-006
  4.457012626606364E-004  8.409904287219143E-006
  4.557773298362522E-004  8.409904287219143E-006
  5.410361255848011E-004  8.409904287219143E-006
  5.964642780646839E-004  8.409904287219143E-006
  5.968745784515767E-004  8.409904287219143E-006
  6.226095666179739E-004  8.409904287219143E-006
  6.275112119707956E-004  8.409904287219143E-006
  6.605073372939207E-004  8.409904287219143E-006
  1.076726988035128E-003  8.409904287219143E-006
  1.078439691277928E-003  8.409904287219143E-006
  1.180295103214465E-003  8.409904287219143E-006
  1.180532597829785E-003  8.409904287219143E-006
  1.209030197897362E-003  8.409904287219143E-006
  1.306213589163325E-003  8.409904287219143E-006
  1.877093678066962E-003  8.409904287219143E-006
  2.002234605772565E-003  8.409904287219143E-006
  2.465559765672786E-003  8.409904287219143E-006
  3.853515548452532E-003  8.409904287219143E-006
  3.968152006398057E-003  8.409904287219143E-006
 cut=1d-8, nber non-redundant internal coords=          48
 Check on Eigenvals of non-red overlap matrix:
  0.00000841  0.00000977  0.00001136  0.00002135  0.00002167  0.00002453  0.00003219  0.00004439
  0.00004796  0.00004910  0.00005288  0.00006070  0.00007097  0.00009303  0.00010304  0.00010456
  0.00010465  0.00010570  0.00011043  0.00013284  0.00017063  0.00017720  0.00025116  0.00025726
  0.00031023  0.00033650  0.00035427  0.00035902  0.00041521  0.00044570  0.00045578  0.00054104
  0.00059646  0.00059687  0.00062261  0.00062751  0.00066051  0.00107673  0.00107844  0.00118030
  0.00118053  0.00120903  0.00130621  0.00187709  0.00200223  0.00246556  0.00385352  0.00396815
 Checking for correct frequencies
 recalc frequencies=
    -0.0   -0.0    0.0    0.0    0.0    0.0   87.2  102.0  157.6  166.6
   200.7  255.7  300.0  323.0  367.6  399.1  402.3  460.2  492.3  528.2
   536.2  595.7  626.3  676.6  681.5  682.1  699.2  756.7  761.5  805.2
   839.4  850.1  855.9  863.2  911.7 1001.1 1093.9 1110.8 1176.3 1230.1
  1231.0 1300.5 1367.5 1399.2 1449.8 1468.1 1546.6 1551.6 1569.9 1588.1
  3166.8 3171.8 3221.2 3221.4
 recalc symmetries=
     B2     B1     B2     A1     A2     B1     A2     B1     B1     A2 
     A1     B2     A2     A1     A1     B1     B2     A2     A1     B2 
     B1     B1     A2     B2     A1     B1     A2     B2     A2     A1 
     B2     A2     B1     B2     A1     A1     B2     A1     B2     B2 
     A1     A1     B2     A1     B2     A1     B2     A1     B2     A1 
     B2     A1     B2     A1 
 recalc freqs check OK
 Zero-point lengths:
 10.0000 10.0000 10.0000 10.0000 10.0000 10.0000 26.5462 24.5498 19.7502 19.2089
 17.5008 15.5031 14.3133 13.7940 12.9305 12.4103 12.3601 11.5570 11.1731 10.7864
 10.7057 10.1574  9.9063  9.5311  9.4963  9.4923  9.3756  9.0120  8.9837  8.7365
  8.5570  8.5028  8.4738  8.4381  8.2103  7.8353  7.4956  7.4383  7.2284  7.0685
  7.0658  6.8744  6.7040  6.6277  6.5110  6.4703  6.3038  6.2937  6.2568  6.2209
  4.4054  4.4019  4.3680  4.3679
 highest evec of mol 1
  0.0000  0.0001  0.0001
  0.0000  0.0000  0.0002
  0.0000 -0.0000  0.0002
  0.0000 -0.0001  0.0001
  0.0000  0.0021 -0.0013
  0.0000 -0.0008 -0.0018
  0.0000 -0.1704  0.1095
  0.0000  0.0240  0.0484
  0.0000  0.0037 -0.0034
  0.0000 -0.0037 -0.0034
  0.0000 -0.0240  0.0484
  0.0000  0.1704  0.1095
  0.0000  0.0008 -0.0018
  0.0000 -0.0021 -0.0013
  0.0000  0.5383 -0.3809
  0.0000 -0.0431 -0.1389
  0.0000  0.0431 -0.1389
  0.0000 -0.5383 -0.3809
 generating redundant internal coords
         300        3600          18
 Adding extra bonds for z output only
           8           6           6           8           6          16
           6           6           6           6           6           6
          16           6           1           1           1           1
 search for int coords
   1 str   2   1   1.245
   2 str   3   2   1.510
   3 str   4   3   1.245
   4 str   5   3   1.448
   5 str   6   5   1.757
   6 str   7   6   1.748
   7 str   8   7   1.364
   8 str   9   5   1.399
   9 str   9   8   1.431
  10 str  10   9   1.436
  11 str  11  10   1.431
  12 str  12  11   1.364
  13 str  13  12   1.748
  14 str  14   2   1.448
  15 str  14  10   1.399
  16 str  14  13   1.757
  17 str  15   7   1.080
  18 str  16   8   1.084
  19 str  17  11   1.084
  20 str  18  12   1.080
 nber stretches=          20
  21 ben   1   2   3
  22 prop tor   1   2   3   4
  23 prop tor   1   2   3   5
  24 ben   1   2  14
  25 prop tor   1   2  14  10
  26 prop tor   1   2  14  13
  27 ben   2   3   4
  28 ben   2   3   5
  29 prop tor   2   3   5   6
  30 prop tor   2   3   5   9
  31 ben   2  14  10
  32 ben   2  14  13
  33 ben   3   2  14
  34 prop tor   3   2  14  10
  35 prop tor   3   2  14  13
  36 ben   3   5   6
  37 prop tor   3   5   6   7
  38 ben   3   5   9
  39 prop tor   3   5   9   8
  40 prop tor   3   5   9  10
  41 ben   4   3   5
  42 prop tor   4   3   5   6
  43 prop tor   4   3   5   9
  44 ben   5   6   7
  45 prop tor   5   6   7   8
  46 prop tor   5   6   7  15
  47 ben   5   9   8
  48 ben   5   9  10
  49 prop tor   5   9  10  11
  50 prop tor   5   9  10  14
  51 ben   6   5   9
  52 prop tor   6   5   9   8
  53 prop tor   6   5   9  10
  54 ben   6   7   8
  55 prop tor   6   7   8   9
  56 prop tor   6   7   8  16
  57 ben   6   7  15
  58 ben   7   8   9
  59 prop tor   7   8   9   5
  60 prop tor   7   8   9  10
  61 ben   7   8  16
  62 ben   8   7  15
  63 ben   8   9  10
  64 prop tor   8   9  10  11
  65 prop tor   8   9  10  14
  66 prop tor   9   5   6   7
  67 ben   9   8  16
  68 ben   9  10  11
  69 prop tor   9  10  11  12
  70 prop tor   9  10  11  17
  71 ben   9  10  14
  72 prop tor   9  10  14   2
  73 prop tor   9  10  14  13
  74 ben  10  11  12
  75 prop tor  10  11  12  13
  76 prop tor  10  11  12  18
  77 ben  10  11  17
  78 ben  10  14  13
  79 ben  11  10  14
  80 prop tor  11  10  14   2
  81 prop tor  11  10  14  13
  82 ben  11  12  13
  83 prop tor  11  12  13  14
  84 ben  11  12  18
  85 ben  12  11  17
  86 ben  12  13  14
  87 prop tor  12  13  14   2
  88 prop tor  12  13  14  10
  89 ben  13  12  18
  90 prop tor  14   2   3   4
  91 prop tor  14   2   3   5
  92 prop tor  14  10  11  12
  93 prop tor  14  10  11  17
  94 prop tor  15   7   8   9
  95 prop tor  15   7   8  16
  96 prop tor  16   8   9   5
  97 prop tor  16   8   9  10
  98 prop tor  17  11  12  13
  99 prop tor  17  11  12  18
 100 prop tor  18  12  13  14
 nber bend=              32
 nber lin bend=           0
 nber prop tor=          48
 nber impr tor=           0
 nber tot redund int=         100
 Reading file: 
 ./conjugated_carbonyls_2_C-2S0.log                                             
                                          
  Entering Gaussian System, Link 0=g16                                          
  
 Gaussian format, type: g94, g98, g03= F F F
  #P Geom=AllCheck Guess=TCheck SCRF=Check Test GenChk UB3LYP/6-311G(d,p    
 energy type= B3LYP   
 Original G94 input coords:
  8  1.416228 -3.271858  0.000000
  6  0.773632 -2.188999 -0.000001
  6 -0.773632 -2.188999  0.000001
  8 -1.416228 -3.271858  0.000000
  6 -1.383311 -0.905886  0.000000
 16 -3.162489 -0.693988  0.000000
  6 -2.982540  1.074339  0.000000
  6 -1.630722  1.439146  0.000000
  6 -0.732751  0.358081  0.000000
  6  0.732751  0.358081  0.000000
  6  1.630722  1.439146  0.000000
  6  2.982540  1.074339  0.000000
 16  3.162489 -0.693988  0.000000
  6  1.383311 -0.905886  0.000000
  1 -3.855085  1.711467  0.000000
  1 -1.309192  2.477697  0.000000
  1  1.309192  2.477697  0.000000
  1  3.855085  1.711467  0.000000
 nber atoms=          18
  SCF Done:  E(UB3LYP) =  -1330.37676651     A.U. after    1 cycles             
  
          23          40 "  -1330.37676651"
After scan for Atom:   Atom  AN      X      Y      Z        X      Y      Z        X      Y      Z   
After scan for Atom:   Atom  AN      X      Y      Z        X      Y      Z        X      Y      Z   
After scan for Atom:   Atom  AN      X      Y      Z        X      Y      Z        X      Y      Z   
After scan for Atom:   Atom  AN      X      Y      Z        X      Y      Z        X      Y      Z   
After scan for Atom:   Atom  AN      X      Y      Z        X      Y      Z        X      Y      Z   
After scan for Atom:   Atom  AN      X      Y      Z        X      Y      Z        X      Y      Z   
After scan for Atom:   Atom  AN      X      Y      Z        X      Y      Z        X      Y      Z   
After scan for Atom:   Atom  AN      X      Y      Z        X      Y      Z        X      Y      Z   
After scan for Atom:   Atom  AN      X      Y      Z        X      Y      Z        X      Y      Z   
After scan for Atom:   Atom  AN      X      Y      Z        X      Y      Z        X      Y      Z   
After scan for Atom:   Atom  AN      X      Y      Z        X      Y      Z        X      Y      Z   
After scan for Atom:   Atom  AN      X      Y      Z        X      Y      Z        X      Y      Z   
After scan for Atom:   Atom  AN      X      Y      Z        X      Y      Z        X      Y      Z   
After scan for Atom:   Atom  AN      X      Y      Z        X      Y      Z        X      Y      Z   
After scan for Atom:   Atom  AN      X      Y      Z        X      Y      Z        X      Y      Z   
After scan for Atom:   Atom  AN      X      Y      Z        X      Y      Z        X      Y      Z   
 g94    frequencies=
     0.0    0.0    0.0    0.0    0.0    0.0 -207.0 -205.9   74.2  105.6
   133.2  151.7  202.3  253.0  279.1  316.2  336.0  352.1  357.4  384.8
   490.5  501.6  510.2  591.4  629.7  644.5  658.5  715.2  717.0  727.4
   751.1  761.5  802.1  847.5  852.6  978.6 1019.7 1079.6 1151.2 1236.0
  1236.9 1277.9 1299.8 1343.9 1368.2 1406.1 1460.8 1521.6 1556.3 1585.4
  3120.7 3126.9 3199.2 3201.1
 g94    symmetries=
                                                 A      A      A      A
       A      A      A      A      A      A      A      A      A      A
       A      A      A      A      A      A      A      A      A      A
       A      A      A      A      A      A      A      A      A      A
       A      A      A      A      A      A      A      A      A      A
       A      A      A      A
 atomic masses:
 15.9949 12.0000 12.0000 15.9949 12.0000 31.9721 12.0000 12.0000 12.0000 12.0000
 12.0000 12.0000 31.9721 12.0000  1.0078  1.0078  1.0078  1.0078
 looking for force constants in 
 ./conjugated_carbonyls_2_C-2S0.fchk                                            
  
 Cartesian Force Constants                  R   N=        1485                  
  
 n3=          54        1485
 g94-fc frequencies=
  -207.0 -205.9   -1.8   -0.0   -0.0   -0.0    1.9    2.4   74.3  105.6
   133.2  151.7  202.3  253.0  279.1  316.2  336.0  352.1  357.4  384.8
   490.5  501.6  510.3  591.4  629.7  644.5  658.5  715.2  717.0  727.4
   751.1  761.5  802.1  847.5  852.6  978.7 1019.7 1079.6 1151.3 1236.1
  1236.9 1277.9 1299.8 1343.9 1368.3 1406.2 1460.8 1521.6 1556.3 1585.4
  3120.7 3126.9 3199.2 3201.2
 at 99999: n3=          54
 symm operator            1 :  F  nop=           0
 symm operator            2 :  T  nop=           1
 symm operator            3 :  F  nop=           1
 symm operator            4 :  F  nop=           1
 symm operator            5 :  T  nop=           2
 symm operator            6 :  F  nop=           2
 symm operator            7 :  T  nop=           3
 swap           2           3
   1   1.41623   0.00000  -3.27186
   2   0.77363  -0.00000  -2.18900
   3  -0.77363   0.00000  -2.18900
   4  -1.41623   0.00000  -3.27186
   5  -1.38331   0.00000  -0.90589
   6  -3.16249   0.00000  -0.69399
   7  -2.98254   0.00000   1.07434
   8  -1.63072   0.00000   1.43915
   9  -0.73275   0.00000   0.35808
  10   0.73275   0.00000   0.35808
  11   1.63072   0.00000   1.43915
  12   2.98254   0.00000   1.07434
  13   3.16249   0.00000  -0.69399
  14   1.38331   0.00000  -0.90589
  15  -3.85508   0.00000   1.71147
  16  -1.30919   0.00000   2.47770
  17   1.30919   0.00000   2.47770
  18   3.85508   0.00000   1.71147
 swap           1           2
   1   0.00000   1.41623  -3.27186
   2  -0.00000   0.77363  -2.18900
   3   0.00000  -0.77363  -2.18900
   4   0.00000  -1.41623  -3.27186
   5   0.00000  -1.38331  -0.90589
   6   0.00000  -3.16249  -0.69399
   7   0.00000  -2.98254   1.07434
   8   0.00000  -1.63072   1.43915
   9   0.00000  -0.73275   0.35808
  10   0.00000   0.73275   0.35808
  11   0.00000   1.63072   1.43915
  12   0.00000   2.98254   1.07434
  13   0.00000   3.16249  -0.69399
  14   0.00000   1.38331  -0.90589
  15   0.00000  -3.85508   1.71147
  16   0.00000  -1.30919   2.47770
  17   0.00000   1.30919   2.47770
  18   0.00000   3.85508   1.71147
 The point group of the molecule is C2V
 enforcing symm op           1  jsymt=          -1          -1           1
 enforcing symm op           6  jsymt=           1          -1           1
 enforcing symm op           7  jsymt=          -1           1           1
 cartesian coord symmetries:
 A1 :   18 A2 :    9 B1 :    9 B2 :   18
 Symmetry rotation matrix:
   0.00000   0.00000   1.00000
  -1.00000   0.00000   0.00000
   0.00000  -1.00000   0.00000

 Projecting out zero-frequency components
 generating redundant internal coords
         300        3600          18
 search for int coords
   1 str   2   1   1.259
   2 str   3   2   1.547
   3 str   4   3   1.259
   4 str   5   3   1.421
   5 str   6   5   1.792
   6 str   7   6   1.777
   7 str   8   7   1.400
   8 str   9   5   1.422
   9 str   9   8   1.405
  10 str  10   9   1.466
  11 str  11  10   1.405
  12 str  12  11   1.400
  13 str  13  12   1.777
  14 str  14   2   1.421
  15 str  14  10   1.422
  16 str  14  13   1.792
  17 str  15   7   1.080
  18 str  16   8   1.087
  19 str  17  11   1.087
  20 str  18  12   1.080
 nber stretches=          20
  21 ben   1   2   3
  22 prop tor   1   2   3   4
  23 prop tor   1   2   3   5
  24 ben   1   2  14
  25 prop tor   1   2  14  10
  26 prop tor   1   2  14  13
  27 ben   2   3   4
  28 ben   2   3   5
  29 prop tor   2   3   5   6
  30 prop tor   2   3   5   9
  31 ben   2  14  10
  32 ben   2  14  13
  33 ben   3   2  14
  34 prop tor   3   2  14  10
  35 prop tor   3   2  14  13
  36 ben   3   5   6
  37 prop tor   3   5   6   7
  38 ben   3   5   9
  39 prop tor   3   5   9   8
  40 prop tor   3   5   9  10
  41 ben   4   3   5
  42 prop tor   4   3   5   6
  43 prop tor   4   3   5   9
  44 ben   5   6   7
  45 prop tor   5   6   7   8
  46 prop tor   5   6   7  15
  47 ben   5   9   8
  48 ben   5   9  10
  49 prop tor   5   9  10  11
  50 prop tor   5   9  10  14
  51 ben   6   5   9
  52 prop tor   6   5   9   8
  53 prop tor   6   5   9  10
  54 ben   6   7   8
  55 prop tor   6   7   8   9
  56 prop tor   6   7   8  16
  57 ben   6   7  15
  58 ben   7   8   9
  59 prop tor   7   8   9   5
  60 prop tor   7   8   9  10
  61 ben   7   8  16
  62 ben   8   7  15
  63 ben   8   9  10
  64 prop tor   8   9  10  11
  65 prop tor   8   9  10  14
  66 prop tor   9   5   6   7
  67 ben   9   8  16
  68 ben   9  10  11
  69 prop tor   9  10  11  12
  70 prop tor   9  10  11  17
  71 ben   9  10  14
  72 prop tor   9  10  14   2
  73 prop tor   9  10  14  13
  74 ben  10  11  12
  75 prop tor  10  11  12  13
  76 prop tor  10  11  12  18
  77 ben  10  11  17
  78 ben  10  14  13
  79 ben  11  10  14
  80 prop tor  11  10  14   2
  81 prop tor  11  10  14  13
  82 ben  11  12  13
  83 prop tor  11  12  13  14
  84 ben  11  12  18
  85 ben  12  11  17
  86 ben  12  13  14
  87 prop tor  12  13  14   2
  88 prop tor  12  13  14  10
  89 ben  13  12  18
  90 prop tor  14   2   3   4
  91 prop tor  14   2   3   5
  92 prop tor  14  10  11  12
  93 prop tor  14  10  11  17
  94 prop tor  15   7   8   9
  95 prop tor  15   7   8  16
  96 prop tor  16   8   9   5
  97 prop tor  16   8   9  10
  98 prop tor  17  11  12  13
  99 prop tor  17  11  12  18
 100 prop tor  18  12  13  14
 nber bend=              32
 nber lin bend=           0
 nber prop tor=          48
 nber impr tor=           0
 nber tot redund int=         100
 Eigenvalues of G in red int coords
    Gval -0.00000000 -0.00000000 -0.00000000 -0.00000000 -0.00000000 -0.00000000 -0.00000000 -0.00000000
    Gval -0.00000000 -0.00000000 -0.00000000 -0.00000000 -0.00000000 -0.00000000 -0.00000000 -0.00000000
    Gval -0.00000000 -0.00000000 -0.00000000 -0.00000000 -0.00000000 -0.00000000 -0.00000000 -0.00000000
    Gval -0.00000000  0.00000000  0.00000000  0.00000000  0.00000000  0.00000000  0.00000000  0.00000000
    Gval  0.00000000  0.00000000  0.00000000  0.00000000  0.00000000  0.00000000  0.00000000  0.00000000
    Gval  0.00000000  0.00000000  0.00000000  0.00000000  0.00000000  0.00000000  0.00000000  0.00000000
    Gval  0.00000000  0.00000000  0.00000000  0.00000000  0.00000831  0.00000975  0.00001130  0.00002112
    Gval  0.00002155  0.00002438  0.00003204  0.00004272  0.00004795  0.00004892  0.00005202  0.00006046
    Gval  0.00007060  0.00009247  0.00010249  0.00010363  0.00010375  0.00010381  0.00010888  0.00013188
    Gval  0.00016461  0.00017470  0.00024934  0.00025214  0.00031260  0.00032590  0.00034695  0.00034787
    Gval  0.00041505  0.00044760  0.00044850  0.00052027  0.00059645  0.00059681  0.00062212  0.00062685
    Gval  0.00067717  0.00107484  0.00107662  0.00117174  0.00117196  0.00119649  0.00131697  0.00187261
    Gval  0.00201917  0.00246262  0.00381721  0.00392284
  8.308361455665928E-006  8.308361455665928E-006
  9.748249595780878E-006  8.308361455665928E-006
  1.129866624240642E-005  8.308361455665928E-006
  2.112114138800390E-005  8.308361455665928E-006
  2.154582424972374E-005  8.308361455665928E-006
  2.438228560451012E-005  8.308361455665928E-006
  3.204161590251559E-005  8.308361455665928E-006
  4.271619827636598E-005  8.308361455665928E-006
  4.795340404956103E-005  8.308361455665928E-006
  4.892256084300822E-005  8.308361455665928E-006
  5.202212688074578E-005  8.308361455665928E-006
  6.046134737285904E-005  8.308361455665928E-006
  7.060333486155841E-005  8.308361455665928E-006
  9.246665625150051E-005  8.308361455665928E-006
  1.024874469766440E-004  8.308361455665928E-006
  1.036305588624290E-004  8.308361455665928E-006
  1.037523305617270E-004  8.308361455665928E-006
  1.038125504743233E-004  8.308361455665928E-006
  1.088826686234870E-004  8.308361455665928E-006
  1.318753667101610E-004  8.308361455665928E-006
  1.646149424949496E-004  8.308361455665928E-006
  1.747034691418149E-004  8.308361455665928E-006
  2.493381979575597E-004  8.308361455665928E-006
  2.521389604360377E-004  8.308361455665928E-006
  3.126007091954964E-004  8.308361455665928E-006
  3.258956759110179E-004  8.308361455665928E-006
  3.469450193024597E-004  8.308361455665928E-006
  3.478669518297125E-004  8.308361455665928E-006
  4.150450370404325E-004  8.308361455665928E-006
  4.475972597712635E-004  8.308361455665928E-006
  4.485021159742634E-004  8.308361455665928E-006
  5.202671099213190E-004  8.308361455665928E-006
  5.964484752201268E-004  8.308361455665928E-006
  5.968104606245768E-004  8.308361455665928E-006
  6.221211124867441E-004  8.308361455665928E-006
  6.268451550329885E-004  8.308361455665928E-006
  6.771670165208006E-004  8.308361455665928E-006
  1.074837110316692E-003  8.308361455665928E-006
  1.076622877824862E-003  8.308361455665928E-006
  1.171743502507198E-003  8.308361455665928E-006
  1.171955026806705E-003  8.308361455665928E-006
  1.196494403380047E-003  8.308361455665928E-006
  1.316971946873034E-003  8.308361455665928E-006
  1.872608386104141E-003  8.308361455665928E-006
  2.019174799342503E-003  8.308361455665928E-006
  2.462622443798316E-003  8.308361455665928E-006
  3.817210378071880E-003  8.308361455665928E-006
  3.922841505498167E-003  8.308361455665928E-006
 cut=1d-8, nber non-redundant internal coords=          48
 Check on Eigenvals of non-red overlap matrix:
  0.00000831  0.00000975  0.00001130  0.00002112  0.00002155  0.00002438  0.00003204  0.00004272
  0.00004795  0.00004892  0.00005202  0.00006046  0.00007060  0.00009247  0.00010249  0.00010363
  0.00010375  0.00010381  0.00010888  0.00013188  0.00016461  0.00017470  0.00024934  0.00025214
  0.00031260  0.00032590  0.00034695  0.00034787  0.00041505  0.00044760  0.00044850  0.00052027
  0.00059645  0.00059681  0.00062212  0.00062685  0.00067717  0.00107484  0.00107662  0.00117174
  0.00117196  0.00119649  0.00131697  0.00187261  0.00201917  0.00246262  0.00381721  0.00392284
 Checking for correct frequencies
 recalc frequencies=
  -207.0 -205.9   -0.0   -0.0    0.0    0.0    0.0    0.0   74.3  105.6
   133.2  151.7  202.3  253.0  279.1  316.2  336.0  352.1  357.4  384.8
   490.5  501.6  510.3  591.4  629.7  644.5  658.5  715.2  717.0  727.4
   751.1  761.5  802.1  847.5  852.6  978.7 1019.7 1079.6 1151.3 1236.1
  1236.9 1277.9 1299.8 1343.9 1368.3 1406.2 1460.8 1521.6 1556.3 1585.4
  3120.7 3126.9 3199.2 3201.2
 recalc symmetries=
     A2     B1     A1     B1     B2     B2     A2     B1     A2     B1 
     A2     B1     A1     B2     A2     A1     B1     A2     A1     B2 
     A1     B2     B1     B1     A2     B2     A1     A2     B1     B2 
     A2     A1     B2     B2     A1     A1     B2     A1     B2     A1 
     B2     A1     B2     A1     A1     B2     B2     A1     A1     B2 
     B2     A1     B2     A1 
 recalc freqs check OK
 Zero-point lengths:
 17.2317 17.2787 10.0000 10.0000 10.0000 10.0000 10.0000 10.0000 28.7704 24.1283
 21.4772 20.1278 17.4290 15.5871 14.8391 13.9420 13.5254 13.2118 13.1133 12.6378
 11.1939 11.0693 10.9749 10.1939  9.8795  9.7651  9.6608  9.2699  9.2585  9.1919
  9.0457  8.9836  8.7535  8.5159  8.4901  7.9247  7.7635  7.5451  7.3065  7.0514
  7.0490  6.9349  6.8763  6.7625  6.7021  6.6111  6.4863  6.3553  6.2841  6.2262
  4.4378  4.4334  4.3830  4.3817
 highest evec of mol 2
  0.0000  0.0002  0.0000
  0.0000  0.0002  0.0002
  0.0000 -0.0002  0.0002
  0.0000 -0.0002  0.0000
  0.0000  0.0015 -0.0011
  0.0000 -0.0008 -0.0016
  0.0000 -0.1679  0.1119
  0.0000  0.0188  0.0355
  0.0000  0.0022 -0.0020
  0.0000 -0.0022 -0.0020
  0.0000 -0.0188  0.0355
  0.0000  0.1679  0.1119
  0.0000  0.0008 -0.0016
  0.0000 -0.0015 -0.0011
  0.0000  0.5424 -0.3905
  0.0000 -0.0332 -0.0995
  0.0000  0.0332 -0.0995
  0.0000 -0.5424 -0.3905
 Enter nber and list of atoms to keep of mol #2
 keep list:          18           1           2           3           4
           5           6           7           8           9          10
          11          12          13          14          15          16
          17          18
 reordering atoms
           1   1.41622800000000     
           2  0.773632000000017     
           3 -0.773632000000017     
           4  -1.41622800000000     
           5  -1.38331100000000     
           6  -3.16248900000000     
           7  -2.98254000000000     
           8  -1.63072200000000     
           9 -0.732751000000000     
          10  0.732751000000000     
          11   1.63072200000000     
          12   2.98254000000000     
          13   3.16248900000000     
          14   1.38331100000000     
          15  -3.85508500000000     
          16  -1.30919200000000     
          17   1.30919200000000     
          18   3.85508500000000     
           1           1
           2           2
           3           3
           4           4
           5           5
           6           6
           7           7
           8           8
           9           9
          10          10
          11          11
          12          12
          13          13
          14          14
          15          15
          16          16
          17          17
          18          18
 initial cartes coords mol 1
   8   0.00000   2.53974  -1.42105
   6  -0.00000   1.48736  -0.75523
   6   0.00000   1.48736   0.75523
   8   0.00000   2.53974   1.42105
   6   0.00000   0.17786   1.37267
  16   0.00000  -0.02613   3.11737
   6  -0.00000  -1.76536   2.94032
   6  -0.00000  -2.15725   1.63395
   6   0.00000  -1.05824   0.71803
   6   0.00000  -1.05824  -0.71803
   6  -0.00000  -2.15725  -1.63394
   6   0.00000  -1.76536  -2.94032
  16   0.00000  -0.02613  -3.11737
   6   0.00000   0.17786  -1.37267
   1  -0.00000  -2.39381   3.81889
   1  -0.00000  -3.19742   1.32817
   1  -0.00000  -3.19742  -1.32817
   1   0.00000  -2.39381  -3.81888
 initial cartes coords mol 2
   8   0.00000   2.55681   1.41623
   6  -0.00000   1.47396   0.77363
   6   0.00000   1.47396  -0.77363
   8  -0.00000   2.55681  -1.41623
   6  -0.00000   0.19084  -1.38331
  16  -0.00000  -0.02106  -3.16249
   6  -0.00000  -1.78938  -2.98254
   6  -0.00000  -2.15419  -1.63072
   6  -0.00000  -1.07312  -0.73275
   6   0.00000  -1.07312   0.73275
   6   0.00000  -2.15419   1.63072
   6   0.00000  -1.78938   2.98254
  16   0.00000  -0.02106   3.16249
   6   0.00000   0.19084   1.38331
   1  -0.00000  -2.42651  -3.85508
   1  -0.00000  -3.19274  -1.30919
   1   0.00000  -3.19274   1.30919
   1   0.00000  -2.42651   3.85508
 loop 1 0
 mod cartes coords mol 2
   8   0.00000   2.55681   1.41623
   6  -0.00000   1.47396   0.77363
   6   0.00000   1.47396  -0.77363
   8  -0.00000   2.55681  -1.41623
   6  -0.00000   0.19084  -1.38331
  16  -0.00000  -0.02106  -3.16249
   6  -0.00000  -1.78938  -2.98254
   6  -0.00000  -2.15419  -1.63072
   6  -0.00000  -1.07312  -0.73275
   6   0.00000  -1.07312   0.73275
   6   0.00000  -2.15419   1.63072
   6   0.00000  -1.78938   2.98254
  16   0.00000  -0.02106   3.16249
   6   0.00000   0.19084   1.38331
   1  -0.00000  -2.42651  -3.85508
   1  -0.00000  -3.19274  -1.30919
   1   0.00000  -3.19274   1.30919
   1   0.00000  -2.42651   3.85508
 read in order, maxerr=  7.67 for atom  15
 loop 1 1
 mod cartes coords mol 2
   8  -0.00000   2.55681   1.41623
   6   0.00000   1.47396   0.77363
   6  -0.00000   1.47396  -0.77363
   8   0.00000   2.55681  -1.41623
   6   0.00000   0.19084  -1.38331
  16   0.00000  -0.02106  -3.16249
   6   0.00000  -1.78938  -2.98254
   6   0.00000  -2.15419  -1.63072
   6   0.00000  -1.07312  -0.73275
   6  -0.00000  -1.07312   0.73275
   6  -0.00000  -2.15419   1.63072
   6  -0.00000  -1.78938   2.98254
  16  -0.00000  -0.02106   3.16249
   6  -0.00000   0.19084   1.38331
   1   0.00000  -2.42651  -3.85508
   1   0.00000  -3.19274  -1.30919
   1  -0.00000  -3.19274   1.30919
   1  -0.00000  -2.42651   3.85508
 read in order, maxerr=  7.67 for atom  15
 loop 1 2
 mod cartes coords mol 2
   8   0.00000  -2.55681   1.41623
   6  -0.00000  -1.47396   0.77363
   6   0.00000  -1.47396  -0.77363
   8  -0.00000  -2.55681  -1.41623
   6  -0.00000  -0.19084  -1.38331
  16  -0.00000   0.02106  -3.16249
   6  -0.00000   1.78938  -2.98254
   6  -0.00000   2.15419  -1.63072
   6  -0.00000   1.07312  -0.73275
   6   0.00000   1.07312   0.73275
   6   0.00000   2.15419   1.63072
   6   0.00000   1.78938   2.98254
  16   0.00000   0.02106   3.16249
   6   0.00000  -0.19084   1.38331
   1  -0.00000   2.42651  -3.85508
   1  -0.00000   3.19274  -1.30919
   1   0.00000   3.19274   1.30919
   1   0.00000   2.42651   3.85508
 read in order, maxerr=  9.06 for atom  18
 loop 1 3
 mod cartes coords mol 2
   8  -0.00000  -2.55681   1.41623
   6   0.00000  -1.47396   0.77363
   6  -0.00000  -1.47396  -0.77363
   8   0.00000  -2.55681  -1.41623
   6   0.00000  -0.19084  -1.38331
  16   0.00000   0.02106  -3.16249
   6   0.00000   1.78938  -2.98254
   6   0.00000   2.15419  -1.63072
   6   0.00000   1.07312  -0.73275
   6  -0.00000   1.07312   0.73275
   6  -0.00000   2.15419   1.63072
   6  -0.00000   1.78938   2.98254
  16  -0.00000   0.02106   3.16249
   6  -0.00000  -0.19084   1.38331
   1   0.00000   2.42651  -3.85508
   1   0.00000   3.19274  -1.30919
   1  -0.00000   3.19274   1.30919
   1  -0.00000   2.42651   3.85508
 read in order, maxerr=  9.06 for atom  15
 loop 1 4
 mod cartes coords mol 2
   8   0.00000   2.55681  -1.41623
   6  -0.00000   1.47396  -0.77363
   6   0.00000   1.47396   0.77363
   8  -0.00000   2.55681   1.41623
   6  -0.00000   0.19084   1.38331
  16  -0.00000  -0.02106   3.16249
   6  -0.00000  -1.78938   2.98254
   6  -0.00000  -2.15419   1.63072
   6  -0.00000  -1.07312   0.73275
   6   0.00000  -1.07312  -0.73275
   6   0.00000  -2.15419  -1.63072
   6   0.00000  -1.78938  -2.98254
  16   0.00000  -0.02106  -3.16249
   6   0.00000   0.19084  -1.38331
   1  -0.00000  -2.42651   3.85508
   1  -0.00000  -3.19274   1.30919
   1   0.00000  -3.19274  -1.30919
   1   0.00000  -2.42651  -3.85508
 read in order, maxerr=  0.05 for atom  18
 final axis swaps:           1           1          -1
 final xyz swap pattern=           1
 reorder list:
   1   2   3   4   5   6   7   8   9  10  11  12  13  14  15  16  17  18
 axis signs=           1           1          -1
  8     0.000000  2.556814 -1.416228     0.000000  2.539738 -1.421050
  6    -0.000001  1.473955 -0.773632    -0.000001  1.487362 -0.755228
  6     0.000001  1.473955  0.773632     0.000000  1.487362  0.755228
  8    -0.000000  2.556814  1.416228     0.000000  2.539738  1.421050
  6    -0.000000  0.190842  1.383311     0.000000  0.177855  1.372671
 16    -0.000000 -0.021056  3.162489     0.000000 -0.026127  3.117366
  6    -0.000000 -1.789383  2.982540    -0.000000 -1.765363  2.940316
  6    -0.000000 -2.154190  1.630722    -0.000000 -2.157250  1.633945
  6    -0.000000 -1.073125  0.732751     0.000000 -1.058236  0.718027
  6     0.000000 -1.073125 -0.732751     0.000000 -1.058236 -0.718027
  6     0.000000 -2.154190 -1.630722    -0.000000 -2.157250 -1.633945
  6     0.000000 -1.789383 -2.982540     0.000000 -1.765363 -2.940316
 16     0.000000 -0.021056 -3.162489     0.000000 -0.026127 -3.117366
  6     0.000000  0.190842 -1.383311     0.000000  0.177855 -1.372671
  1    -0.000000 -2.426511  3.855085    -0.000000 -2.393814  3.818885
  1    -0.000000 -3.192741  1.309192    -0.000000 -3.197423  1.328167
  1     0.000000 -3.192741 -1.309192    -0.000000 -3.197423 -1.328167
  1     0.000000 -2.426511 -3.855085     0.000000 -2.393814 -3.818885
 generating redundant internal coords
         300        3600          18
 Adding extra bonds for z output only
           8           6           6           8           6          16
           6           6           6           6           6           6
          16           6           1           1           1           1
 search for int coords
   1 str   2   1   1.259
   2 str   3   2   1.547
   3 str   4   3   1.259
   4 str   5   3   1.421
   5 str   6   5   1.792
   6 str   7   6   1.777
   7 str   8   7   1.400
   8 str   9   5   1.422
   9 str   9   8   1.405
  10 str  10   9   1.466
  11 str  11  10   1.405
  12 str  12  11   1.400
  13 str  13  12   1.777
  14 str  14   2   1.421
  15 str  14  10   1.422
  16 str  14  13   1.792
  17 str  15   7   1.080
  18 str  16   8   1.087
  19 str  17  11   1.087
  20 str  18  12   1.080
 nber stretches=          20
  21 ben   1   2   3
  22 prop tor   1   2   3   4
  23 prop tor   1   2   3   5
  24 ben   1   2  14
  25 prop tor   1   2  14  10
  26 prop tor   1   2  14  13
  27 ben   2   3   4
  28 ben   2   3   5
  29 prop tor   2   3   5   6
  30 prop tor   2   3   5   9
  31 ben   2  14  10
  32 ben   2  14  13
  33 ben   3   2  14
  34 prop tor   3   2  14  10
  35 prop tor   3   2  14  13
  36 ben   3   5   6
  37 prop tor   3   5   6   7
  38 ben   3   5   9
  39 prop tor   3   5   9   8
  40 prop tor   3   5   9  10
  41 ben   4   3   5
  42 prop tor   4   3   5   6
  43 prop tor   4   3   5   9
  44 ben   5   6   7
  45 prop tor   5   6   7   8
  46 prop tor   5   6   7  15
  47 ben   5   9   8
  48 ben   5   9  10
  49 prop tor   5   9  10  11
  50 prop tor   5   9  10  14
  51 ben   6   5   9
  52 prop tor   6   5   9   8
  53 prop tor   6   5   9  10
  54 ben   6   7   8
  55 prop tor   6   7   8   9
  56 prop tor   6   7   8  16
  57 ben   6   7  15
  58 ben   7   8   9
  59 prop tor   7   8   9   5
  60 prop tor   7   8   9  10
  61 ben   7   8  16
  62 ben   8   7  15
  63 ben   8   9  10
  64 prop tor   8   9  10  11
  65 prop tor   8   9  10  14
  66 prop tor   9   5   6   7
  67 ben   9   8  16
  68 ben   9  10  11
  69 prop tor   9  10  11  12
  70 prop tor   9  10  11  17
  71 ben   9  10  14
  72 prop tor   9  10  14   2
  73 prop tor   9  10  14  13
  74 ben  10  11  12
  75 prop tor  10  11  12  13
  76 prop tor  10  11  12  18
  77 ben  10  11  17
  78 ben  10  14  13
  79 ben  11  10  14
  80 prop tor  11  10  14   2
  81 prop tor  11  10  14  13
  82 ben  11  12  13
  83 prop tor  11  12  13  14
  84 ben  11  12  18
  85 ben  12  11  17
  86 ben  12  13  14
  87 prop tor  12  13  14   2
  88 prop tor  12  13  14  10
  89 ben  13  12  18
  90 prop tor  14   2   3   4
  91 prop tor  14   2   3   5
  92 prop tor  14  10  11  12
  93 prop tor  14  10  11  17
  94 prop tor  15   7   8   9
  95 prop tor  15   7   8  16
  96 prop tor  16   8   9   5
  97 prop tor  16   8   9  10
  98 prop tor  17  11  12  13
  99 prop tor  17  11  12  18
 100 prop tor  18  12  13  14
 nber bend=              32
 nber lin bend=           0
 nber prop tor=          48
 nber impr tor=           0
 nber tot redund int=         100
 generating redundant internal coords
         300        3600          18
 search for int coords
   1 str   2   1   1.245
   2 str   3   2   1.510
   3 str   4   3   1.245
   4 str   5   3   1.448
   5 str   6   5   1.757
   6 str   7   6   1.748
   7 str   8   7   1.364
   8 str   9   5   1.399
   9 str   9   8   1.431
  10 str  10   9   1.436
  11 str  11  10   1.431
  12 str  12  11   1.364
  13 str  13  12   1.748
  14 str  14   2   1.448
  15 str  14  10   1.399
  16 str  14  13   1.757
  17 str  15   7   1.080
  18 str  16   8   1.084
  19 str  17  11   1.084
  20 str  18  12   1.080
 nber stretches=          20
  21 ben   1   2   3
  22 prop tor   1   2   3   4
  23 prop tor   1   2   3   5
  24 ben   1   2  14
  25 prop tor   1   2  14  10
  26 prop tor   1   2  14  13
  27 ben   2   3   4
  28 ben   2   3   5
  29 prop tor   2   3   5   6
  30 prop tor   2   3   5   9
  31 ben   2  14  10
  32 ben   2  14  13
  33 ben   3   2  14
  34 prop tor   3   2  14  10
  35 prop tor   3   2  14  13
  36 ben   3   5   6
  37 prop tor   3   5   6   7
  38 ben   3   5   9
  39 prop tor   3   5   9   8
  40 prop tor   3   5   9  10
  41 ben   4   3   5
  42 prop tor   4   3   5   6
  43 prop tor   4   3   5   9
  44 ben   5   6   7
  45 prop tor   5   6   7   8
  46 prop tor   5   6   7  15
  47 ben   5   9   8
  48 ben   5   9  10
  49 prop tor   5   9  10  11
  50 prop tor   5   9  10  14
  51 ben   6   5   9
  52 prop tor   6   5   9   8
  53 prop tor   6   5   9  10
  54 ben   6   7   8
  55 prop tor   6   7   8   9
  56 prop tor   6   7   8  16
  57 ben   6   7  15
  58 ben   7   8   9
  59 prop tor   7   8   9   5
  60 prop tor   7   8   9  10
  61 ben   7   8  16
  62 ben   8   7  15
  63 ben   8   9  10
  64 prop tor   8   9  10  11
  65 prop tor   8   9  10  14
  66 prop tor   9   5   6   7
  67 ben   9   8  16
  68 ben   9  10  11
  69 prop tor   9  10  11  12
  70 prop tor   9  10  11  17
  71 ben   9  10  14
  72 prop tor   9  10  14   2
  73 prop tor   9  10  14  13
  74 ben  10  11  12
  75 prop tor  10  11  12  13
  76 prop tor  10  11  12  18
  77 ben  10  11  17
  78 ben  10  14  13
  79 ben  11  10  14
  80 prop tor  11  10  14   2
  81 prop tor  11  10  14  13
  82 ben  11  12  13
  83 prop tor  11  12  13  14
  84 ben  11  12  18
  85 ben  12  11  17
  86 ben  12  13  14
  87 prop tor  12  13  14   2
  88 prop tor  12  13  14  10
  89 ben  13  12  18
  90 prop tor  14   2   3   4
  91 prop tor  14   2   3   5
  92 prop tor  14  10  11  12
  93 prop tor  14  10  11  17
  94 prop tor  15   7   8   9
  95 prop tor  15   7   8  16
  96 prop tor  16   8   9   5
  97 prop tor  16   8   9  10
  98 prop tor  17  11  12  13
  99 prop tor  17  11  12  18
 100 prop tor  18  12  13  14
 nber bend=              32
 nber lin bend=           0
 nber prop tor=          48
 nber impr tor=           0
 nber tot redund int=         100
 Eigenvalues of G in red int coords
    Gval -0.00000000 -0.00000000 -0.00000000 -0.00000000 -0.00000000 -0.00000000 -0.00000000 -0.00000000
    Gval -0.00000000 -0.00000000 -0.00000000 -0.00000000 -0.00000000 -0.00000000 -0.00000000 -0.00000000
    Gval -0.00000000 -0.00000000 -0.00000000 -0.00000000 -0.00000000 -0.00000000 -0.00000000 -0.00000000
    Gval -0.00000000 -0.00000000 -0.00000000  0.00000000  0.00000000  0.00000000  0.00000000  0.00000000
    Gval  0.00000000  0.00000000  0.00000000  0.00000000  0.00000000  0.00000000  0.00000000  0.00000000
    Gval  0.00000000  0.00000000  0.00000000  0.00000000  0.00000000  0.00000000  0.00000000  0.00000000
    Gval  0.00000000  0.00000000  0.00000000  0.00000000  0.00000841  0.00000977  0.00001136  0.00002135
    Gval  0.00002167  0.00002453  0.00003219  0.00004439  0.00004796  0.00004910  0.00005288  0.00006070
    Gval  0.00007097  0.00009303  0.00010304  0.00010456  0.00010465  0.00010570  0.00011043  0.00013284
    Gval  0.00017063  0.00017720  0.00025116  0.00025726  0.00031023  0.00033650  0.00035427  0.00035902
    Gval  0.00041521  0.00044570  0.00045578  0.00054104  0.00059646  0.00059687  0.00062261  0.00062751
    Gval  0.00066051  0.00107673  0.00107844  0.00118030  0.00118053  0.00120903  0.00130621  0.00187709
    Gval  0.00200223  0.00246556  0.00385352  0.00396815
  8.409904287219174E-006  8.409904287219174E-006
  9.771678265783861E-006  8.409904287219174E-006
  1.135900844480283E-005  8.409904287219174E-006
  2.135467049387030E-005  8.409904287219174E-006
  2.166630069512571E-005  8.409904287219174E-006
  2.453312843977546E-005  8.409904287219174E-006
  3.219048663653018E-005  8.409904287219174E-006
  4.439418238432900E-005  8.409904287219174E-006
  4.796218250987511E-005  8.409904287219174E-006
  4.910314123948207E-005  8.409904287219174E-006
  5.288038277220997E-005  8.409904287219174E-006
  6.070081268295291E-005  8.409904287219174E-006
  7.097448714744418E-005  8.409904287219174E-006
  9.302612423423786E-005  8.409904287219174E-006
  1.030364128633822E-004  8.409904287219174E-006
  1.045592841522474E-004  8.409904287219174E-006
  1.046495027399297E-004  8.409904287219174E-006
  1.056957313071951E-004  8.409904287219174E-006
  1.104279214695473E-004  8.409904287219174E-006
  1.328393163876063E-004  8.409904287219174E-006
  1.706310572099607E-004  8.409904287219174E-006
  1.772028267802546E-004  8.409904287219174E-006
  2.511639224673838E-004  8.409904287219174E-006
  2.572605644359683E-004  8.409904287219174E-006
  3.102283839797782E-004  8.409904287219174E-006
  3.365046126610285E-004  8.409904287219174E-006
  3.542656435845739E-004  8.409904287219174E-006
  3.590204128134565E-004  8.409904287219174E-006
  4.152099780841208E-004  8.409904287219174E-006
  4.457012626606367E-004  8.409904287219174E-006
  4.557773298362519E-004  8.409904287219174E-006
  5.410361255847988E-004  8.409904287219174E-006
  5.964642780646834E-004  8.409904287219174E-006
  5.968745784515777E-004  8.409904287219174E-006
  6.226095666179728E-004  8.409904287219174E-006
  6.275112119707955E-004  8.409904287219174E-006
  6.605073372939202E-004  8.409904287219174E-006
  1.076726988035126E-003  8.409904287219174E-006
  1.078439691277927E-003  8.409904287219174E-006
  1.180295103214465E-003  8.409904287219174E-006
  1.180532597829786E-003  8.409904287219174E-006
  1.209030197897364E-003  8.409904287219174E-006
  1.306213589163326E-003  8.409904287219174E-006
  1.877093678066961E-003  8.409904287219174E-006
  2.002234605772565E-003  8.409904287219174E-006
  2.465559765672786E-003  8.409904287219174E-006
  3.853515548452528E-003  8.409904287219174E-006
  3.968152006398056E-003  8.409904287219174E-006
 cut=1d-8, nber non-redundant internal coords=          48
 Check on Eigenvals of non-red overlap matrix:
  0.00000841  0.00000977  0.00001136  0.00002135  0.00002167  0.00002453  0.00003219  0.00004439
  0.00004796  0.00004910  0.00005288  0.00006070  0.00007097  0.00009303  0.00010304  0.00010456
  0.00010465  0.00010570  0.00011043  0.00013284  0.00017063  0.00017720  0.00025116  0.00025726
  0.00031023  0.00033650  0.00035427  0.00035902  0.00041521  0.00044570  0.00045578  0.00054104
  0.00059646  0.00059687  0.00062261  0.00062751  0.00066051  0.00107673  0.00107844  0.00118030
  0.00118053  0.00120903  0.00130621  0.00187709  0.00200223  0.00246556  0.00385352  0.00396815
 generating redundant internal coords
         300        3600          18
 search for int coords
   1 str   2   1   1.259
   2 str   3   2   1.547
   3 str   4   3   1.259
   4 str   5   3   1.421
   5 str   6   5   1.792
   6 str   7   6   1.777
   7 str   8   7   1.400
   8 str   9   5   1.422
   9 str   9   8   1.405
  10 str  10   9   1.466
  11 str  11  10   1.405
  12 str  12  11   1.400
  13 str  13  12   1.777
  14 str  14   2   1.421
  15 str  14  10   1.422
  16 str  14  13   1.792
  17 str  15   7   1.080
  18 str  16   8   1.087
  19 str  17  11   1.087
  20 str  18  12   1.080
 nber stretches=          20
  21 ben   1   2   3
  22 prop tor   1   2   3   4
  23 prop tor   1   2   3   5
  24 ben   1   2  14
  25 prop tor   1   2  14  10
  26 prop tor   1   2  14  13
  27 ben   2   3   4
  28 ben   2   3   5
  29 prop tor   2   3   5   6
  30 prop tor   2   3   5   9
  31 ben   2  14  10
  32 ben   2  14  13
  33 ben   3   2  14
  34 prop tor   3   2  14  10
  35 prop tor   3   2  14  13
  36 ben   3   5   6
  37 prop tor   3   5   6   7
  38 ben   3   5   9
  39 prop tor   3   5   9   8
  40 prop tor   3   5   9  10
  41 ben   4   3   5
  42 prop tor   4   3   5   6
  43 prop tor   4   3   5   9
  44 ben   5   6   7
  45 prop tor   5   6   7   8
  46 prop tor   5   6   7  15
  47 ben   5   9   8
  48 ben   5   9  10
  49 prop tor   5   9  10  11
  50 prop tor   5   9  10  14
  51 ben   6   5   9
  52 prop tor   6   5   9   8
  53 prop tor   6   5   9  10
  54 ben   6   7   8
  55 prop tor   6   7   8   9
  56 prop tor   6   7   8  16
  57 ben   6   7  15
  58 ben   7   8   9
  59 prop tor   7   8   9   5
  60 prop tor   7   8   9  10
  61 ben   7   8  16
  62 ben   8   7  15
  63 ben   8   9  10
  64 prop tor   8   9  10  11
  65 prop tor   8   9  10  14
  66 prop tor   9   5   6   7
  67 ben   9   8  16
  68 ben   9  10  11
  69 prop tor   9  10  11  12
  70 prop tor   9  10  11  17
  71 ben   9  10  14
  72 prop tor   9  10  14   2
  73 prop tor   9  10  14  13
  74 ben  10  11  12
  75 prop tor  10  11  12  13
  76 prop tor  10  11  12  18
  77 ben  10  11  17
  78 ben  10  14  13
  79 ben  11  10  14
  80 prop tor  11  10  14   2
  81 prop tor  11  10  14  13
  82 ben  11  12  13
  83 prop tor  11  12  13  14
  84 ben  11  12  18
  85 ben  12  11  17
  86 ben  12  13  14
  87 prop tor  12  13  14   2
  88 prop tor  12  13  14  10
  89 ben  13  12  18
  90 prop tor  14   2   3   4
  91 prop tor  14   2   3   5
  92 prop tor  14  10  11  12
  93 prop tor  14  10  11  17
  94 prop tor  15   7   8   9
  95 prop tor  15   7   8  16
  96 prop tor  16   8   9   5
  97 prop tor  16   8   9  10
  98 prop tor  17  11  12  13
  99 prop tor  17  11  12  18
 100 prop tor  18  12  13  14
 nber bend=              32
 nber lin bend=           0
 nber prop tor=          48
 nber impr tor=           0
 nber tot redund int=         100
 Eigenvalues of G in red int coords
    Gval -0.00000000 -0.00000000 -0.00000000 -0.00000000 -0.00000000 -0.00000000 -0.00000000 -0.00000000
    Gval -0.00000000 -0.00000000 -0.00000000 -0.00000000 -0.00000000 -0.00000000 -0.00000000 -0.00000000
    Gval -0.00000000 -0.00000000 -0.00000000 -0.00000000 -0.00000000 -0.00000000 -0.00000000 -0.00000000
    Gval -0.00000000 -0.00000000 -0.00000000 -0.00000000  0.00000000  0.00000000  0.00000000  0.00000000
    Gval  0.00000000  0.00000000  0.00000000  0.00000000  0.00000000  0.00000000  0.00000000  0.00000000
    Gval  0.00000000  0.00000000  0.00000000  0.00000000  0.00000000  0.00000000  0.00000000  0.00000000
    Gval  0.00000000  0.00000000  0.00000000  0.00000000  0.00000831  0.00000975  0.00001130  0.00002112
    Gval  0.00002155  0.00002438  0.00003204  0.00004272  0.00004795  0.00004892  0.00005202  0.00006046
    Gval  0.00007060  0.00009247  0.00010249  0.00010363  0.00010375  0.00010381  0.00010888  0.00013188
    Gval  0.00016461  0.00017470  0.00024934  0.00025214  0.00031260  0.00032590  0.00034695  0.00034787
    Gval  0.00041505  0.00044760  0.00044850  0.00052027  0.00059645  0.00059681  0.00062212  0.00062685
    Gval  0.00067717  0.00107484  0.00107662  0.00117174  0.00117196  0.00119649  0.00131697  0.00187261
    Gval  0.00201917  0.00246262  0.00381721  0.00392284
  8.308361455665911E-006  8.308361455665911E-006
  9.748249595780868E-006  8.308361455665911E-006
  1.129866624240636E-005  8.308361455665911E-006
  2.112114138800388E-005  8.308361455665911E-006
  2.154582424972371E-005  8.308361455665911E-006
  2.438228560451005E-005  8.308361455665911E-006
  3.204161590251557E-005  8.308361455665911E-006
  4.271619827636616E-005  8.308361455665911E-006
  4.795340404956105E-005  8.308361455665911E-006
  4.892256084300824E-005  8.308361455665911E-006
  5.202212688074588E-005  8.308361455665911E-006
  6.046134737285912E-005  8.308361455665911E-006
  7.060333486155834E-005  8.308361455665911E-006
  9.246665625150049E-005  8.308361455665911E-006
  1.024874469766440E-004  8.308361455665911E-006
  1.036305588624294E-004  8.308361455665911E-006
  1.037523305617274E-004  8.308361455665911E-006
  1.038125504743233E-004  8.308361455665911E-006
  1.088826686234869E-004  8.308361455665911E-006
  1.318753667101610E-004  8.308361455665911E-006
  1.646149424949495E-004  8.308361455665911E-006
  1.747034691418148E-004  8.308361455665911E-006
  2.493381979575600E-004  8.308361455665911E-006
  2.521389604360380E-004  8.308361455665911E-006
  3.126007091954967E-004  8.308361455665911E-006
  3.258956759110177E-004  8.308361455665911E-006
  3.469450193024592E-004  8.308361455665911E-006
  3.478669518297120E-004  8.308361455665911E-006
  4.150450370404326E-004  8.308361455665911E-006
  4.475972597712642E-004  8.308361455665911E-006
  4.485021159742641E-004  8.308361455665911E-006
  5.202671099213203E-004  8.308361455665911E-006
  5.964484752201255E-004  8.308361455665911E-006
  5.968104606245753E-004  8.308361455665911E-006
  6.221211124867444E-004  8.308361455665911E-006
  6.268451550329876E-004  8.308361455665911E-006
  6.771670165207997E-004  8.308361455665911E-006
  1.074837110316691E-003  8.308361455665911E-006
  1.076622877824862E-003  8.308361455665911E-006
  1.171743502507199E-003  8.308361455665911E-006
  1.171955026806705E-003  8.308361455665911E-006
  1.196494403380044E-003  8.308361455665911E-006
  1.316971946873031E-003  8.308361455665911E-006
  1.872608386104140E-003  8.308361455665911E-006
  2.019174799342503E-003  8.308361455665911E-006
  2.462622443798318E-003  8.308361455665911E-006
  3.817210378071894E-003  8.308361455665911E-006
  3.922841505498167E-003  8.308361455665911E-006
 cut=1d-8, nber non-redundant internal coords=          48
 Check on Eigenvals of non-red overlap matrix:
  0.00000831  0.00000975  0.00001130  0.00002112  0.00002155  0.00002438  0.00003204  0.00004272
  0.00004795  0.00004892  0.00005202  0.00006046  0.00007060  0.00009247  0.00010249  0.00010363
  0.00010375  0.00010381  0.00010888  0.00013188  0.00016461  0.00017470  0.00024934  0.00025214
  0.00031260  0.00032590  0.00034695  0.00034787  0.00041505  0.00044760  0.00044850  0.00052027
  0.00059645  0.00059681  0.00062212  0.00062685  0.00067717  0.00107484  0.00107662  0.00117174
  0.00117196  0.00119649  0.00131697  0.00187261  0.00201917  0.00246262  0.00381721  0.00392284
 d1=
  -5.7 -16.0   0.0   1.7  -0.0  -4.8  -0.0  -0.0   6.5  -0.0   0.0   0.0   2.0  -0.4  -3.5   0.0   0.0  -0.0   0.0  -3.8
   0.0  -0.9   0.0   5.7   1.5   0.0   0.0   0.0  -0.0   2.6   0.0  -0.0  -0.2   0.0  -0.7  -0.0   0.0  -0.0   0.0  -0.6
   0.0   0.0   0.0  -0.0   0.0   0.0  -0.0   0.0
 d2=
  -4.5 -16.1   0.0  -1.5  -0.0  -5.1   0.0  -0.0  -6.3   0.0  -0.0  -0.0   1.8  -0.3   3.6   0.0  -0.0   0.0  -0.0   3.9
   0.0   0.8  -0.0   5.8   1.4   0.0  -0.0  -0.0  -0.0  -0.0   2.6  -0.0   0.2  -0.0   0.6   0.0   0.0  -0.0  -0.0   0.6
   0.0  -0.0  -0.0   0.0  -0.0  -0.0   0.0  -0.0
 curvilinear- renormalizn of Dush matrix done
  mol 1 sym            1  -> mol 2 sym            1
  mol 1 sym            2  -> mol 2 sym            2
  mol 1 sym            3  -> mol 2 sym            3
  mol 1 sym            4  -> mol 2 sym            4

 Dushinsky matrix, ncs 2 in terms of ncs 1

   mode   freq    coeff     %      %tot     of    at

   1 A2   -207.  0.6518    42.5   100.5  23 A2    626.
                -0.5610    31.5          27 A2    699.
                -0.3860    14.9          32 A2    850.
   2 B1   -206. -0.4581    21.0   100.4  22 B1    596.
                 0.7344    53.9          26 B1    682.
                -0.3945    15.6          33 B1    856.
   3 A1     -0.  0.0000     0.0     0.0  11 A1    201.
   4 B1     -0. -0.0000     0.0     0.0  49 B2   1570.
   5 B2      0.  0.0000     0.0     0.0  17 B2    402.
   6 B2      0.  0.0000     0.0     0.0  12 B2    256.
   7 A2      0.  0.0000     0.0     0.0  41 A1   1231.
   8 B1      0.  0.0000     0.0     0.0  49 B2   1570.
   9 A2     74.  0.9431    88.9    98.9   7 A2     87.
                -0.3245    10.5          10 A2    167.
  10 B1    106. -0.9897    97.9    96.0   8 B1    102.
  11 A2    133.  0.3193    10.2    99.6   7 A2     87.
                 0.9457    89.4          10 A2    167.
  12 B1    152. -0.9892    97.9   100.4   9 B1    158.
  13 A1    202.  0.9992    99.8    98.5  11 A1    201.
  14 B2    253.  0.9992    99.8    98.7  12 B2    256.
  15 A2    279. -0.9690    93.9    96.2  13 A2    300.
  16 A1    316.  0.9920    98.4    99.7  14 A1    323.
  17 B1    336.  0.9379    88.0    96.5  16 B1    399.
  18 A2    352.  0.9177    84.2    97.4  18 A2    460.
  19 A1    357.  0.9922    98.4    97.8  15 A1    368.
  20 B2    385.  0.9976    99.5    98.0  17 B2    402.
  21 A1    490. -0.9956    99.1    99.3  19 A1    492.
  22 B2    502.  0.9901    98.0    98.8  20 B2    528.
  23 B1    510.  0.9401    88.4   102.7  21 B1    536.
  24 B1    591. -0.8589    73.8   101.6  22 B1    596.
                -0.5032    25.3          26 B1    682.
  25 A2    630.  0.7039    49.5    98.4  23 A2    626.
                 0.5977    35.7          27 A2    699.
                 0.3752    14.1          32 A2    850.
  26 B2    645. -0.9725    94.6    99.6  24 B2    677.
  27 A1    658. -0.9961    99.2    99.3  25 A1    682.
  28 A2    715. -0.5387    29.0    98.6  27 A2    699.
                 0.8266    68.3          32 A2    850.
  29 B1    717.  0.3877    15.0    98.0  26 B1    682.
                 0.9115    83.1          33 B1    856.
  30 B2    727. -0.9781    95.7    99.6  28 B2    757.
  31 A2    751.  0.9862    97.3    98.4  29 A2    761.
  32 A1    762.  0.9976    99.5    98.5  30 A1    805.
  33 B2    802. -0.9890    97.8    98.2  31 B2    839.
  34 B2    847.  0.9834    96.7    97.9  34 B2    863.
  35 A1    853.  0.9948    99.0   100.0  35 A1    912.
  36 A1    979. -0.9768    95.4   100.7  36 A1   1001.
  37 B2   1020.  0.9567    91.5    99.7  37 B2   1094.
  38 A1   1080.  0.9699    94.1   100.1  38 A1   1111.
  39 B2   1151. -0.9768    95.4    99.5  39 B2   1176.
  40 A1   1236.  0.8527    72.7    99.7  41 A1   1231.
                 0.4889    23.9          42 A1   1301.
  41 B2   1237.  0.8059    65.0    99.4  40 B2   1230.
                 0.4224    17.8          43 B2   1367.
  42 A1   1278.  0.4575    20.9    99.0  41 A1   1231.
                -0.8559    73.3          42 A1   1301.
  43 B2   1300. -0.5319    28.3    99.2  40 B2   1230.
                 0.5867    34.4          43 B2   1367.
                 0.4070    16.6          45 B2   1450.
                -0.3488    12.2          47 B2   1547.
  44 A1   1344.  0.9226    85.1    99.2  46 A1   1468.
  45 A1   1368. -0.9191    84.5   100.1  44 A1   1399.
                -0.3436    11.8          46 A1   1468.
  46 B2   1406.  0.6493    42.2    99.3  43 B2   1367.
                -0.3321    11.0          45 B2   1450.
                 0.6559    43.0          47 B2   1547.
  47 B2   1461.  0.6787    46.1    99.1  45 B2   1450.
                 0.6121    37.5          47 B2   1547.
                 0.3265    10.7          49 B2   1570.
  48 A1   1522.  0.9507    90.4    99.7  48 A1   1552.
  49 A1   1556.  0.9786    95.8   100.6  50 A1   1588.
  50 B2   1585.  0.3855    14.9   100.2  45 B2   1450.
                -0.9008    81.1          49 B2   1570.
  51 B2   3121.  0.9983    99.7   100.0  51 B2   3167.
  52 A1   3127.  0.9980    99.6   100.0  52 A1   3172.
  53 B2   3199.  0.9982    99.6   100.0  53 B2   3221.
  54 A1   3201.  0.9980    99.6   100.0  54 A1   3221.
 nber times 1st assigned=           1           0
 nber times 1st assigned=           2           0
 nber times 1st assigned=           3           0
 nber times 1st assigned=           4           0
 nber times 1st assigned=           5           0
 nber times 1st assigned=           6           0
 nber times 1st assigned=           7           0
 nber times 1st assigned=           8           0
 nber times 1st assigned=           9           0
 nber times 1st assigned=          10           0
 nber times 1st assigned=          13           0
 nber times 1st assigned=          14           0
 nber times 1st assigned=          15           0
 nber times 1st assigned=          16           0
 nber times 1st assigned=          18           0
 nber times 1st assigned=          19           0
 nber times 1st assigned=          20           0
 nber times 1st assigned=          21           0
 nber times 1st assigned=          22           0
 nber times 1st assigned=          23           0
 nber times 1st assigned=          24           0
 nber times 1st assigned=          25           0
 nber times 1st assigned=          26           0
 nber times 1st assigned=          27           0
 nber times 1st assigned=          28           0
 nber times 1st assigned=          29           0
 nber times 1st assigned=          30           0
 nber times 1st assigned=          31           0
 nber times 1st assigned=          32           0
 nber times 1st assigned=          33           0
 nber times 1st assigned=          34           0
 nber times 1st assigned=          35           0
 nber times 1st assigned=          36           0
 nber times 1st assigned=          37           0
 nber times 1st assigned=          38           0
 nber times 1st assigned=          39           0
 nber times 1st assigned=          40           0
 nber times 1st assigned=          42           0
 nber times 1st assigned=          43           0
 nber times 1st assigned=          44           0
 nber times 1st assigned=          45           0
 nber times 1st assigned=          46           0
 nber times 1st assigned=          47           0
 nber times 1st assigned=          48           0
 nber times 1st assigned=          49           2
 nber times 1st assigned=          50           0
 nber times 1st assigned=          51           0
 nber times 1st assigned=          52           0
 nber times 1st assigned=          53           0
 nber times 1st assigned=          54           0
 Dushinsky matrix written to .out file
 modes represented=   47.6312717069915     

 Dushinsky matrix, ncs 1 in terms of ncs 2

   mode   freq    coeff     %      %tot     of    at

   7 A2     87.  0.9431    88.9    99.2   9 A2     74.
                 0.3193    10.2          11 A2    133.
   8 B1    102. -0.9897    97.9    95.9  10 B1    106.
   9 B1    158. -0.9892    97.9   100.6  12 B1    152.
  10 A2    167. -0.3245    10.5   100.1   9 A2     74.
                 0.9457    89.4          11 A2    133.
  11 A1    201.  0.9992    99.8    98.8  13 A1    202.
  12 B2    256.  0.9992    99.8    98.8  14 B2    253.
  13 A2    300. -0.9690    93.9    96.3  15 A2    279.
  14 A1    323.  0.9920    98.4    99.5  16 A1    316.
  15 A1    368.  0.9922    98.4    98.3  19 A1    357.
  16 B1    399.  0.9379    88.0    96.3  17 B1    336.
  17 B2    402.  0.9976    99.5    98.8  20 B2    385.
  18 A2    460.  0.9177    84.2    96.0  18 A2    352.
  19 A1    492. -0.9956    99.1    99.4  21 A1    490.
  20 B2    528.  0.9901    98.0    99.3  22 B2    502.
  21 B1    536.  0.9401    88.4   101.3  23 B1    510.
  22 B1    596. -0.4581    21.0   101.0   2 B1   -206.
                -0.8589    73.8          24 B1    591.
  23 A2    626.  0.6518    42.5    98.9   1 A2   -207.
                 0.7039    49.5          25 A2    630.
  24 B2    677. -0.9725    94.6    98.5  26 B2    645.
  25 A1    682. -0.9961    99.2    99.0  27 A1    658.
  26 B1    682.  0.7344    53.9   102.0   2 B1   -206.
                -0.5032    25.3          24 B1    591.
                 0.3877    15.0          29 B1    717.
  27 A2    699. -0.5610    31.5   100.8   1 A2   -207.
                 0.5977    35.7          25 A2    630.
                -0.5387    29.0          28 A2    715.
  28 B2    757. -0.9781    95.7   100.3  30 B2    727.
  29 A2    761.  0.9862    97.3    98.0  31 A2    751.
  30 A1    805.  0.9976    99.5    98.5  32 A1    762.
  31 B2    839. -0.9890    97.8    98.4  33 B2    802.
  32 A2    850. -0.3860    14.9    98.8   1 A2   -207.
                 0.3752    14.1          25 A2    630.
                 0.8266    68.3          28 A2    715.
  33 B1    856. -0.3945    15.6    98.7   2 B1   -206.
                 0.9115    83.1          29 B1    717.
  34 B2    863.  0.9834    96.7    97.3  34 B2    847.
  35 A1    912.  0.9948    99.0    99.9  35 A1    853.
  36 A1   1001. -0.9768    95.4   100.6  36 A1    979.
  37 B2   1094.  0.9567    91.5    99.7  37 B2   1020.
  38 A1   1111.  0.9699    94.1   100.0  38 A1   1080.
  39 B2   1176. -0.9768    95.4    99.1  39 B2   1151.
  40 B2   1230.  0.8059    65.0    98.6  41 B2   1237.
                -0.5319    28.3          43 B2   1300.
  41 A1   1231.  0.8527    72.7   100.2  40 A1   1236.
                 0.4575    20.9          42 A1   1278.
  42 A1   1301.  0.4889    23.9    98.9  40 A1   1236.
                -0.8559    73.3          42 A1   1278.
  43 B2   1367.  0.4224    17.8    98.6  41 B2   1237.
                 0.5867    34.4          43 B2   1300.
                 0.6493    42.2          46 B2   1406.
  44 A1   1399. -0.9191    84.5    99.7  45 A1   1368.
  45 B2   1450.  0.4070    16.6    99.9  43 B2   1300.
                -0.3321    11.0          46 B2   1406.
                 0.6787    46.1          47 B2   1461.
                 0.3855    14.9          50 B2   1585.
  46 A1   1468.  0.9226    85.1    99.3  44 A1   1344.
                -0.3436    11.8          45 A1   1368.
  47 B2   1547. -0.3488    12.2    99.8  43 B2   1300.
                 0.6559    43.0          46 B2   1406.
                 0.6121    37.5          47 B2   1461.
  48 A1   1552.  0.9507    90.4   100.0  48 A1   1522.
  49 B2   1570.  0.3265    10.7   100.0  47 B2   1461.
                -0.9008    81.1          50 B2   1585.
  50 A1   1588.  0.9786    95.8   100.2  49 A1   1556.
  51 B2   3167.  0.9983    99.7   100.0  51 B2   3121.
  52 A1   3172.  0.9980    99.6   100.0  52 A1   3127.
  53 B2   3221.  0.9982    99.6   100.0  53 B2   3199.
  54 A1   3221.  0.9980    99.6   100.0  54 A1   3201.
 nber times 1st assigned=           1           0
 nber times 1st assigned=           2           0
 nber times 1st assigned=           3           0
 nber times 1st assigned=           4           0
 nber times 1st assigned=           5           0
 nber times 1st assigned=           6           0
 nber times 1st assigned=           7           0
 nber times 1st assigned=           8           0
 nber times 1st assigned=           9           0
 nber times 1st assigned=          10           0
 nber times 1st assigned=          11           0
 nber times 1st assigned=          12           0
 nber times 1st assigned=          13           0
 nber times 1st assigned=          14           0
 nber times 1st assigned=          15           0
 nber times 1st assigned=          16           0
 nber times 1st assigned=          17           0
 nber times 1st assigned=          18           0
 nber times 1st assigned=          19           0
 nber times 1st assigned=          20           0
 nber times 1st assigned=          21           0
 nber times 1st assigned=          22           0
 nber times 1st assigned=          23           0
 nber times 1st assigned=          24           0
 nber times 1st assigned=          25           0
 nber times 1st assigned=          26           0
 nber times 1st assigned=          27           0
 nber times 1st assigned=          28           0
 nber times 1st assigned=          29           0
 nber times 1st assigned=          30           0
 nber times 1st assigned=          31           0
 nber times 1st assigned=          32           0
 nber times 1st assigned=          33           0
 nber times 1st assigned=          34           0
 nber times 1st assigned=          35           0
 nber times 1st assigned=          36           0
 nber times 1st assigned=          37           0
 nber times 1st assigned=          38           0
 nber times 1st assigned=          39           0
 nber times 1st assigned=          40           0
 nber times 1st assigned=          41           0
 nber times 1st assigned=          42           0
 nber times 1st assigned=          43           0
 nber times 1st assigned=          44           0
 nber times 1st assigned=          45           0
 nber times 1st assigned=          46           0
 nber times 1st assigned=          47           0
 nber times 1st assigned=          48           0
 nber times 1st assigned=          49           0
 nber times 1st assigned=          50           0
 nber times 1st assigned=          51           0
 nber times 1st assigned=          52           0
 nber times 1st assigned=          53           0
 nber times 1st assigned=          54           0
 modes represented=   47.6312717069915     
 p1=
   -0.   -0.   -0.    0.    0.    0.   -0.   -0.    0.   -0.   -3.    0.   -0.   15.    8.    0.   -0.    0.   -3.   -0.
    0.    0.    0.   -0.    5.    0.    0.   -0.    0.    5.   -0.   -0.   -0.    0.    1.   -2.   -0.   -4.    0.    0.
   -2.    1.   -0.   -4.   -0.   -2.   -0.   -4.   -0.   -3.    0.   -0.   -0.   -0.
 p2=
   -0.    0.    0.    0.   -0.    0.    0.   -0.    0.   -0.    0.    0.    4.    0.   -0.  -16.   -0.   -0.   -6.   -0.
   -3.   -0.   -0.    0.   -0.    0.    5.    0.   -0.    0.   -0.   -5.    0.    0.   -1.   -1.   -0.    5.   -0.    0.
    0.    1.   -0.    1.   -4.   -0.   -0.    4.    4.    0.   -0.    0.   -0.    0.

 Displacement: in terms of nc of 1 THEN of nc of 2

   1 B2  freq=    -0. Q= -0.000 lam=    -0.0 A2  freq=  -207. Q= -0.000 lam=    -0.0
   2 B1  freq=    -0. Q= -0.000 lam=    -0.0 B1  freq=  -206. Q= -0.000 lam=    -0.0
   3 B2  freq=     0. Q= -0.000 lam=     0.0 A1  freq=    -0. Q= -0.000 lam=    -0.0
   4 A1  freq=     0. Q=  0.000 lam=     0.0 B1  freq=    -0. Q=  0.000 lam=    -0.0
   5 A2  freq=     0. Q=  0.000 lam=     0.0 B2  freq=     0. Q=  0.000 lam=     0.0
   6 B1  freq=     0. Q=  0.000 lam=     0.0 B2  freq=     0. Q=  0.000 lam=     0.0
   7 A2  freq=    87. Q= -0.000 lam=     0.0 A2  freq=     0. Q= -0.000 lam=     0.0
   8 B1  freq=   102. Q= -0.000 lam=     0.0 B1  freq=     0. Q= -0.000 lam=     0.0
   9 B1  freq=   158. Q=  0.000 lam=     0.0 A2  freq=    74. Q=  0.000 lam=     0.0
  10 A2  freq=   167. Q= -0.000 lam=     0.0 B1  freq=   106. Q= -0.000 lam=     0.0
  11 A1  freq=   201. Q= -0.189 lam=     3.6 A2  freq=   133. Q= -0.000 lam=     0.0
  12 B2  freq=   256. Q=  0.000 lam=     0.0 B1  freq=   152. Q=  0.000 lam=     0.0
  13 A2  freq=   300. Q= -0.000 lam=     0.0 A1  freq=   202. Q= -0.207 lam=     4.3
  14 A1  freq=   323. Q=  1.064 lam=   182.7 B2  freq=   253. Q=  0.000 lam=     0.0
  15 A1  freq=   368. Q=  0.636 lam=    74.4 A2  freq=   279. Q=  0.000 lam=     0.0
  16 B1  freq=   399. Q=  0.000 lam=     0.0 A1  freq=   316. Q=  1.116 lam=   196.7
  17 B2  freq=   402. Q= -0.000 lam=     0.0 B1  freq=   336. Q= -0.000 lam=     0.0
  18 A2  freq=   460. Q=  0.000 lam=     0.0 A2  freq=   352. Q=  0.000 lam=     0.0
  19 A1  freq=   492. Q= -0.277 lam=    18.9 A1  freq=   357. Q= -0.492 lam=    43.2
  20 B2  freq=   528. Q= -0.000 lam=     0.0 B2  freq=   385. Q= -0.000 lam=     0.0
  21 B1  freq=   536. Q=  0.000 lam=     0.0 A1  freq=   490. Q=  0.226 lam=    12.5
  22 B1  freq=   596. Q=  0.000 lam=     0.0 B2  freq=   502. Q=  0.000 lam=     0.0
  23 A2  freq=   626. Q=  0.000 lam=     0.0 B1  freq=   510. Q=  0.000 lam=     0.0
  24 B2  freq=   677. Q= -0.000 lam=     0.0 B1  freq=   591. Q= -0.000 lam=     0.0
  25 A1  freq=   682. Q=  0.481 lam=    78.9 A2  freq=   630. Q=  0.000 lam=     0.0
  26 B1  freq=   682. Q=  0.000 lam=     0.0 B2  freq=   645. Q=  0.000 lam=     0.0
  27 A2  freq=   699. Q=  0.000 lam=     0.0 A1  freq=   658. Q=  0.478 lam=    75.1
  28 B2  freq=   757. Q= -0.000 lam=     0.0 A2  freq=   715. Q= -0.000 lam=     0.0
  29 A2  freq=   761. Q=  0.000 lam=     0.0 B1  freq=   717. Q=  0.000 lam=     0.0
  30 A1  freq=   805. Q=  0.558 lam=   125.2 B2  freq=   727. Q=  0.000 lam=     0.0
  31 B2  freq=   839. Q= -0.000 lam=     0.0 A2  freq=   751. Q= -0.000 lam=     0.0
  32 A2  freq=   850. Q= -0.000 lam=     0.0 A1  freq=   762. Q= -0.568 lam=   122.7
  33 B1  freq=   856. Q= -0.000 lam=     0.0 B2  freq=   802. Q= -0.000 lam=     0.0
  34 B2  freq=   863. Q=  0.000 lam=     0.0 B2  freq=   847. Q=  0.000 lam=     0.0
  35 A1  freq=   912. Q=  0.085 lam=     3.3 A1  freq=   853. Q=  0.070 lam=     2.1
  36 A1  freq=  1001. Q= -0.292 lam=    42.7 A1  freq=   979. Q= -0.181 lam=    16.1
  37 B2  freq=  1094. Q= -0.000 lam=     0.0 B2  freq=  1020. Q= -0.000 lam=     0.0
  38 A1  freq=  1111. Q= -0.595 lam=   196.7 A1  freq=  1080. Q= -0.620 lam=   207.6
  39 B2  freq=  1176. Q=  0.000 lam=     0.0 B2  freq=  1151. Q=  0.000 lam=     0.0
  40 B2  freq=  1230. Q=  0.000 lam=     0.0 A1  freq=  1236. Q=  0.026 lam=     0.4
  41 A1  freq=  1231. Q= -0.283 lam=    49.2 B2  freq=  1237. Q= -0.000 lam=     0.0
  42 A1  freq=  1301. Q=  0.184 lam=    22.0 A1  freq=  1278. Q=  0.190 lam=    23.0
  43 B2  freq=  1367. Q= -0.000 lam=     0.0 B2  freq=  1300. Q= -0.000 lam=     0.0
  44 A1  freq=  1399. Q= -0.617 lam=   266.7 A1  freq=  1344. Q= -0.177 lam=    21.0
  45 B2  freq=  1450. Q= -0.000 lam=     0.0 A1  freq=  1368. Q= -0.576 lam=   226.6
  46 A1  freq=  1468. Q= -0.348 lam=    89.0 B2  freq=  1406. Q= -0.000 lam=     0.0
  47 B2  freq=  1547. Q= -0.000 lam=     0.0 B2  freq=  1461. Q= -0.000 lam=     0.0
  48 A1  freq=  1552. Q= -0.685 lam=   364.4 A1  freq=  1522. Q= -0.580 lam=   255.7
  49 B2  freq=  1570. Q= -0.000 lam=     0.0 A1  freq=  1556. Q= -0.676 lam=   355.4
  50 A1  freq=  1588. Q= -0.523 lam=   216.9 B2  freq=  1585. Q= -0.000 lam=     0.0
  51 B2  freq=  3167. Q=  0.000 lam=     0.0 B2  freq=  3121. Q=  0.000 lam=     0.0
  52 A1  freq=  3172. Q= -0.029 lam=     1.3 A1  freq=  3127. Q= -0.031 lam=     1.5
  53 B2  freq=  3221. Q= -0.000 lam=     0.0 B2  freq=  3199. Q= -0.000 lam=     0.0
  54 A1  freq=  3221. Q= -0.027 lam=     1.2 A1  freq=  3201. Q= -0.021 lam=     0.7

 total reorg energy (cm**-1, kcal/mol)=     1737.     1565.      4.97      4.47
 Nber of molecules processed=           2
