 Enter ifcurve (0=recti, 1=orth curvi, 2=apprx curvi, -1 = skip
 And atom ordering flag, 0= never changes, 1= use the first order thenceforth,
  2= deduce it (does read on fail), 3= always read it
 Reading file: 
 ./Benzene_Conj_1_C0S0.log                                                      
                                          
  Entering Gaussian System, Link 0=g16                                          
  
 Gaussian format, type: g94, g98, g03= F F F
  #P Geom=AllCheck Guess=TCheck SCRF=Check GenChk RB3LYP/6-311G(d,p) Fre    
 energy type= B3LYP   
 Original G94 input coords:
  6  1.243597 -1.400320  0.000000
  6  0.000000 -0.715707  0.000000
  6 -1.243597 -1.400320  0.000000
  6 -2.429721 -0.707429  0.000000
  6 -2.429721  0.707429  0.000000
  6 -1.243597  1.400320  0.000000
  6  0.000000  0.715707  0.000000
  6  1.243597  1.400320  0.000000
  6  2.429721  0.707429  0.000000
  6  2.429721 -0.707429  0.000000
  1  1.242140 -2.485561  0.000000
  1 -1.242140 -2.485561  0.000000
  1 -3.372589 -1.243049  0.000000
  1 -3.372589  1.243049  0.000000
  1 -1.242140  2.485561  0.000000
  1  1.242140  2.485561  0.000000
  1  3.372589  1.243049  0.000000
  1  3.372589 -1.243049  0.000000
 nber atoms=          18
 Original standard coords:
  6  0.000000  1.243597  1.400320
  6  0.000000  0.000000  0.715707
  6  0.000000 -1.243597  1.400320
  6  0.000000 -2.429721  0.707429
  6  0.000000 -2.429721 -0.707429
  6  0.000000 -1.243597 -1.400320
  6  0.000000  0.000000 -0.715707
  6  0.000000  1.243597 -1.400320
  6  0.000000  2.429721 -0.707429
  6  0.000000  2.429721  0.707429
  1  0.000000  1.242140  2.485561
  1  0.000000 -1.242140  2.485561
  1  0.000000 -3.372589  1.243049
  1  0.000000 -3.372589 -1.243049
  1  0.000000 -1.242140 -2.485561
  1  0.000000  1.242140 -2.485561
  1  0.000000  3.372589 -1.243049
  1  0.000000  3.372589  1.243049
  SCF Done:  E(RB3LYP) =  -385.984908995     A.U. after    1 cycles             
  
          23          40 "  -385.984908995"
After scan for Atom:   Atom  AN      X      Y      Z        X      Y      Z        X      Y      Z   
After scan for Atom:   Atom  AN      X      Y      Z        X      Y      Z        X      Y      Z   
After scan for Atom:   Atom  AN      X      Y      Z        X      Y      Z        X      Y      Z   
After scan for Atom:   Atom  AN      X      Y      Z        X      Y      Z        X      Y      Z   
After scan for Atom:   Atom  AN      X      Y      Z        X      Y      Z        X      Y      Z   
After scan for Atom:   Atom  AN      X      Y      Z        X      Y      Z        X      Y      Z   
After scan for Atom:   Atom  AN      X      Y      Z        X      Y      Z        X      Y      Z   
After scan for Atom:   Atom  AN      X      Y      Z        X      Y      Z        X      Y      Z   
After scan for Atom:   Atom  AN      X      Y      Z        X      Y      Z        X      Y      Z   
After scan for Atom:   Atom  AN      X      Y      Z        X      Y      Z        X      Y      Z   
After scan for Atom:   Atom  AN      X      Y      Z        X      Y      Z        X      Y      Z   
After scan for Atom:   Atom  AN      X      Y      Z        X      Y      Z        X      Y      Z   
After scan for Atom:   Atom  AN      X      Y      Z        X      Y      Z        X      Y      Z   
After scan for Atom:   Atom  AN      X      Y      Z        X      Y      Z        X      Y      Z   
After scan for Atom:   Atom  AN      X      Y      Z        X      Y      Z        X      Y      Z   
After scan for Atom:   Atom  AN      X      Y      Z        X      Y      Z        X      Y      Z   
 g94    frequencies=
     0.0    0.0    0.0    0.0    0.0    0.0  173.3  186.5  365.9  395.3
   480.4  487.1  518.5  519.8  635.2  636.1  729.1  773.1  786.5  799.1
   808.6  848.1  896.3  950.9  956.4  973.5  992.7  999.9 1035.4 1046.1
  1150.7 1169.0 1171.5 1185.0 1232.1 1269.8 1287.0 1390.7 1397.8 1417.8
  1490.5 1491.0 1548.4 1613.3 1640.6 1670.4 3154.0 3155.7 3158.2 3161.6
  3171.9 3173.3 3184.6 3185.8
 g94    symmetries=
                                                B3     AU     B1     B1
      B2     B3     B3     AG     AU     B2     B1     AG     B2     B3
      B1     AU     B2     B3     B1     B3     AU     B2     B2     AG
      B1     B2     B3     AG     B2     B3     B1     B2     AG     B1
      AG     B3     B2     AG     B1     B3     B3     B1     B2     AG
      B3     B1     B2     AG
 atomic masses:
 12.0000 12.0000 12.0000 12.0000 12.0000 12.0000 12.0000 12.0000 12.0000 12.0000
  1.0078  1.0078  1.0078  1.0078  1.0078  1.0078  1.0078  1.0078
 looking for force constants in 
 ./Benzene_Conj_1_C0S0.fchk                                                     
  
 Cartesian Force Constants                  R   N=        1485                  
  
 n3=          54        1485
 g94-fc frequencies=
    -0.0   -0.0    0.0    5.7    6.2    7.7  173.3  186.5  365.9  395.3
   480.4  487.1  518.6  519.8  635.2  636.1  729.1  773.1  786.5  799.1
   808.6  848.1  896.3  951.0  956.5  973.5  992.7  999.9 1035.4 1046.1
  1150.7 1169.0 1171.6 1185.1 1232.1 1269.9 1287.0 1390.8 1397.9 1417.8
  1490.5 1491.1 1548.4 1613.4 1640.6 1670.5 3154.0 3155.7 3158.3 3161.7
  3171.9 3173.3 3184.7 3185.9
 at 99999: n3=          54
 symm operator            1 :  T  nop=           1
 symm operator            2 :  T  nop=           2
 symm operator            3 :  T  nop=           3
 symm operator            4 :  T  nop=           4
 symm operator            5 :  T  nop=           5
 symm operator            6 :  T  nop=           6
 symm operator            7 :  T  nop=           7
 The point group of the molecule is D2H
 enforcing symm op           1  jsymt=          -1          -1           1
 enforcing symm op           2  jsymt=          -1           1          -1
 enforcing symm op           3  jsymt=           1          -1          -1
 enforcing symm op           4  jsymt=          -1          -1          -1
 enforcing symm op           5  jsymt=           1           1          -1
 enforcing symm op           6  jsymt=           1          -1           1
 enforcing symm op           7  jsymt=          -1           1           1
 cartesian coord symmetries:
 Ag :    9 Au :    4 B1g:    4 B1u:    9 B2g:    5 B2u:    9 B3g:    9 B3u:    5
 Symmetry rotation matrix:
   1.00000   0.00000   0.00000
   0.00000   1.00000   0.00000
   0.00000   0.00000   1.00000

 Projecting out zero-frequency components
 generating redundant internal coords
         300        3600          18
 search for int coords
   1 str   2   1   1.420
   2 str   3   2   1.420
   3 str   4   3   1.374
   4 str   5   4   1.415
   5 str   6   5   1.374
   6 str   7   2   1.431
   7 str   7   6   1.420
   8 str   8   7   1.420
   9 str   9   8   1.374
  10 str  10   1   1.374
  11 str  10   9   1.415
  12 str  11   1   1.085
  13 str  12   3   1.085
  14 str  13   4   1.084
  15 str  14   5   1.084
  16 str  15   6   1.085
  17 str  16   8   1.085
  18 str  17   9   1.084
  19 str  18  10   1.084
 nber stretches=          19
  20 ben   1   2   3
  21 prop tor   1   2   3   4
  22 prop tor   1   2   3  12
  23 ben   1   2   7
  24 prop tor   1   2   7   6
  25 prop tor   1   2   7   8
  26 ben   1  10   9
  27 ben   1  10  18
  28 ben   2   1  10
  29 prop tor   2   1  10   9
  30 prop tor   2   1  10  18
  31 ben   2   1  11
  32 ben   2   3   4
  33 prop tor   2   3   4   5
  34 prop tor   2   3   4  13
  35 ben   2   3  12
  36 ben   2   7   6
  37 ben   2   7   8
  38 prop tor   2   7   8   9
  39 prop tor   2   7   8  16
  40 ben   3   2   7
  41 prop tor   3   2   7   6
  42 prop tor   3   2   7   8
  43 ben   3   4   5
  44 prop tor   3   4   5   6
  45 prop tor   3   4   5  14
  46 ben   3   4  13
  47 ben   4   3  12
  48 ben   4   5   6
  49 prop tor   4   5   6   7
  50 prop tor   4   5   6  15
  51 ben   4   5  14
  52 ben   5   4  13
  53 ben   5   6   7
  54 prop tor   5   6   7   2
  55 prop tor   5   6   7   8
  56 ben   5   6  15
  57 ben   6   5  14
  58 ben   6   7   8
  59 prop tor   6   7   8   9
  60 prop tor   6   7   8  16
  61 prop tor   7   2   3   4
  62 prop tor   7   2   3  12
  63 ben   7   6  15
  64 ben   7   8   9
  65 prop tor   7   8   9  10
  66 prop tor   7   8   9  17
  67 ben   7   8  16
  68 ben   8   9  10
  69 prop tor   8   9  10   1
  70 prop tor   8   9  10  18
  71 ben   8   9  17
  72 ben   9   8  16
  73 ben   9  10  18
  74 prop tor  10   1   2   3
  75 prop tor  10   1   2   7
  76 ben  10   1  11
  77 ben  10   9  17
  78 prop tor  11   1   2   3
  79 prop tor  11   1   2   7
  80 prop tor  11   1  10   9
  81 prop tor  11   1  10  18
  82 prop tor  12   3   4   5
  83 prop tor  12   3   4  13
  84 prop tor  13   4   5   6
  85 prop tor  13   4   5  14
  86 prop tor  14   5   6   7
  87 prop tor  14   5   6  15
  88 prop tor  15   6   7   2
  89 prop tor  15   6   7   8
  90 prop tor  16   8   9  10
  91 prop tor  16   8   9  17
  92 prop tor  17   9  10   1
  93 prop tor  17   9  10  18
 nber bend=              30
 nber lin bend=           0
 nber prop tor=          44
 nber impr tor=           0
 nber tot redund int=          93
 Eigenvalues of G in red int coords
    Gval -0.00000000 -0.00000000 -0.00000000 -0.00000000 -0.00000000 -0.00000000 -0.00000000 -0.00000000
    Gval -0.00000000 -0.00000000 -0.00000000 -0.00000000 -0.00000000 -0.00000000 -0.00000000 -0.00000000
    Gval -0.00000000 -0.00000000 -0.00000000 -0.00000000 -0.00000000 -0.00000000 -0.00000000 -0.00000000
    Gval -0.00000000  0.00000000  0.00000000  0.00000000  0.00000000  0.00000000  0.00000000  0.00000000
    Gval  0.00000000  0.00000000  0.00000000  0.00000000  0.00000000  0.00000000  0.00000000  0.00000000
    Gval  0.00000000  0.00000000  0.00000000  0.00000000  0.00000000  0.00001847  0.00002367  0.00003746
    Gval  0.00004521  0.00005531  0.00007222  0.00007782  0.00010236  0.00010312  0.00012748  0.00013128
    Gval  0.00013414  0.00014903  0.00021066  0.00022371  0.00028992  0.00037328  0.00037993  0.00039920
    Gval  0.00049097  0.00059298  0.00059327  0.00059579  0.00059847  0.00060931  0.00062769  0.00064837
    Gval  0.00066173  0.00072154  0.00072433  0.00104422  0.00105901  0.00111173  0.00111660  0.00111866
    Gval  0.00115772  0.00116186  0.00117016  0.00117040  0.00166078  0.00189900  0.00190223  0.00248570
    Gval  0.00283428  0.00339129  0.00363498  0.00398142  0.00403599
  1.847055247904104E-005  1.847055247904104E-005
  2.367128731539249E-005  1.847055247904104E-005
  3.746228758553109E-005  1.847055247904104E-005
  4.520540210127695E-005  1.847055247904104E-005
  5.530870340831339E-005  1.847055247904104E-005
  7.222080013474406E-005  1.847055247904104E-005
  7.781886335509222E-005  1.847055247904104E-005
  1.023591627643543E-004  1.847055247904104E-005
  1.031183254448261E-004  1.847055247904104E-005
  1.274842283876596E-004  1.847055247904104E-005
  1.312841412458949E-004  1.847055247904104E-005
  1.341410875899076E-004  1.847055247904104E-005
  1.490312071895207E-004  1.847055247904104E-005
  2.106613923810087E-004  1.847055247904104E-005
  2.237122815536818E-004  1.847055247904104E-005
  2.899196843429508E-004  1.847055247904104E-005
  3.732830857438017E-004  1.847055247904104E-005
  3.799290027072721E-004  1.847055247904104E-005
  3.992026814420195E-004  1.847055247904104E-005
  4.909695417957580E-004  1.847055247904104E-005
  5.929759350378915E-004  1.847055247904104E-005
  5.932668051525441E-004  1.847055247904104E-005
  5.957926563088725E-004  1.847055247904104E-005
  5.984695069258424E-004  1.847055247904104E-005
  6.093140603300513E-004  1.847055247904104E-005
  6.276887898105678E-004  1.847055247904104E-005
  6.483737743557967E-004  1.847055247904104E-005
  6.617283415797722E-004  1.847055247904104E-005
  7.215394164990661E-004  1.847055247904104E-005
  7.243313564671127E-004  1.847055247904104E-005
  1.044216673026875E-003  1.847055247904104E-005
  1.059007381150029E-003  1.847055247904104E-005
  1.111730745057021E-003  1.847055247904104E-005
  1.116604588592494E-003  1.847055247904104E-005
  1.118655445544897E-003  1.847055247904104E-005
  1.157715988692479E-003  1.847055247904104E-005
  1.161855835152580E-003  1.847055247904104E-005
  1.170156761657870E-003  1.847055247904104E-005
  1.170396233363654E-003  1.847055247904104E-005
  1.660784663314054E-003  1.847055247904104E-005
  1.898997904782266E-003  1.847055247904104E-005
  1.902225932689062E-003  1.847055247904104E-005
  2.485703675079937E-003  1.847055247904104E-005
  2.834277496238637E-003  1.847055247904104E-005
  3.391287180290528E-003  1.847055247904104E-005
  3.634983845505131E-003  1.847055247904104E-005
  3.981420056080045E-003  1.847055247904104E-005
  4.035987883272600E-003  1.847055247904104E-005
 cut=1d-8, nber non-redundant internal coords=          48
 Check on Eigenvals of non-red overlap matrix:
  0.00001847  0.00002367  0.00003746  0.00004521  0.00005531  0.00007222  0.00007782  0.00010236
  0.00010312  0.00012748  0.00013128  0.00013414  0.00014903  0.00021066  0.00022371  0.00028992
  0.00037328  0.00037993  0.00039920  0.00049097  0.00059298  0.00059327  0.00059579  0.00059847
  0.00060931  0.00062769  0.00064837  0.00066173  0.00072154  0.00072433  0.00104422  0.00105901
  0.00111173  0.00111660  0.00111866  0.00115772  0.00116186  0.00117016  0.00117040  0.00166078
  0.00189900  0.00190223  0.00248570  0.00283428  0.00339129  0.00363498  0.00398142  0.00403599
 Checking for correct frequencies
 recalc frequencies=
    -0.0   -0.0   -0.0    0.0    0.0    0.0  173.3  186.5  365.9  395.3
   480.4  487.1  518.6  519.8  635.2  636.1  729.1  773.1  786.5  799.1
   808.6  848.1  896.3  951.0  956.5  973.5  992.7  999.9 1035.4 1046.1
  1150.7 1169.0 1171.6 1185.1 1232.1 1269.9 1287.0 1390.8 1397.9 1417.8
  1490.5 1491.1 1548.4 1613.4 1640.6 1670.5 3154.0 3155.7 3158.3 3161.7
  3171.9 3173.3 3184.7 3185.9
 recalc symmetries=
     B3g    B2u    B2g    B3u    B1g    B1u    B3u    Au     B1u    B1g
     B2g    B3u    B3g    Ag     Au     B2u    B1g    Ag     B2g    B3u
     B1u    Au     B2g    B3g    B1g    B3u    Au     B2g    B2u    Ag 
     B1u    B2u    B3g    Ag     B2u    B3g    B1u    B2u    Ag     B1u
     Ag     B3g    B2u    Ag     B1u    B3g    B3g    B1u    B2u    Ag 
     B3g    B1u    B2u    Ag 
 recalc freqs check OK
 Zero-point lengths:
 10.0000 10.0000 10.0000 10.0000 10.0000 10.0000 18.8300 18.1549 12.9595 12.4686
 11.3108 11.2327 10.8867 10.8739  9.8366  9.8295  9.1814  8.9160  8.8399  8.7699
  8.7181  8.5128  8.2807  8.0392  8.0161  7.9457  7.8685  7.8400  7.7044  7.6648
  7.3083  7.2507  7.2429  7.2015  7.0627  6.9569  6.9104  6.6476  6.6308  6.5839
  6.4214  6.4202  6.3001  6.1721  6.1206  6.0656  4.4143  4.4131  4.4114  4.4090
  4.4018  4.4009  4.3930  4.3922
 highest evec of mol 1
  0.0000  0.0061 -0.0656
  0.0000  0.0000  0.0009
  0.0000 -0.0061 -0.0656
  0.0000  0.1160 -0.0666
  0.0000  0.1160  0.0666
  0.0000 -0.0061  0.0656
  0.0000  0.0000 -0.0009
  0.0000  0.0061  0.0656
  0.0000 -0.1160  0.0666
  0.0000 -0.1160 -0.0666
  0.0000 -0.0014  0.2061
  0.0000  0.0014  0.2061
  0.0000 -0.3739  0.2134
  0.0000 -0.3739 -0.2134
  0.0000  0.0014 -0.2061
  0.0000 -0.0014 -0.2061
  0.0000  0.3739 -0.2134
  0.0000  0.3739  0.2134
 generating redundant internal coords
         300        3600          18
 Adding extra bonds for z output only
           6           6           6           6           6           6
           6           6           6           6           1           1
           1           1           1           1           1           1
 search for int coords
   1 str   2   1   1.420
   2 str   3   2   1.420
   3 str   4   3   1.374
   4 str   5   4   1.415
   5 str   6   5   1.374
   6 str   7   2   1.431
   7 str   7   6   1.420
   8 str   8   7   1.420
   9 str   9   8   1.374
  10 str  10   1   1.374
  11 str  10   9   1.415
  12 str  11   1   1.085
  13 str  12   3   1.085
  14 str  13   4   1.084
  15 str  14   5   1.084
  16 str  15   6   1.085
  17 str  16   8   1.085
  18 str  17   9   1.084
  19 str  18  10   1.084
 nber stretches=          19
  20 ben   1   2   3
  21 prop tor   1   2   3   4
  22 prop tor   1   2   3  12
  23 ben   1   2   7
  24 prop tor   1   2   7   6
  25 prop tor   1   2   7   8
  26 ben   1  10   9
  27 ben   1  10  18
  28 ben   2   1  10
  29 prop tor   2   1  10   9
  30 prop tor   2   1  10  18
  31 ben   2   1  11
  32 ben   2   3   4
  33 prop tor   2   3   4   5
  34 prop tor   2   3   4  13
  35 ben   2   3  12
  36 ben   2   7   6
  37 ben   2   7   8
  38 prop tor   2   7   8   9
  39 prop tor   2   7   8  16
  40 ben   3   2   7
  41 prop tor   3   2   7   6
  42 prop tor   3   2   7   8
  43 ben   3   4   5
  44 prop tor   3   4   5   6
  45 prop tor   3   4   5  14
  46 ben   3   4  13
  47 ben   4   3  12
  48 ben   4   5   6
  49 prop tor   4   5   6   7
  50 prop tor   4   5   6  15
  51 ben   4   5  14
  52 ben   5   4  13
  53 ben   5   6   7
  54 prop tor   5   6   7   2
  55 prop tor   5   6   7   8
  56 ben   5   6  15
  57 ben   6   5  14
  58 ben   6   7   8
  59 prop tor   6   7   8   9
  60 prop tor   6   7   8  16
  61 prop tor   7   2   3   4
  62 prop tor   7   2   3  12
  63 ben   7   6  15
  64 ben   7   8   9
  65 prop tor   7   8   9  10
  66 prop tor   7   8   9  17
  67 ben   7   8  16
  68 ben   8   9  10
  69 prop tor   8   9  10   1
  70 prop tor   8   9  10  18
  71 ben   8   9  17
  72 ben   9   8  16
  73 ben   9  10  18
  74 prop tor  10   1   2   3
  75 prop tor  10   1   2   7
  76 ben  10   1  11
  77 ben  10   9  17
  78 prop tor  11   1   2   3
  79 prop tor  11   1   2   7
  80 prop tor  11   1  10   9
  81 prop tor  11   1  10  18
  82 prop tor  12   3   4   5
  83 prop tor  12   3   4  13
  84 prop tor  13   4   5   6
  85 prop tor  13   4   5  14
  86 prop tor  14   5   6   7
  87 prop tor  14   5   6  15
  88 prop tor  15   6   7   2
  89 prop tor  15   6   7   8
  90 prop tor  16   8   9  10
  91 prop tor  16   8   9  17
  92 prop tor  17   9  10   1
  93 prop tor  17   9  10  18
 nber bend=              30
 nber lin bend=           0
 nber prop tor=          44
 nber impr tor=           0
 nber tot redund int=          93
 Reading file: 
 ./Benzene_Conj_1_C-1S0.log                                                     
                                          
  Entering Gaussian System, Link 0=g16                                          
  
 Gaussian format, type: g94, g98, g03= F F F
  #P Geom=AllCheck Guess=TCheck SCRF=Check GenChk UB3LYP/6-311G(d,p) Fre    
 energy type= B3LYP   
 Original G94 input coords:
  6  1.249993 -1.400296  0.000000
  6  0.000000 -0.726059  0.000000
  6 -1.249993 -1.400296  0.000000
  6 -2.468449 -0.694141  0.000000
  6 -2.468449  0.694141  0.000000
  6 -1.249993  1.400296  0.000000
  6  0.000000  0.726059  0.000000
  6  1.249993  1.400296  0.000000
  6  2.468449  0.694141  0.000000
  6  2.468449 -0.694141  0.000000
  1  1.252261 -2.488018  0.000000
  1 -1.252261 -2.488018  0.000000
  1 -3.409099 -1.241492  0.000000
  1 -3.409099  1.241492  0.000000
  1 -1.252261  2.488018  0.000000
  1  1.252261  2.488018  0.000000
  1  3.409099  1.241492  0.000000
  1  3.409099 -1.241492  0.000000
 nber atoms=          18
 Original standard coords:
  6  0.000000  1.249993  1.400296
  6  0.000000  0.000000  0.726059
  6  0.000000 -1.249993  1.400296
  6  0.000000 -2.468449  0.694141
  6  0.000000 -2.468449 -0.694141
  6  0.000000 -1.249993 -1.400296
  6  0.000000  0.000000 -0.726059
  6  0.000000  1.249993 -1.400296
  6  0.000000  2.468449 -0.694141
  6  0.000000  2.468449  0.694141
  1  0.000000  1.252261  2.488018
  1  0.000000 -1.252261  2.488018
  1  0.000000 -3.409099  1.241492
  1  0.000000 -3.409099 -1.241492
  1  0.000000 -1.252261 -2.488018
  1  0.000000  1.252261 -2.488018
  1  0.000000  3.409099 -1.241492
  1  0.000000  3.409099  1.241492
  SCF Done:  E(UB3LYP) =  -385.969408219     A.U. after    1 cycles             
  
          23          40 "  -385.969408219"
After scan for Atom:   Atom  AN      X      Y      Z        X      Y      Z        X      Y      Z   
After scan for Atom:   Atom  AN      X      Y      Z        X      Y      Z        X      Y      Z   
After scan for Atom:   Atom  AN      X      Y      Z        X      Y      Z        X      Y      Z   
After scan for Atom:   Atom  AN      X      Y      Z        X      Y      Z        X      Y      Z   
After scan for Atom:   Atom  AN      X      Y      Z        X      Y      Z        X      Y      Z   
After scan for Atom:   Atom  AN      X      Y      Z        X      Y      Z        X      Y      Z   
After scan for Atom:   Atom  AN      X      Y      Z        X      Y      Z        X      Y      Z   
After scan for Atom:   Atom  AN      X      Y      Z        X      Y      Z        X      Y      Z   
After scan for Atom:   Atom  AN      X      Y      Z        X      Y      Z        X      Y      Z   
After scan for Atom:   Atom  AN      X      Y      Z        X      Y      Z        X      Y      Z   
After scan for Atom:   Atom  AN      X      Y      Z        X      Y      Z        X      Y      Z   
After scan for Atom:   Atom  AN      X      Y      Z        X      Y      Z        X      Y      Z   
After scan for Atom:   Atom  AN      X      Y      Z        X      Y      Z        X      Y      Z   
After scan for Atom:   Atom  AN      X      Y      Z        X      Y      Z        X      Y      Z   
After scan for Atom:   Atom  AN      X      Y      Z        X      Y      Z        X      Y      Z   
After scan for Atom:   Atom  AN      X      Y      Z        X      Y      Z        X      Y      Z   
 g94    frequencies=
     0.0    0.0    0.0    0.0    0.0    0.0  163.3  177.0  299.9  366.5
   465.9  510.5  512.0  516.0  582.9  610.3  645.1  694.1  700.7  716.6
   741.9  749.0  752.5  796.9  798.3  846.7  864.2  892.4 1020.8 1051.4
  1059.9 1104.1 1154.2 1157.6 1208.9 1221.1 1262.3 1365.2 1392.3 1397.1
  1404.3 1439.4 1465.9 1526.9 1528.7 1596.8 3092.2 3094.8 3104.7 3110.1
  3118.1 3123.1 3133.1 3139.0
 g94    symmetries=
                                                AU     B3     B1     B1
      B3     AG     B3     B2     AU     B2     B1     AU     B3     B2
      B1     AG     B3     B1     B2     AU     B2     B3     B2     AG
      B3     B1     B2     AG     B2     B3     B1     AG     B1     B2
      B3     B3     AG     B2     B1     AG     B3     B1     B2     AG
      B3     B1     B2     AG
 atomic masses:
 12.0000 12.0000 12.0000 12.0000 12.0000 12.0000 12.0000 12.0000 12.0000 12.0000
  1.0078  1.0078  1.0078  1.0078  1.0078  1.0078  1.0078  1.0078
 looking for force constants in 
 ./Benzene_Conj_1_C-1S0.fchk                                                    
  
 Cartesian Force Constants                  R   N=        1485                  
  
 n3=          54        1485
 g94-fc frequencies=
    -0.0   -0.0   -0.0    1.9    2.3    4.7  163.3  177.0  299.9  366.5
   465.9  510.6  512.0  516.0  582.9  610.3  645.1  694.1  700.7  716.6
   741.9  749.0  752.5  796.9  798.4  846.7  864.2  892.4 1020.8 1051.4
  1059.9 1104.2 1154.2 1157.6 1209.0 1221.1 1262.3 1365.2 1392.4 1397.2
  1404.3 1439.4 1465.9 1526.9 1528.8 1596.8 3092.2 3094.9 3104.8 3110.1
  3118.1 3123.2 3133.2 3139.1
 at 99999: n3=          54
 symm operator            1 :  T  nop=           1
 symm operator            2 :  T  nop=           2
 symm operator            3 :  T  nop=           3
 symm operator            4 :  T  nop=           4
 symm operator            5 :  T  nop=           5
 symm operator            6 :  T  nop=           6
 symm operator            7 :  T  nop=           7
 The point group of the molecule is D2H
 enforcing symm op           1  jsymt=          -1          -1           1
 enforcing symm op           2  jsymt=          -1           1          -1
 enforcing symm op           3  jsymt=           1          -1          -1
 enforcing symm op           4  jsymt=          -1          -1          -1
 enforcing symm op           5  jsymt=           1           1          -1
 enforcing symm op           6  jsymt=           1          -1           1
 enforcing symm op           7  jsymt=          -1           1           1
 cartesian coord symmetries:
 Ag :    9 Au :    4 B1g:    4 B1u:    9 B2g:    5 B2u:    9 B3g:    9 B3u:    5
 Symmetry rotation matrix:
   1.00000   0.00000   0.00000
   0.00000   1.00000   0.00000
   0.00000   0.00000   1.00000

 Projecting out zero-frequency components
 generating redundant internal coords
         300        3600          18
 search for int coords
   1 str   2   1   1.420
   2 str   3   2   1.420
   3 str   4   3   1.408
   4 str   5   4   1.388
   5 str   6   5   1.408
   6 str   7   2   1.452
   7 str   7   6   1.420
   8 str   8   7   1.420
   9 str   9   8   1.408
  10 str  10   1   1.408
  11 str  10   9   1.388
  12 str  11   1   1.088
  13 str  12   3   1.088
  14 str  13   4   1.088
  15 str  14   5   1.088
  16 str  15   6   1.088
  17 str  16   8   1.088
  18 str  17   9   1.088
  19 str  18  10   1.088
 nber stretches=          19
  20 ben   1   2   3
  21 prop tor   1   2   3   4
  22 prop tor   1   2   3  12
  23 ben   1   2   7
  24 prop tor   1   2   7   6
  25 prop tor   1   2   7   8
  26 ben   1  10   9
  27 ben   1  10  18
  28 ben   2   1  10
  29 prop tor   2   1  10   9
  30 prop tor   2   1  10  18
  31 ben   2   1  11
  32 ben   2   3   4
  33 prop tor   2   3   4   5
  34 prop tor   2   3   4  13
  35 ben   2   3  12
  36 ben   2   7   6
  37 ben   2   7   8
  38 prop tor   2   7   8   9
  39 prop tor   2   7   8  16
  40 ben   3   2   7
  41 prop tor   3   2   7   6
  42 prop tor   3   2   7   8
  43 ben   3   4   5
  44 prop tor   3   4   5   6
  45 prop tor   3   4   5  14
  46 ben   3   4  13
  47 ben   4   3  12
  48 ben   4   5   6
  49 prop tor   4   5   6   7
  50 prop tor   4   5   6  15
  51 ben   4   5  14
  52 ben   5   4  13
  53 ben   5   6   7
  54 prop tor   5   6   7   2
  55 prop tor   5   6   7   8
  56 ben   5   6  15
  57 ben   6   5  14
  58 ben   6   7   8
  59 prop tor   6   7   8   9
  60 prop tor   6   7   8  16
  61 prop tor   7   2   3   4
  62 prop tor   7   2   3  12
  63 ben   7   6  15
  64 ben   7   8   9
  65 prop tor   7   8   9  10
  66 prop tor   7   8   9  17
  67 ben   7   8  16
  68 ben   8   9  10
  69 prop tor   8   9  10   1
  70 prop tor   8   9  10  18
  71 ben   8   9  17
  72 ben   9   8  16
  73 ben   9  10  18
  74 prop tor  10   1   2   3
  75 prop tor  10   1   2   7
  76 ben  10   1  11
  77 ben  10   9  17
  78 prop tor  11   1   2   3
  79 prop tor  11   1   2   7
  80 prop tor  11   1  10   9
  81 prop tor  11   1  10  18
  82 prop tor  12   3   4   5
  83 prop tor  12   3   4  13
  84 prop tor  13   4   5   6
  85 prop tor  13   4   5  14
  86 prop tor  14   5   6   7
  87 prop tor  14   5   6  15
  88 prop tor  15   6   7   2
  89 prop tor  15   6   7   8
  90 prop tor  16   8   9  10
  91 prop tor  16   8   9  17
  92 prop tor  17   9  10   1
  93 prop tor  17   9  10  18
 nber bend=              30
 nber lin bend=           0
 nber prop tor=          44
 nber impr tor=           0
 nber tot redund int=          93
 Eigenvalues of G in red int coords
    Gval -0.00000000 -0.00000000 -0.00000000 -0.00000000 -0.00000000 -0.00000000 -0.00000000 -0.00000000
    Gval -0.00000000 -0.00000000 -0.00000000 -0.00000000 -0.00000000 -0.00000000 -0.00000000 -0.00000000
    Gval -0.00000000 -0.00000000 -0.00000000 -0.00000000 -0.00000000 -0.00000000 -0.00000000 -0.00000000
    Gval -0.00000000  0.00000000  0.00000000  0.00000000  0.00000000  0.00000000  0.00000000  0.00000000
    Gval  0.00000000  0.00000000  0.00000000  0.00000000  0.00000000  0.00000000  0.00000000  0.00000000
    Gval  0.00000000  0.00000000  0.00000000  0.00000000  0.00000000  0.00001840  0.00002341  0.00003787
    Gval  0.00004497  0.00005526  0.00007221  0.00007756  0.00010196  0.00010198  0.00012505  0.00013117
    Gval  0.00013298  0.00014983  0.00021221  0.00021908  0.00028814  0.00037078  0.00037829  0.00039190
    Gval  0.00048570  0.00059298  0.00059326  0.00059566  0.00059840  0.00060872  0.00062674  0.00064671
    Gval  0.00066013  0.00071186  0.00072116  0.00103765  0.00105225  0.00110352  0.00110649  0.00111418
    Gval  0.00114542  0.00115043  0.00116265  0.00116282  0.00164578  0.00187158  0.00189426  0.00247306
    Gval  0.00283070  0.00333878  0.00358793  0.00395740  0.00400879
  1.839527170766506E-005  1.839527170766506E-005
  2.340879258543815E-005  1.839527170766506E-005
  3.786873423819749E-005  1.839527170766506E-005
  4.497007705639710E-005  1.839527170766506E-005
  5.525886100958254E-005  1.839527170766506E-005
  7.220572862293715E-005  1.839527170766506E-005
  7.756047884438984E-005  1.839527170766506E-005
  1.019638810411535E-004  1.839527170766506E-005
  1.019762754130956E-004  1.839527170766506E-005
  1.250498565940358E-004  1.839527170766506E-005
  1.311745283182066E-004  1.839527170766506E-005
  1.329800816902281E-004  1.839527170766506E-005
  1.498269943570978E-004  1.839527170766506E-005
  2.122081521188364E-004  1.839527170766506E-005
  2.190836660409578E-004  1.839527170766506E-005
  2.881438694618824E-004  1.839527170766506E-005
  3.707788563283605E-004  1.839527170766506E-005
  3.782947376295925E-004  1.839527170766506E-005
  3.918987067544557E-004  1.839527170766506E-005
  4.857024771038224E-004  1.839527170766506E-005
  5.929764618335787E-004  1.839527170766506E-005
  5.932642606132637E-004  1.839527170766506E-005
  5.956639012538965E-004  1.839527170766506E-005
  5.984048692251576E-004  1.839527170766506E-005
  6.087178485835142E-004  1.839527170766506E-005
  6.267446464114305E-004  1.839527170766506E-005
  6.467140194334479E-004  1.839527170766506E-005
  6.601279333613918E-004  1.839527170766506E-005
  7.118597004939689E-004  1.839527170766506E-005
  7.211552385905940E-004  1.839527170766506E-005
  1.037646818569384E-003  1.839527170766506E-005
  1.052246009294636E-003  1.839527170766506E-005
  1.103524145982443E-003  1.839527170766506E-005
  1.106492546257643E-003  1.839527170766506E-005
  1.114180561121570E-003  1.839527170766506E-005
  1.145424138778461E-003  1.839527170766506E-005
  1.150430685958453E-003  1.839527170766506E-005
  1.162652905647757E-003  1.839527170766506E-005
  1.162824804210540E-003  1.839527170766506E-005
  1.645777612833236E-003  1.839527170766506E-005
  1.871581571327754E-003  1.839527170766506E-005
  1.894262288495454E-003  1.839527170766506E-005
  2.473057013929294E-003  1.839527170766506E-005
  2.830702197787876E-003  1.839527170766506E-005
  3.338780121215287E-003  1.839527170766506E-005
  3.587934579077402E-003  1.839527170766506E-005
  3.957404542738481E-003  1.839527170766506E-005
  4.008789777684510E-003  1.839527170766506E-005
 cut=1d-8, nber non-redundant internal coords=          48
 Check on Eigenvals of non-red overlap matrix:
  0.00001840  0.00002341  0.00003787  0.00004497  0.00005526  0.00007221  0.00007756  0.00010196
  0.00010198  0.00012505  0.00013117  0.00013298  0.00014983  0.00021221  0.00021908  0.00028814
  0.00037078  0.00037829  0.00039190  0.00048570  0.00059298  0.00059326  0.00059566  0.00059840
  0.00060872  0.00062674  0.00064671  0.00066013  0.00071186  0.00072116  0.00103765  0.00105225
  0.00110352  0.00110649  0.00111418  0.00114542  0.00115043  0.00116265  0.00116282  0.00164578
  0.00187158  0.00189426  0.00247306  0.00283070  0.00333878  0.00358793  0.00395740  0.00400879
 Checking for correct frequencies
 recalc frequencies=
    -0.0   -0.0    0.0    0.0    0.0    0.0  163.3  177.0  299.9  366.5
   465.9  510.6  512.0  516.0  582.9  610.3  645.1  694.1  700.7  716.6
   741.9  749.0  752.5  796.9  798.4  846.7  864.2  892.4 1020.8 1051.4
  1059.9 1104.2 1154.2 1157.6 1209.0 1221.1 1262.3 1365.2 1392.4 1397.2
  1404.3 1439.4 1465.9 1526.9 1528.8 1596.8 3092.2 3094.9 3104.8 3110.1
  3118.1 3123.2 3133.2 3139.1
 recalc symmetries=
     B3g    B1g    B2g    B2u    B3u    B1u    Au     B3u    B1g    B1u
     B3u    Ag     B3g    B2g    Au     B2u    B1g    Au     B3u    B2g
     B1g    Ag     B3u    B1u    B2g    Au     B2g    B3g    B2u    Ag 
     B3g    B1u    B2u    Ag     B2u    B3g    B1u    Ag     B1u    B2u
     B3g    B3g    Ag     B2u    B1u    Ag     B3g    B1u    B2u    Ag 
     B3g    B1u    B2u    Ag 
 recalc freqs check OK
 Zero-point lengths:
 10.0000 10.0000 10.0000 10.0000 10.0000 10.0000 19.3971 18.6323 14.3164 12.9504
 11.4855 10.9716 10.9560 10.9141 10.2683 10.0348  9.7605  9.4097  9.3653  9.2608
  9.1019  9.0584  9.0372  8.7819  8.7740  8.5197  8.4332  8.2987  7.7593  7.6455
  7.6149  7.4607  7.2972  7.2864  7.1300  7.0944  6.9778  6.7096  6.6438  6.6324
  6.6156  6.5343  6.4750  6.3444  6.3405  6.2040  4.4582  4.4563  4.4492  4.4454
  4.4397  4.4361  4.4290  4.4248
 highest evec of mol 2
  0.0000  0.0041 -0.0954
  0.0000  0.0000 -0.0010
  0.0000 -0.0041 -0.0954
  0.0000  0.0963 -0.0581
  0.0000  0.0963  0.0581
  0.0000 -0.0041  0.0954
  0.0000  0.0000  0.0010
  0.0000  0.0041  0.0954
  0.0000 -0.0963  0.0581
  0.0000 -0.0963 -0.0581
  0.0000  0.0002  0.3138
  0.0000 -0.0002  0.3138
  0.0000 -0.3111  0.1815
  0.0000 -0.3111 -0.1815
  0.0000 -0.0002 -0.3138
  0.0000  0.0002 -0.3138
  0.0000  0.3111 -0.1815
  0.0000  0.3111  0.1815
 Enter nber and list of atoms to keep of mol #2
 keep list:          18           1           2           3           4
           5           6           7           8           9          10
          11          12          13          14          15          16
          17          18
 reordering atoms
           1   1.24999300000000     
           2  0.000000000000000E+000
           3  -1.24999300000000     
           4  -2.46844900000000     
           5  -2.46844900000000     
           6  -1.24999300000000     
           7  0.000000000000000E+000
           8   1.24999300000000     
           9   2.46844900000000     
          10   2.46844900000000     
          11   1.25226100000000     
          12  -1.25226100000000     
          13  -3.40909900000000     
          14  -3.40909900000000     
          15  -1.25226100000000     
          16   1.25226100000000     
          17   3.40909900000000     
          18   3.40909900000000     
           1           1
           2           2
           3           3
           4           4
           5           5
           6           6
           7           7
           8           8
           9           9
          10          10
          11          11
          12          12
          13          13
          14          14
          15          15
          16          16
          17          17
          18          18
 initial cartes coords mol 1
   6   0.00000   1.40032   1.24360
   6   0.00000   0.71571   0.00000
   6   0.00000   1.40032  -1.24360
   6   0.00000   0.70743  -2.42972
   6   0.00000  -0.70743  -2.42972
   6   0.00000  -1.40032  -1.24360
   6   0.00000  -0.71571   0.00000
   6   0.00000  -1.40032   1.24360
   6   0.00000  -0.70743   2.42972
   6   0.00000   0.70743   2.42972
   1   0.00000   2.48556   1.24214
   1   0.00000   2.48556  -1.24214
   1   0.00000   1.24305  -3.37259
   1   0.00000  -1.24305  -3.37259
   1   0.00000  -2.48556  -1.24214
   1   0.00000  -2.48556   1.24214
   1   0.00000  -1.24305   3.37259
   1   0.00000   1.24305   3.37259
 initial cartes coords mol 2
   6   0.00000   1.40030   1.24999
   6   0.00000   0.72606   0.00000
   6   0.00000   1.40030  -1.24999
   6   0.00000   0.69414  -2.46845
   6   0.00000  -0.69414  -2.46845
   6   0.00000  -1.40030  -1.24999
   6   0.00000  -0.72606   0.00000
   6   0.00000  -1.40030   1.24999
   6   0.00000  -0.69414   2.46845
   6   0.00000   0.69414   2.46845
   1   0.00000   2.48802   1.25226
   1   0.00000   2.48802  -1.25226
   1   0.00000   1.24149  -3.40910
   1   0.00000  -1.24149  -3.40910
   1   0.00000  -2.48802  -1.25226
   1   0.00000  -2.48802   1.25226
   1   0.00000  -1.24149   3.40910
   1   0.00000   1.24149   3.40910
 loop 1 0
 mod cartes coords mol 2
   6   0.00000   1.40030   1.24999
   6   0.00000   0.72606   0.00000
   6   0.00000   1.40030  -1.24999
   6   0.00000   0.69414  -2.46845
   6   0.00000  -0.69414  -2.46845
   6   0.00000  -1.40030  -1.24999
   6   0.00000  -0.72606   0.00000
   6   0.00000  -1.40030   1.24999
   6   0.00000  -0.69414   2.46845
   6   0.00000   0.69414   2.46845
   1   0.00000   2.48802   1.25226
   1   0.00000   2.48802  -1.25226
   1   0.00000   1.24149  -3.40910
   1   0.00000  -1.24149  -3.40910
   1   0.00000  -2.48802  -1.25226
   1   0.00000  -2.48802   1.25226
   1   0.00000  -1.24149   3.40910
   1   0.00000   1.24149   3.40910
 read in order, maxerr=  0.04 for atom   4
 final axis swaps:           1           1           1
 final xyz swap pattern=           1
 reorder list:
   1   2   3   4   5   6   7   8   9  10  11  12  13  14  15  16  17  18
 axis signs=           1           1           1
  6     0.000000  1.400296  1.249993     0.000000  1.400320  1.243597
  6     0.000000  0.726059  0.000000     0.000000  0.715707  0.000000
  6     0.000000  1.400296 -1.249993     0.000000  1.400320 -1.243597
  6     0.000000  0.694141 -2.468449     0.000000  0.707429 -2.429721
  6     0.000000 -0.694141 -2.468449     0.000000 -0.707429 -2.429721
  6     0.000000 -1.400296 -1.249993     0.000000 -1.400320 -1.243597
  6     0.000000 -0.726059  0.000000     0.000000 -0.715707  0.000000
  6     0.000000 -1.400296  1.249993     0.000000 -1.400320  1.243597
  6     0.000000 -0.694141  2.468449     0.000000 -0.707429  2.429721
  6     0.000000  0.694141  2.468449     0.000000  0.707429  2.429721
  1     0.000000  2.488018  1.252261     0.000000  2.485561  1.242140
  1     0.000000  2.488018 -1.252261     0.000000  2.485561 -1.242140
  1     0.000000  1.241492 -3.409099     0.000000  1.243049 -3.372589
  1     0.000000 -1.241492 -3.409099     0.000000 -1.243049 -3.372589
  1     0.000000 -2.488018 -1.252261     0.000000 -2.485561 -1.242140
  1     0.000000 -2.488018  1.252261     0.000000 -2.485561  1.242140
  1     0.000000 -1.241492  3.409099     0.000000 -1.243049  3.372589
  1     0.000000  1.241492  3.409099     0.000000  1.243049  3.372589
 generating redundant internal coords
         300        3600          18
 Adding extra bonds for z output only
           6           6           6           6           6           6
           6           6           6           6           1           1
           1           1           1           1           1           1
 search for int coords
   1 str   2   1   1.420
   2 str   3   2   1.420
   3 str   4   3   1.408
   4 str   5   4   1.388
   5 str   6   5   1.408
   6 str   7   2   1.452
   7 str   7   6   1.420
   8 str   8   7   1.420
   9 str   9   8   1.408
  10 str  10   1   1.408
  11 str  10   9   1.388
  12 str  11   1   1.088
  13 str  12   3   1.088
  14 str  13   4   1.088
  15 str  14   5   1.088
  16 str  15   6   1.088
  17 str  16   8   1.088
  18 str  17   9   1.088
  19 str  18  10   1.088
 nber stretches=          19
  20 ben   1   2   3
  21 prop tor   1   2   3   4
  22 prop tor   1   2   3  12
  23 ben   1   2   7
  24 prop tor   1   2   7   6
  25 prop tor   1   2   7   8
  26 ben   1  10   9
  27 ben   1  10  18
  28 ben   2   1  10
  29 prop tor   2   1  10   9
  30 prop tor   2   1  10  18
  31 ben   2   1  11
  32 ben   2   3   4
  33 prop tor   2   3   4   5
  34 prop tor   2   3   4  13
  35 ben   2   3  12
  36 ben   2   7   6
  37 ben   2   7   8
  38 prop tor   2   7   8   9
  39 prop tor   2   7   8  16
  40 ben   3   2   7
  41 prop tor   3   2   7   6
  42 prop tor   3   2   7   8
  43 ben   3   4   5
  44 prop tor   3   4   5   6
  45 prop tor   3   4   5  14
  46 ben   3   4  13
  47 ben   4   3  12
  48 ben   4   5   6
  49 prop tor   4   5   6   7
  50 prop tor   4   5   6  15
  51 ben   4   5  14
  52 ben   5   4  13
  53 ben   5   6   7
  54 prop tor   5   6   7   2
  55 prop tor   5   6   7   8
  56 ben   5   6  15
  57 ben   6   5  14
  58 ben   6   7   8
  59 prop tor   6   7   8   9
  60 prop tor   6   7   8  16
  61 prop tor   7   2   3   4
  62 prop tor   7   2   3  12
  63 ben   7   6  15
  64 ben   7   8   9
  65 prop tor   7   8   9  10
  66 prop tor   7   8   9  17
  67 ben   7   8  16
  68 ben   8   9  10
  69 prop tor   8   9  10   1
  70 prop tor   8   9  10  18
  71 ben   8   9  17
  72 ben   9   8  16
  73 ben   9  10  18
  74 prop tor  10   1   2   3
  75 prop tor  10   1   2   7
  76 ben  10   1  11
  77 ben  10   9  17
  78 prop tor  11   1   2   3
  79 prop tor  11   1   2   7
  80 prop tor  11   1  10   9
  81 prop tor  11   1  10  18
  82 prop tor  12   3   4   5
  83 prop tor  12   3   4  13
  84 prop tor  13   4   5   6
  85 prop tor  13   4   5  14
  86 prop tor  14   5   6   7
  87 prop tor  14   5   6  15
  88 prop tor  15   6   7   2
  89 prop tor  15   6   7   8
  90 prop tor  16   8   9  10
  91 prop tor  16   8   9  17
  92 prop tor  17   9  10   1
  93 prop tor  17   9  10  18
 nber bend=              30
 nber lin bend=           0
 nber prop tor=          44
 nber impr tor=           0
 nber tot redund int=          93
 generating redundant internal coords
         300        3600          18
 search for int coords
   1 str   2   1   1.420
   2 str   3   2   1.420
   3 str   4   3   1.374
   4 str   5   4   1.415
   5 str   6   5   1.374
   6 str   7   2   1.431
   7 str   7   6   1.420
   8 str   8   7   1.420
   9 str   9   8   1.374
  10 str  10   1   1.374
  11 str  10   9   1.415
  12 str  11   1   1.085
  13 str  12   3   1.085
  14 str  13   4   1.084
  15 str  14   5   1.084
  16 str  15   6   1.085
  17 str  16   8   1.085
  18 str  17   9   1.084
  19 str  18  10   1.084
 nber stretches=          19
  20 ben   1   2   3
  21 prop tor   1   2   3   4
  22 prop tor   1   2   3  12
  23 ben   1   2   7
  24 prop tor   1   2   7   6
  25 prop tor   1   2   7   8
  26 ben   1  10   9
  27 ben   1  10  18
  28 ben   2   1  10
  29 prop tor   2   1  10   9
  30 prop tor   2   1  10  18
  31 ben   2   1  11
  32 ben   2   3   4
  33 prop tor   2   3   4   5
  34 prop tor   2   3   4  13
  35 ben   2   3  12
  36 ben   2   7   6
  37 ben   2   7   8
  38 prop tor   2   7   8   9
  39 prop tor   2   7   8  16
  40 ben   3   2   7
  41 prop tor   3   2   7   6
  42 prop tor   3   2   7   8
  43 ben   3   4   5
  44 prop tor   3   4   5   6
  45 prop tor   3   4   5  14
  46 ben   3   4  13
  47 ben   4   3  12
  48 ben   4   5   6
  49 prop tor   4   5   6   7
  50 prop tor   4   5   6  15
  51 ben   4   5  14
  52 ben   5   4  13
  53 ben   5   6   7
  54 prop tor   5   6   7   2
  55 prop tor   5   6   7   8
  56 ben   5   6  15
  57 ben   6   5  14
  58 ben   6   7   8
  59 prop tor   6   7   8   9
  60 prop tor   6   7   8  16
  61 prop tor   7   2   3   4
  62 prop tor   7   2   3  12
  63 ben   7   6  15
  64 ben   7   8   9
  65 prop tor   7   8   9  10
  66 prop tor   7   8   9  17
  67 ben   7   8  16
  68 ben   8   9  10
  69 prop tor   8   9  10   1
  70 prop tor   8   9  10  18
  71 ben   8   9  17
  72 ben   9   8  16
  73 ben   9  10  18
  74 prop tor  10   1   2   3
  75 prop tor  10   1   2   7
  76 ben  10   1  11
  77 ben  10   9  17
  78 prop tor  11   1   2   3
  79 prop tor  11   1   2   7
  80 prop tor  11   1  10   9
  81 prop tor  11   1  10  18
  82 prop tor  12   3   4   5
  83 prop tor  12   3   4  13
  84 prop tor  13   4   5   6
  85 prop tor  13   4   5  14
  86 prop tor  14   5   6   7
  87 prop tor  14   5   6  15
  88 prop tor  15   6   7   2
  89 prop tor  15   6   7   8
  90 prop tor  16   8   9  10
  91 prop tor  16   8   9  17
  92 prop tor  17   9  10   1
  93 prop tor  17   9  10  18
 nber bend=              30
 nber lin bend=           0
 nber prop tor=          44
 nber impr tor=           0
 nber tot redund int=          93
 Eigenvalues of G in red int coords
    Gval -0.00000000 -0.00000000 -0.00000000 -0.00000000 -0.00000000 -0.00000000 -0.00000000 -0.00000000
    Gval -0.00000000 -0.00000000 -0.00000000 -0.00000000 -0.00000000 -0.00000000 -0.00000000 -0.00000000
    Gval -0.00000000 -0.00000000 -0.00000000 -0.00000000 -0.00000000 -0.00000000 -0.00000000  0.00000000
    Gval  0.00000000  0.00000000  0.00000000  0.00000000  0.00000000  0.00000000  0.00000000  0.00000000
    Gval  0.00000000  0.00000000  0.00000000  0.00000000  0.00000000  0.00000000  0.00000000  0.00000000
    Gval  0.00000000  0.00000000  0.00000000  0.00000000  0.00000000  0.00001847  0.00002367  0.00003746
    Gval  0.00004521  0.00005531  0.00007222  0.00007782  0.00010236  0.00010312  0.00012748  0.00013128
    Gval  0.00013414  0.00014903  0.00021066  0.00022371  0.00028992  0.00037328  0.00037993  0.00039920
    Gval  0.00049097  0.00059298  0.00059327  0.00059579  0.00059847  0.00060931  0.00062769  0.00064837
    Gval  0.00066173  0.00072154  0.00072433  0.00104422  0.00105901  0.00111173  0.00111660  0.00111866
    Gval  0.00115772  0.00116186  0.00117016  0.00117040  0.00166078  0.00189900  0.00190223  0.00248570
    Gval  0.00283428  0.00339129  0.00363498  0.00398142  0.00403599
  1.847055247904099E-005  1.847055247904099E-005
  2.367128731539249E-005  1.847055247904099E-005
  3.746228758553105E-005  1.847055247904099E-005
  4.520540210127677E-005  1.847055247904099E-005
  5.530870340831327E-005  1.847055247904099E-005
  7.222080013474412E-005  1.847055247904099E-005
  7.781886335509207E-005  1.847055247904099E-005
  1.023591627643542E-004  1.847055247904099E-005
  1.031183254448260E-004  1.847055247904099E-005
  1.274842283876596E-004  1.847055247904099E-005
  1.312841412458951E-004  1.847055247904099E-005
  1.341410875899075E-004  1.847055247904099E-005
  1.490312071895223E-004  1.847055247904099E-005
  2.106613923810081E-004  1.847055247904099E-005
  2.237122815536810E-004  1.847055247904099E-005
  2.899196843429496E-004  1.847055247904099E-005
  3.732830857438012E-004  1.847055247904099E-005
  3.799290027072714E-004  1.847055247904099E-005
  3.992026814420193E-004  1.847055247904099E-005
  4.909695417957574E-004  1.847055247904099E-005
  5.929759350378910E-004  1.847055247904099E-005
  5.932668051525435E-004  1.847055247904099E-005
  5.957926563088720E-004  1.847055247904099E-005
  5.984695069258417E-004  1.847055247904099E-005
  6.093140603300500E-004  1.847055247904099E-005
  6.276887898105669E-004  1.847055247904099E-005
  6.483737743557960E-004  1.847055247904099E-005
  6.617283415797715E-004  1.847055247904099E-005
  7.215394164990663E-004  1.847055247904099E-005
  7.243313564671117E-004  1.847055247904099E-005
  1.044216673026874E-003  1.847055247904099E-005
  1.059007381150029E-003  1.847055247904099E-005
  1.111730745057020E-003  1.847055247904099E-005
  1.116604588592495E-003  1.847055247904099E-005
  1.118655445544896E-003  1.847055247904099E-005
  1.157715988692480E-003  1.847055247904099E-005
  1.161855835152581E-003  1.847055247904099E-005
  1.170156761657873E-003  1.847055247904099E-005
  1.170396233363656E-003  1.847055247904099E-005
  1.660784663314053E-003  1.847055247904099E-005
  1.898997904782266E-003  1.847055247904099E-005
  1.902225932689062E-003  1.847055247904099E-005
  2.485703675079928E-003  1.847055247904099E-005
  2.834277496238640E-003  1.847055247904099E-005
  3.391287180290531E-003  1.847055247904099E-005
  3.634983845505136E-003  1.847055247904099E-005
  3.981420056080045E-003  1.847055247904099E-005
  4.035987883272601E-003  1.847055247904099E-005
 cut=1d-8, nber non-redundant internal coords=          48
 Check on Eigenvals of non-red overlap matrix:
  0.00001847  0.00002367  0.00003746  0.00004521  0.00005531  0.00007222  0.00007782  0.00010236
  0.00010312  0.00012748  0.00013128  0.00013414  0.00014903  0.00021066  0.00022371  0.00028992
  0.00037328  0.00037993  0.00039920  0.00049097  0.00059298  0.00059327  0.00059579  0.00059847
  0.00060931  0.00062769  0.00064837  0.00066173  0.00072154  0.00072433  0.00104422  0.00105901
  0.00111173  0.00111660  0.00111866  0.00115772  0.00116186  0.00117016  0.00117040  0.00166078
  0.00189900  0.00190223  0.00248570  0.00283428  0.00339129  0.00363498  0.00398142  0.00403599
 generating redundant internal coords
         300        3600          18
 search for int coords
   1 str   2   1   1.420
   2 str   3   2   1.420
   3 str   4   3   1.408
   4 str   5   4   1.388
   5 str   6   5   1.408
   6 str   7   2   1.452
   7 str   7   6   1.420
   8 str   8   7   1.420
   9 str   9   8   1.408
  10 str  10   1   1.408
  11 str  10   9   1.388
  12 str  11   1   1.088
  13 str  12   3   1.088
  14 str  13   4   1.088
  15 str  14   5   1.088
  16 str  15   6   1.088
  17 str  16   8   1.088
  18 str  17   9   1.088
  19 str  18  10   1.088
 nber stretches=          19
  20 ben   1   2   3
  21 prop tor   1   2   3   4
  22 prop tor   1   2   3  12
  23 ben   1   2   7
  24 prop tor   1   2   7   6
  25 prop tor   1   2   7   8
  26 ben   1  10   9
  27 ben   1  10  18
  28 ben   2   1  10
  29 prop tor   2   1  10   9
  30 prop tor   2   1  10  18
  31 ben   2   1  11
  32 ben   2   3   4
  33 prop tor   2   3   4   5
  34 prop tor   2   3   4  13
  35 ben   2   3  12
  36 ben   2   7   6
  37 ben   2   7   8
  38 prop tor   2   7   8   9
  39 prop tor   2   7   8  16
  40 ben   3   2   7
  41 prop tor   3   2   7   6
  42 prop tor   3   2   7   8
  43 ben   3   4   5
  44 prop tor   3   4   5   6
  45 prop tor   3   4   5  14
  46 ben   3   4  13
  47 ben   4   3  12
  48 ben   4   5   6
  49 prop tor   4   5   6   7
  50 prop tor   4   5   6  15
  51 ben   4   5  14
  52 ben   5   4  13
  53 ben   5   6   7
  54 prop tor   5   6   7   2
  55 prop tor   5   6   7   8
  56 ben   5   6  15
  57 ben   6   5  14
  58 ben   6   7   8
  59 prop tor   6   7   8   9
  60 prop tor   6   7   8  16
  61 prop tor   7   2   3   4
  62 prop tor   7   2   3  12
  63 ben   7   6  15
  64 ben   7   8   9
  65 prop tor   7   8   9  10
  66 prop tor   7   8   9  17
  67 ben   7   8  16
  68 ben   8   9  10
  69 prop tor   8   9  10   1
  70 prop tor   8   9  10  18
  71 ben   8   9  17
  72 ben   9   8  16
  73 ben   9  10  18
  74 prop tor  10   1   2   3
  75 prop tor  10   1   2   7
  76 ben  10   1  11
  77 ben  10   9  17
  78 prop tor  11   1   2   3
  79 prop tor  11   1   2   7
  80 prop tor  11   1  10   9
  81 prop tor  11   1  10  18
  82 prop tor  12   3   4   5
  83 prop tor  12   3   4  13
  84 prop tor  13   4   5   6
  85 prop tor  13   4   5  14
  86 prop tor  14   5   6   7
  87 prop tor  14   5   6  15
  88 prop tor  15   6   7   2
  89 prop tor  15   6   7   8
  90 prop tor  16   8   9  10
  91 prop tor  16   8   9  17
  92 prop tor  17   9  10   1
  93 prop tor  17   9  10  18
 nber bend=              30
 nber lin bend=           0
 nber prop tor=          44
 nber impr tor=           0
 nber tot redund int=          93
 Eigenvalues of G in red int coords
    Gval -0.00000000 -0.00000000 -0.00000000 -0.00000000 -0.00000000 -0.00000000 -0.00000000 -0.00000000
    Gval -0.00000000 -0.00000000 -0.00000000 -0.00000000 -0.00000000 -0.00000000 -0.00000000 -0.00000000
    Gval -0.00000000 -0.00000000 -0.00000000 -0.00000000 -0.00000000 -0.00000000 -0.00000000  0.00000000
    Gval  0.00000000  0.00000000  0.00000000  0.00000000  0.00000000  0.00000000  0.00000000  0.00000000
    Gval  0.00000000  0.00000000  0.00000000  0.00000000  0.00000000  0.00000000  0.00000000  0.00000000
    Gval  0.00000000  0.00000000  0.00000000  0.00000000  0.00000000  0.00001840  0.00002341  0.00003787
    Gval  0.00004497  0.00005526  0.00007221  0.00007756  0.00010196  0.00010198  0.00012505  0.00013117
    Gval  0.00013298  0.00014983  0.00021221  0.00021908  0.00028814  0.00037078  0.00037829  0.00039190
    Gval  0.00048570  0.00059298  0.00059326  0.00059566  0.00059840  0.00060872  0.00062674  0.00064671
    Gval  0.00066013  0.00071186  0.00072116  0.00103765  0.00105225  0.00110352  0.00110649  0.00111418
    Gval  0.00114542  0.00115043  0.00116265  0.00116282  0.00164578  0.00187158  0.00189426  0.00247306
    Gval  0.00283070  0.00333878  0.00358793  0.00395740  0.00400879
  1.839527170766503E-005  1.839527170766503E-005
  2.340879258543827E-005  1.839527170766503E-005
  3.786873423819743E-005  1.839527170766503E-005
  4.497007705639703E-005  1.839527170766503E-005
  5.525886100958239E-005  1.839527170766503E-005
  7.220572862293711E-005  1.839527170766503E-005
  7.756047884438979E-005  1.839527170766503E-005
  1.019638810411535E-004  1.839527170766503E-005
  1.019762754130954E-004  1.839527170766503E-005
  1.250498565940353E-004  1.839527170766503E-005
  1.311745283182066E-004  1.839527170766503E-005
  1.329800816902280E-004  1.839527170766503E-005
  1.498269943570977E-004  1.839527170766503E-005
  2.122081521188366E-004  1.839527170766503E-005
  2.190836660409577E-004  1.839527170766503E-005
  2.881438694618817E-004  1.839527170766503E-005
  3.707788563283602E-004  1.839527170766503E-005
  3.782947376295926E-004  1.839527170766503E-005
  3.918987067544555E-004  1.839527170766503E-005
  4.857024771038223E-004  1.839527170766503E-005
  5.929764618335794E-004  1.839527170766503E-005
  5.932642606132643E-004  1.839527170766503E-005
  5.956639012538966E-004  1.839527170766503E-005
  5.984048692251581E-004  1.839527170766503E-005
  6.087178485835148E-004  1.839527170766503E-005
  6.267446464114307E-004  1.839527170766503E-005
  6.467140194334477E-004  1.839527170766503E-005
  6.601279333613918E-004  1.839527170766503E-005
  7.118597004939678E-004  1.839527170766503E-005
  7.211552385905939E-004  1.839527170766503E-005
  1.037646818569385E-003  1.839527170766503E-005
  1.052246009294637E-003  1.839527170766503E-005
  1.103524145982443E-003  1.839527170766503E-005
  1.106492546257645E-003  1.839527170766503E-005
  1.114180561121572E-003  1.839527170766503E-005
  1.145424138778461E-003  1.839527170766503E-005
  1.150430685958454E-003  1.839527170766503E-005
  1.162652905647758E-003  1.839527170766503E-005
  1.162824804210541E-003  1.839527170766503E-005
  1.645777612833237E-003  1.839527170766503E-005
  1.871581571327755E-003  1.839527170766503E-005
  1.894262288495457E-003  1.839527170766503E-005
  2.473057013929291E-003  1.839527170766503E-005
  2.830702197787873E-003  1.839527170766503E-005
  3.338780121215289E-003  1.839527170766503E-005
  3.587934579077395E-003  1.839527170766503E-005
  3.957404542738484E-003  1.839527170766503E-005
  4.008789777684514E-003  1.839527170766503E-005
 cut=1d-8, nber non-redundant internal coords=          48
 Check on Eigenvals of non-red overlap matrix:
  0.00001840  0.00002341  0.00003787  0.00004497  0.00005526  0.00007221  0.00007756  0.00010196
  0.00010198  0.00012505  0.00013117  0.00013298  0.00014983  0.00021221  0.00021908  0.00028814
  0.00037078  0.00037829  0.00039190  0.00048570  0.00059298  0.00059326  0.00059566  0.00059840
  0.00060872  0.00062674  0.00064671  0.00066013  0.00071186  0.00072116  0.00103765  0.00105225
  0.00110352  0.00110649  0.00111418  0.00114542  0.00115043  0.00116265  0.00116282  0.00164578
  0.00187158  0.00189426  0.00247306  0.00283070  0.00333878  0.00358793  0.00395740  0.00400879
 d1=
  10.8   0.0   0.0  -2.6  -0.0   0.0  -0.0   0.0   3.9  -0.0   0.0   4.7   0.0   0.0   0.0   0.0   0.0  -1.7   0.0  -0.0
  -0.0  -0.3   0.0   0.0   0.0  -0.7   0.0  -0.0  -0.0   0.0   0.0   0.7  -0.0  -0.0  -0.0   0.0   0.4  -0.0   0.0   0.0
   0.0   0.0   0.0   0.0  -0.0   0.0   0.0  -0.0
 d2=
  10.8   0.0  -0.0  -2.6  -0.0   0.0  -0.0  -0.0   3.7  -0.0  -0.0   4.8  -0.0   0.0   0.0   0.0  -0.0   1.7   0.0   0.0
   0.0   0.3   0.0   0.0   0.0  -0.7   0.0  -0.0   0.0  -0.0  -0.0   0.7   0.0   0.0  -0.0  -0.0   0.4  -0.0   0.0  -0.0
  -0.0   0.0  -0.0   0.0  -0.0  -0.0  -0.0   0.0
 curvilinear- renormalizn of Dush matrix done
  mol 1 sym            1  -> mol 2 sym            1
  mol 1 sym            2  -> mol 2 sym            2
  mol 1 sym            3  -> mol 2 sym            3
  mol 1 sym            4  -> mol 2 sym            4
  mol 1 sym            5  -> mol 2 sym            5
  mol 1 sym            6  -> mol 2 sym            6
  mol 1 sym            7  -> mol 2 sym            7
  mol 1 sym            8  -> mol 2 sym            8

 Dushinsky matrix, ncs 2 in terms of ncs 1

   mode   freq    coeff     %      %tot     of    at

   1 B3g    -0. -0.0000     0.0     0.0  24 B3g   951.
   2 B1g    -0.  0.0000     0.0     0.0  25 B1g   956.
   3 B2g     0.  0.0000     0.0     0.0  23 B2g   896.
   4 B2u     0.  0.0000     0.0     0.0  16 B2u   636.
   5 B3u     0. -0.0000     0.0     0.0  12 B3u   487.
   6 B1u     0.  0.0000     0.0     0.0  21 B1u   809.
   7 Au    163. -0.9964    99.3   100.4   8 Au    186.
   8 B3u   177. -0.9958    99.2    97.9   7 B3u   173.
   9 B1g   300.  0.9873    97.5    99.0  10 B1g   395.
  10 B1u   366.  0.9995    99.9    98.9   9 B1u   366.
  11 B3u   466.  0.9923    98.5   100.1  12 B3u   487.
  12 Ag    511.  0.9994    99.9    99.3  14 Ag    520.
  13 B3g   512.  0.9997    99.9   100.3  13 B3g   519.
  14 B2g   516. -0.9870    97.4    98.2  11 B2g   480.
  15 Au    583. -0.9833    96.7    98.9  15 Au    635.
  16 B2u   610.  0.9984    99.7    97.8  16 B2u   636.
  17 B1g   645.  0.9850    97.0    99.1  17 B1g   729.
  18 Au    694. -0.9717    94.4    99.3  22 Au    848.
  19 B3u   701.  0.9971    99.4    99.6  20 B3u   799.
  20 B2g   717. -0.8245    68.0    99.3  19 B2g   786.
                 0.5588    31.2          23 B2g   896.
  21 B1g   742.  0.9966    99.3    98.4  25 B1g   956.
  22 Ag    749.  0.9984    99.7    98.4  18 Ag    773.
  23 B3u   753.  0.9944    98.9    98.8  26 B3u   973.
  24 B1u   797. -0.9966    99.3   100.8  21 B1u   809.
  25 B2g   798.  0.5079    25.8    99.0  19 B2g   786.
                 0.7187    51.7          23 B2g   896.
                 0.4600    21.2          28 B2g  1000.
  26 Au    847. -0.9579    91.8    99.7  27 Au    993.
  27 B2g   864. -0.4218    17.8    99.5  23 B2g   896.
                 0.8763    76.8          28 B2g  1000.
  28 B3g   892. -0.9504    90.3    98.4  24 B3g   951.
  29 B2u  1021. -0.9291    86.3    99.7  29 B2u  1035.
  30 Ag   1051. -0.9805    96.1    99.7  30 Ag   1046.
  31 B3g  1060.  0.9244    85.5    99.5  33 B3g  1172.
  32 B1u  1104. -0.9883    97.7    99.2  31 B1u  1151.
  33 B2u  1154.  0.7454    55.6    99.5  32 B2u  1169.
                -0.5976    35.7          35 B2u  1232.
  34 Ag   1158. -0.9876    97.5    99.4  34 Ag   1185.
  35 B2u  1209.  0.5942    35.3   100.0  32 B2u  1169.
                 0.6960    48.4          35 B2u  1232.
                 0.3882    15.1          38 B2u  1391.
  36 B3g  1221. -0.9724    94.5    99.2  36 B3g  1270.
  37 B1u  1262.  0.9942    98.8    99.5  37 B1u  1287.
  38 Ag   1365.  0.9767    95.4    99.7  39 Ag   1398.
  39 B1u  1392.  0.9993    99.9    98.9  40 B1u  1418.
  40 B2u  1397.  0.3612    13.0   100.0  35 B2u  1232.
                -0.8894    79.1          38 B2u  1391.
  41 B3g  1404. -0.8909    79.4    99.5  46 B3g  1670.
  42 B3g  1439.  0.9573    91.6   100.0  42 B3g  1491.
  43 Ag   1466. -0.9375    87.9    99.1  41 Ag   1490.
  44 B2u  1527. -0.9869    97.4    98.6  43 B2u  1548.
  45 B1u  1529. -0.9925    98.5   100.5  45 B1u  1641.
  46 Ag   1597.  0.9479    89.8    99.3  44 Ag   1613.
  47 B3g  3092. -0.9111    83.0   100.0  47 B3g  3154.
                 0.4115    16.9          51 B3g  3172.
  48 B1u  3095. -0.9243    85.4   100.0  48 B1u  3156.
                 0.3815    14.6          52 B1u  3173.
  49 B2u  3105. -0.9834    96.7   100.0  49 B2u  3158.
  50 Ag   3110. -0.9642    93.0   100.0  50 Ag   3162.
  51 B3g  3118.  0.4117    17.0   100.0  47 B3g  3154.
                 0.9112    83.0          51 B3g  3172.
  52 B1u  3123.  0.3816    14.6   100.0  48 B1u  3156.
                 0.9243    85.4          52 B1u  3173.
  53 B2u  3133.  0.9834    96.7   100.0  53 B2u  3185.
  54 Ag   3139.  0.9642    93.0   100.0  54 Ag   3186.
 nber times 1st assigned=           1           0
 nber times 1st assigned=           2           0
 nber times 1st assigned=           3           0
 nber times 1st assigned=           4           0
 nber times 1st assigned=           5           0
 nber times 1st assigned=           6           0
 nber times 1st assigned=           7           0
 nber times 1st assigned=           8           0
 nber times 1st assigned=           9           0
 nber times 1st assigned=          10           0
 nber times 1st assigned=          11           0
 nber times 1st assigned=          13           0
 nber times 1st assigned=          14           0
 nber times 1st assigned=          15           0
 nber times 1st assigned=          17           0
 nber times 1st assigned=          18           0
 nber times 1st assigned=          19           0
 nber times 1st assigned=          20           0
 nber times 1st assigned=          22           0
 nber times 1st assigned=          26           0
 nber times 1st assigned=          27           0
 nber times 1st assigned=          28           0
 nber times 1st assigned=          29           0
 nber times 1st assigned=          30           0
 nber times 1st assigned=          31           0
 nber times 1st assigned=          32           0
 nber times 1st assigned=          33           0
 nber times 1st assigned=          34           0
 nber times 1st assigned=          35           0
 nber times 1st assigned=          36           0
 nber times 1st assigned=          37           0
 nber times 1st assigned=          38           0
 nber times 1st assigned=          39           0
 nber times 1st assigned=          40           0
 nber times 1st assigned=          41           0
 nber times 1st assigned=          42           0
 nber times 1st assigned=          43           0
 nber times 1st assigned=          44           0
 nber times 1st assigned=          45           0
 nber times 1st assigned=          46           0
 nber times 1st assigned=          47           0
 nber times 1st assigned=          48           0
 nber times 1st assigned=          49           0
 nber times 1st assigned=          50           0
 nber times 1st assigned=          51           0
 nber times 1st assigned=          52           0
 nber times 1st assigned=          53           0
 nber times 1st assigned=          54           0
 Dushinsky matrix written to .out file
 modes represented=   47.7248283222967     

 Dushinsky matrix, ncs 1 in terms of ncs 2

   mode   freq    coeff     %      %tot     of    at

   7 B3u   173. -0.9958    99.2    98.3   8 B3u   177.
   8 Au    186. -0.9964    99.3   100.4   7 Au    163.
   9 B1u   366.  0.9995    99.9    98.9  10 B1u   366.
  10 B1g   395.  0.9873    97.5    98.9   9 B1g   300.
  11 B2g   480. -0.9870    97.4    98.2  14 B2g   516.
  12 B3u   487.  0.9923    98.5    99.9  11 B3u   466.
  13 B3g   519.  0.9997    99.9   100.4  13 B3g   512.
  14 Ag    520.  0.9994    99.9    99.5  12 Ag    511.
  15 Au    635. -0.9833    96.7    98.8  15 Au    583.
  16 B2u   636.  0.9984    99.7    97.9  16 B2u   610.
  17 B1g   729.  0.9850    97.0    99.3  17 B1g   645.
  18 Ag    773.  0.9984    99.7    98.4  22 Ag    749.
  19 B2g   786. -0.8245    68.0    98.8  20 B2g   717.
                 0.5079    25.8          25 B2g   798.
  20 B3u   799.  0.9971    99.4    99.7  19 B3u   701.
  21 B1u   809. -0.9966    99.3   100.8  24 B1u   797.
  22 Au    848. -0.9717    94.4    99.7  18 Au    694.
  23 B2g   896.  0.5588    31.2    99.9  20 B2g   717.
                 0.7187    51.7          25 B2g   798.
                -0.4218    17.8          27 B2g   864.
  24 B3g   951. -0.9504    90.3    98.0  28 B3g   892.
  25 B1g   956.  0.9966    99.3    98.4  21 B1g   742.
  26 B3u   973.  0.9944    98.9    98.5  23 B3u   753.
  27 Au    993. -0.9579    91.8    99.3  26 Au    847.
  28 B2g  1000.  0.4600    21.2    99.2  25 B2g   798.
                 0.8763    76.8          27 B2g   864.
  29 B2u  1035. -0.9291    86.3    99.7  29 B2u  1021.
  30 Ag   1046. -0.9805    96.1    99.7  30 Ag   1051.
  31 B1u  1151. -0.9883    97.7    99.0  32 B1u  1104.
  32 B2u  1169.  0.7454    55.6    99.8  33 B2u  1154.
                 0.5942    35.3          35 B2u  1209.
  33 B3g  1172.  0.9244    85.5    99.4  31 B3g  1060.
  34 Ag   1185. -0.9876    97.5    99.4  34 Ag   1158.
  35 B2u  1232. -0.5976    35.7    99.8  33 B2u  1154.
                 0.6960    48.4          35 B2u  1209.
                 0.3612    13.0          40 B2u  1397.
  36 B3g  1270. -0.9724    94.5    99.3  36 B3g  1221.
  37 B1u  1287.  0.9942    98.8    99.5  37 B1u  1262.
  38 B2u  1391.  0.3882    15.1    99.8  35 B2u  1209.
                -0.8894    79.1          40 B2u  1397.
  39 Ag   1398.  0.9767    95.4    99.8  38 Ag   1365.
  40 B1u  1418.  0.9993    99.9    98.9  39 B1u  1392.
  41 Ag   1490. -0.9375    87.9    98.7  43 Ag   1466.
  42 B3g  1491.  0.9573    91.6    99.7  42 B3g  1439.
  43 B2u  1548. -0.9869    97.4    98.7  44 B2u  1527.
  44 Ag   1613.  0.9479    89.8    99.6  46 Ag   1597.
  45 B1u  1641. -0.9925    98.5   100.6  45 B1u  1529.
  46 B3g  1670. -0.8909    79.4   100.2  41 B3g  1404.
  47 B3g  3154. -0.9111    83.0   100.0  47 B3g  3092.
                 0.4117    17.0          51 B3g  3118.
  48 B1u  3156. -0.9243    85.4   100.0  48 B1u  3095.
                 0.3816    14.6          52 B1u  3123.
  49 B2u  3158. -0.9834    96.7   100.0  49 B2u  3105.
  50 Ag   3162. -0.9642    93.0   100.0  50 Ag   3110.
  51 B3g  3172.  0.4115    16.9   100.0  47 B3g  3092.
                 0.9112    83.0          51 B3g  3118.
  52 B1u  3173.  0.3815    14.6   100.0  48 B1u  3095.
                 0.9243    85.4          52 B1u  3123.
  53 B2u  3185.  0.9834    96.7   100.0  53 B2u  3133.
  54 Ag   3186.  0.9642    93.0   100.0  54 Ag   3139.
 nber times 1st assigned=           1           0
 nber times 1st assigned=           2           0
 nber times 1st assigned=           3           0
 nber times 1st assigned=           4           0
 nber times 1st assigned=           5           0
 nber times 1st assigned=           6           0
 nber times 1st assigned=           7           0
 nber times 1st assigned=           8           0
 nber times 1st assigned=           9           0
 nber times 1st assigned=          10           0
 nber times 1st assigned=          11           0
 nber times 1st assigned=          12           0
 nber times 1st assigned=          13           0
 nber times 1st assigned=          14           0
 nber times 1st assigned=          15           0
 nber times 1st assigned=          16           0
 nber times 1st assigned=          17           0
 nber times 1st assigned=          18           0
 nber times 1st assigned=          19           0
 nber times 1st assigned=          20           0
 nber times 1st assigned=          21           0
 nber times 1st assigned=          22           0
 nber times 1st assigned=          23           0
 nber times 1st assigned=          24           0
 nber times 1st assigned=          25           0
 nber times 1st assigned=          26           0
 nber times 1st assigned=          27           0
 nber times 1st assigned=          28           0
 nber times 1st assigned=          29           0
 nber times 1st assigned=          30           0
 nber times 1st assigned=          31           0
 nber times 1st assigned=          32           0
 nber times 1st assigned=          33           0
 nber times 1st assigned=          34           0
 nber times 1st assigned=          35           0
 nber times 1st assigned=          36           0
 nber times 1st assigned=          37           0
 nber times 1st assigned=          38           0
 nber times 1st assigned=          39           0
 nber times 1st assigned=          40           0
 nber times 1st assigned=          41           0
 nber times 1st assigned=          42           0
 nber times 1st assigned=          43           0
 nber times 1st assigned=          44           0
 nber times 1st assigned=          45           0
 nber times 1st assigned=          46           0
 nber times 1st assigned=          47           0
 nber times 1st assigned=          48           0
 nber times 1st assigned=          49           0
 nber times 1st assigned=          50           0
 nber times 1st assigned=          51           0
 nber times 1st assigned=          52           0
 nber times 1st assigned=          53           0
 nber times 1st assigned=          54           0
 modes represented=   47.7248283222967     
 p1=
    0.    0.    0.   -0.   -0.   -0.   -0.   -0.    0.   -0.    0.    0.   -0.   10.   -0.   -0.    0.    3.    0.    0.
   -0.   -0.    0.   -0.   -0.   -0.   -0.    0.    0.   -0.    0.    0.    0.    2.    0.   -0.    0.   -0.   -5.   -0.
   -1.    0.   -0.    4.    0.    0.    0.   -0.   -0.    0.   -0.   -0.    0.    0.
 p2=
    0.   -0.   -0.    0.   -0.    0.   -0.   -0.   -0.    0.   -0.  -10.    0.    0.   -0.   -0.    0.   -0.    0.   -0.
    0.   -3.    0.   -0.    0.   -0.   -0.    0.   -0.   -1.    0.    0.    0.    2.   -0.   -0.    0.    5.   -0.    0.
   -0.   -0.   -1.   -0.   -0.   -4.    0.    0.   -0.    0.   -0.    0.   -0.   -0.

 Displacement: in terms of nc of 1 THEN of nc of 2

   1 B3g freq=    -0. Q=  0.000 lam=    -0.0 B3g freq=    -0. Q=  0.000 lam=    -0.0
   2 B2u freq=    -0. Q=  0.000 lam=    -0.0 B1g freq=    -0. Q=  0.000 lam=    -0.0
   3 B2g freq=    -0. Q=  0.000 lam=    -0.0 B2g freq=     0. Q=  0.000 lam=     0.0
   4 B3u freq=     0. Q= -0.000 lam=     0.0 B2u freq=     0. Q= -0.000 lam=     0.0
   5 B1g freq=     0. Q= -0.000 lam=     0.0 B3u freq=     0. Q= -0.000 lam=     0.0
   6 B1u freq=     0. Q= -0.000 lam=     0.0 B1u freq=     0. Q= -0.000 lam=     0.0
   7 B3u freq=   173. Q= -0.000 lam=     0.0 Au  freq=   163. Q= -0.000 lam=     0.0
   8 Au  freq=   186. Q= -0.000 lam=     0.0 B3u freq=   177. Q= -0.000 lam=     0.0
   9 B1u freq=   366. Q=  0.000 lam=     0.0 B1g freq=   300. Q=  0.000 lam=     0.0
  10 B1g freq=   395. Q= -0.000 lam=     0.0 B1u freq=   366. Q= -0.000 lam=     0.0
  11 B2g freq=   480. Q=  0.000 lam=     0.0 B3u freq=   466. Q=  0.000 lam=     0.0
  12 B3u freq=   487. Q=  0.000 lam=     0.0 Ag  freq=   511. Q=  0.953 lam=   232.0
  13 B3g freq=   519. Q= -0.000 lam=     0.0 B3g freq=   512. Q= -0.000 lam=     0.0
  14 Ag  freq=   520. Q=  0.962 lam=   240.3 B2g freq=   516. Q=  0.000 lam=     0.0
  15 Au  freq=   635. Q= -0.000 lam=     0.0 Au  freq=   583. Q= -0.000 lam=     0.0
  16 B2u freq=   636. Q= -0.000 lam=     0.0 B2u freq=   610. Q= -0.000 lam=     0.0
  17 B1g freq=   729. Q=  0.000 lam=     0.0 B1g freq=   645. Q=  0.000 lam=     0.0
  18 Ag  freq=   773. Q=  0.316 lam=    38.6 Au  freq=   694. Q=  0.000 lam=     0.0
  19 B2g freq=   786. Q=  0.000 lam=     0.0 B3u freq=   701. Q=  0.000 lam=     0.0
  20 B3u freq=   799. Q=  0.000 lam=     0.0 B2g freq=   717. Q=  0.000 lam=     0.0
  21 B1u freq=   809. Q= -0.000 lam=     0.0 B1g freq=   742. Q= -0.000 lam=     0.0
  22 Au  freq=   848. Q= -0.000 lam=     0.0 Ag  freq=   749. Q= -0.371 lam=    51.5
  23 B2g freq=   896. Q=  0.000 lam=     0.0 B3u freq=   753. Q=  0.000 lam=     0.0
  24 B3g freq=   951. Q= -0.000 lam=     0.0 B1u freq=   797. Q= -0.000 lam=     0.0
  25 B1g freq=   956. Q= -0.000 lam=     0.0 B2g freq=   798. Q= -0.000 lam=     0.0
  26 B3u freq=   973. Q= -0.000 lam=     0.0 Au  freq=   847. Q= -0.000 lam=     0.0
  27 Au  freq=   993. Q= -0.000 lam=     0.0 B2g freq=   864. Q= -0.000 lam=     0.0
  28 B2g freq=  1000. Q=  0.000 lam=     0.0 B3g freq=   892. Q=  0.000 lam=     0.0
  29 B2u freq=  1035. Q=  0.000 lam=     0.0 B2u freq=  1021. Q=  0.000 lam=     0.0
  30 Ag  freq=  1046. Q= -0.065 lam=     2.2 Ag  freq=  1051. Q= -0.193 lam=    19.5
  31 B1u freq=  1151. Q=  0.000 lam=     0.0 B3g freq=  1060. Q=  0.000 lam=     0.0
  32 B2u freq=  1169. Q=  0.000 lam=     0.0 B1u freq=  1104. Q=  0.000 lam=     0.0
  33 B3g freq=  1172. Q=  0.000 lam=     0.0 B2u freq=  1154. Q=  0.000 lam=     0.0
  34 Ag  freq=  1185. Q=  0.313 lam=    58.1 Ag  freq=  1158. Q=  0.252 lam=    36.8
  35 B2u freq=  1232. Q=  0.000 lam=     0.0 B2u freq=  1209. Q=  0.000 lam=     0.0
  36 B3g freq=  1270. Q= -0.000 lam=     0.0 B3g freq=  1221. Q= -0.000 lam=     0.0
  37 B1u freq=  1287. Q=  0.000 lam=     0.0 B1u freq=  1262. Q=  0.000 lam=     0.0
  38 B2u freq=  1391. Q= -0.000 lam=     0.0 Ag  freq=  1365. Q= -0.732 lam=   365.5
  39 Ag  freq=  1398. Q= -0.802 lam=   449.9 B1u freq=  1392. Q= -0.000 lam=     0.0
  40 B1u freq=  1418. Q= -0.000 lam=     0.0 B2u freq=  1397. Q= -0.000 lam=     0.0
  41 Ag  freq=  1490. Q= -0.091 lam=     6.2 B3g freq=  1404. Q= -0.000 lam=     0.0
  42 B3g freq=  1491. Q=  0.000 lam=     0.0 B3g freq=  1439. Q=  0.000 lam=     0.0
  43 B2u freq=  1548. Q= -0.000 lam=     0.0 Ag  freq=  1466. Q= -0.100 lam=     7.3
  44 Ag  freq=  1613. Q=  0.613 lam=   302.8 B2u freq=  1527. Q=  0.000 lam=     0.0
  45 B1u freq=  1641. Q=  0.000 lam=     0.0 B1u freq=  1529. Q=  0.000 lam=     0.0
  46 B3g freq=  1670. Q=  0.000 lam=     0.0 Ag  freq=  1597. Q=  0.617 lam=   304.1
  47 B3g freq=  3154. Q=  0.000 lam=     0.0 B3g freq=  3092. Q=  0.000 lam=     0.0
  48 B1u freq=  3156. Q= -0.000 lam=     0.0 B1u freq=  3095. Q= -0.000 lam=     0.0
  49 B2u freq=  3158. Q= -0.000 lam=     0.0 B2u freq=  3105. Q= -0.000 lam=     0.0
  50 Ag  freq=  3162. Q=  0.004 lam=     0.0 Ag  freq=  3110. Q=  0.024 lam=     0.9
  51 B3g freq=  3172. Q= -0.000 lam=     0.0 B3g freq=  3118. Q= -0.000 lam=     0.0
  52 B1u freq=  3173. Q= -0.000 lam=     0.0 B1u freq=  3123. Q= -0.000 lam=     0.0
  53 B2u freq=  3185. Q=  0.000 lam=     0.0 B2u freq=  3133. Q=  0.000 lam=     0.0
  54 Ag  freq=  3186. Q=  0.061 lam=     5.8 Ag  freq=  3139. Q=  0.066 lam=     6.8

 total reorg energy (cm**-1, kcal/mol)=     1104.     1024.      3.16      2.93
 Nber of molecules processed=           2
