 Enter ifcurve (0=recti, 1=orth curvi, 2=apprx curvi, -1 = skip
 And atom ordering flag, 0= never changes, 1= use the first order thenceforth,
  2= deduce it (does read on fail), 3= always read it
 Reading file: 
 ./Phenyls_1_C0S0.log                                                           
                                          
  Entering Gaussian System, Link 0=g16                                          
  
 Gaussian format, type: g94, g98, g03= F F F
  #P Geom=AllCheck Guess=TCheck SCRF=Check GenChk RB3LYP/6-311G(d,p) Fre    
 energy type= B3LYP   
 Original G94 input coords:
  6  5.763809  0.000000  0.000000
  6  5.056323 -1.199114  0.000000
  6  3.665848 -1.197655  0.000000
  6  2.929576  0.000000  0.000000
  6  3.665848  1.197655  0.000000
  6  5.056323  1.199114  0.000000
  6  1.439533  0.000000  0.000000
  6  0.693544  1.189455  0.000000
  6 -0.693544  1.189455  0.000000
  6 -1.439533  0.000000  0.000000
  6 -0.693544 -1.189455  0.000000
  6  0.693544 -1.189455  0.000000
  6 -2.929576  0.000000  0.000000
  6 -3.665848  1.197655  0.000000
  6 -5.056323  1.199114  0.000000
  6 -5.763809  0.000000  0.000000
  6 -5.056323 -1.199114  0.000000
  6 -3.665848 -1.197655  0.000000
  1  6.847690  0.000000  0.000000
  1  5.587840 -2.144300  0.000000
  1  3.156449 -2.152050  0.000000
  1  3.156449  2.152050  0.000000
  1  5.587840  2.144300  0.000000
  1  1.193990  2.148565  0.000000
  1 -1.193990  2.148565  0.000000
  1 -1.193990 -2.148565  0.000000
  1  1.193990 -2.148565  0.000000
  1 -3.156449  2.152050  0.000000
  1 -5.587840  2.144300  0.000000
  1 -6.847690  0.000000  0.000000
  1 -5.587840 -2.144300  0.000000
  1 -3.156449 -2.152050  0.000000
 nber atoms=          32
 Original standard coords:
  6  0.000000  0.000000  5.763809
  6  0.000000  1.199114  5.056323
  6  0.000000  1.197655  3.665848
  6  0.000000  0.000000  2.929576
  6  0.000000 -1.197655  3.665848
  6  0.000000 -1.199114  5.056323
  6  0.000000  0.000000  1.439533
  6  0.000000 -1.189455  0.693544
  6  0.000000 -1.189455 -0.693544
  6  0.000000  0.000000 -1.439533
  6  0.000000  1.189455 -0.693544
  6  0.000000  1.189455  0.693544
  6  0.000000  0.000000 -2.929576
  6  0.000000 -1.197655 -3.665848
  6  0.000000 -1.199114 -5.056323
  6  0.000000  0.000000 -5.763809
  6  0.000000  1.199114 -5.056323
  6  0.000000  1.197655 -3.665848
  1  0.000000  0.000000  6.847690
  1  0.000000  2.144300  5.587840
  1  0.000000  2.152050  3.156449
  1  0.000000 -2.152050  3.156449
  1  0.000000 -2.144300  5.587840
  1  0.000000 -2.148565  1.193990
  1  0.000000 -2.148565 -1.193990
  1  0.000000  2.148565 -1.193990
  1  0.000000  2.148565  1.193990
  1  0.000000 -2.152050 -3.156449
  1  0.000000 -2.144300 -5.587840
  1  0.000000  0.000000 -6.847690
  1  0.000000  2.144300 -5.587840
  1  0.000000  2.152050 -3.156449
  SCF Done:  E(RB3LYP) =  -694.521564068     A.U. after    1 cycles             
  
          23          40 "  -694.521564068"
After scan for Atom:   Atom  AN      X      Y      Z        X      Y      Z        X      Y      Z   
After scan for Atom:   Atom  AN      X      Y      Z        X      Y      Z        X      Y      Z   
After scan for Atom:   Atom  AN      X      Y      Z        X      Y      Z        X      Y      Z   
After scan for Atom:   Atom  AN      X      Y      Z        X      Y      Z        X      Y      Z   
After scan for Atom:   Atom  AN      X      Y      Z        X      Y      Z        X      Y      Z   
After scan for Atom:   Atom  AN      X      Y      Z        X      Y      Z        X      Y      Z   
After scan for Atom:   Atom  AN      X      Y      Z        X      Y      Z        X      Y      Z   
After scan for Atom:   Atom  AN      X      Y      Z        X      Y      Z        X      Y      Z   
After scan for Atom:   Atom  AN      X      Y      Z        X      Y      Z        X      Y      Z   
After scan for Atom:   Atom  AN      X      Y      Z        X      Y      Z        X      Y      Z   
After scan for Atom:   Atom  AN      X      Y      Z        X      Y      Z        X      Y      Z   
After scan for Atom:   Atom  AN      X      Y      Z        X      Y      Z        X      Y      Z   
After scan for Atom:   Atom  AN      X      Y      Z        X      Y      Z        X      Y      Z   
After scan for Atom:   Atom  AN      X      Y      Z        X      Y      Z        X      Y      Z   
After scan for Atom:   Atom  AN      X      Y      Z        X      Y      Z        X      Y      Z   
After scan for Atom:   Atom  AN      X      Y      Z        X      Y      Z        X      Y      Z   
After scan for Atom:   Atom  AN      X      Y      Z        X      Y      Z        X      Y      Z   
After scan for Atom:   Atom  AN      X      Y      Z        X      Y      Z        X      Y      Z   
After scan for Atom:   Atom  AN      X      Y      Z        X      Y      Z        X      Y      Z   
After scan for Atom:   Atom  AN      X      Y      Z        X      Y      Z        X      Y      Z   
After scan for Atom:   Atom  AN      X      Y      Z        X      Y      Z        X      Y      Z   
After scan for Atom:   Atom  AN      X      Y      Z        X      Y      Z        X      Y      Z   
After scan for Atom:   Atom  AN      X      Y      Z        X      Y      Z        X      Y      Z   
After scan for Atom:   Atom  AN      X      Y      Z        X      Y      Z        X      Y      Z   
After scan for Atom:   Atom  AN      X      Y      Z        X      Y      Z        X      Y      Z   
After scan for Atom:   Atom  AN      X      Y      Z        X      Y      Z        X      Y      Z   
After scan for Atom:   Atom  AN      X      Y      Z        X      Y      Z        X      Y      Z   
After scan for Atom:   Atom  AN      X      Y      Z        X      Y      Z        X      Y      Z   
After scan for Atom:   Atom  AN      X      Y      Z        X      Y      Z        X      Y      Z   
After scan for Atom:   Atom  AN      X      Y      Z        X      Y      Z        X      Y      Z   
 g94    frequencies=
     0.0    0.0    0.0    0.0    0.0    0.0  -98.6  -58.1   38.4   98.1
   114.0  187.5  215.6  229.2  308.5  382.0  385.0  404.0  415.9  432.8
   454.0  461.2  528.2  558.4  625.7  629.4  635.9  664.3  693.3  696.6
   710.7  728.9  764.3  790.6  792.5  805.2  833.7  847.8  852.8  919.0
   919.1  945.8  955.5  970.2  975.5  997.2  997.9 1011.0 1015.5 1018.6
  1024.2 1052.7 1064.9 1065.3 1110.6 1112.7 1163.5 1185.3 1190.0 1207.3
  1219.9 1252.8 1286.8 1291.7 1301.7 1307.6 1320.9 1350.8 1366.9 1374.0
  1437.5 1472.3 1489.2 1518.5 1535.4 1568.3 1593.8 1621.4 1625.2 1637.7
  1644.7 1656.4 3161.3 3161.5 3169.4 3169.7 3181.0 3183.8 3184.8 3188.1
  3193.2 3196.0 3203.9 3205.2 3210.3 3212.8
 g94    symmetries=
                                                B1     AU     B3     B2
      B2     B3     B3     AG     B2     B2     AU     B1     AU     B1
      B3     B3     B2     B3     AG     B3     B2     B3     B2     B3
      B1     B2     B3     AG     B2     B1     AU     B1     B3     B3
      B2     AU     B2     B1     AU     B3     B2     AG     B1     B1
      AG     B1     B1     AG     B2     B3     B2     B3     B2     AG
      B1     AG     AG     B2     B1     B3     B2     B3     B3     B2
      B2     B3     B2     B1     AG     B1     B3     B2     B3     AG
      B1     AG     B1     AG     B3     B2     B1     B3     AG     B1
      B2     AG     B3     B1     B2     AG
 atomic masses:
 12.0000 12.0000 12.0000 12.0000 12.0000 12.0000 12.0000 12.0000 12.0000 12.0000
 12.0000 12.0000 12.0000 12.0000 12.0000 12.0000 12.0000 12.0000  1.0078  1.0078
  1.0078  1.0078  1.0078  1.0078  1.0078  1.0078  1.0078  1.0078  1.0078  1.0078
  1.0078  1.0078
 looking for force constants in 
 ./Phenyls_1_C0S0.fchk                                                          
  
 Cartesian Force Constants                  R   N=        4656                  
  
 n3=          96        4656
 g94-fc frequencies=
   -98.6  -58.1   -2.6   -1.7   -0.0   -0.0    0.0    0.7   38.4   98.1
   114.0  187.5  215.6  229.2  308.5  382.0  385.0  404.0  415.9  432.8
   454.0  461.2  528.3  558.4  625.7  629.4  635.9  664.3  693.4  696.6
   710.7  728.9  764.3  790.7  792.5  805.3  833.8  847.8  852.8  919.0
   919.1  945.8  955.5  970.2  975.5  997.3  997.9 1011.0 1015.5 1018.6
  1024.2 1052.7 1064.9 1065.3 1110.6 1112.7 1163.5 1185.3 1190.1 1207.3
  1219.9 1252.8 1286.8 1291.7 1301.7 1307.7 1320.9 1350.8 1366.9 1374.0
  1437.6 1472.3 1489.2 1518.5 1535.5 1568.4 1593.9 1621.4 1625.2 1637.8
  1644.7 1656.4 3161.4 3161.6 3169.5 3169.8 3181.0 3183.9 3184.9 3188.2
  3193.2 3196.1 3204.0 3205.3 3210.3 3212.9
 at 99999: n3=          96
 symm operator            1 :  T  nop=           1
 symm operator            2 :  T  nop=           2
 symm operator            3 :  T  nop=           3
 symm operator            4 :  T  nop=           4
 symm operator            5 :  T  nop=           5
 symm operator            6 :  T  nop=           6
 symm operator            7 :  T  nop=           7
 The point group of the molecule is D2H
 enforcing symm op           1  jsymt=          -1          -1           1
 enforcing symm op           2  jsymt=          -1           1          -1
 enforcing symm op           3  jsymt=           1          -1          -1
 enforcing symm op           4  jsymt=          -1          -1          -1
 enforcing symm op           5  jsymt=           1           1          -1
 enforcing symm op           6  jsymt=           1          -1           1
 enforcing symm op           7  jsymt=          -1           1           1
 cartesian coord symmetries:
 Ag :   16 Au :    6 B1g:    6 B1u:   16 B2g:   10 B2u:   16 B3g:   16 B3u:   10
 Symmetry rotation matrix:
   1.00000   0.00000   0.00000
   0.00000   1.00000   0.00000
   0.00000   0.00000   1.00000

 Projecting out zero-frequency components
 generating redundant internal coords
         300        3600          32
 search for int coords
   1 str   2   1   1.392
   2 str   3   2   1.390
   3 str   4   3   1.406
   4 str   5   4   1.406
   5 str   6   1   1.392
   6 str   6   5   1.390
   7 str   7   4   1.490
   8 str   8   7   1.404
   9 str   9   8   1.387
  10 str  10   9   1.404
  11 str  11  10   1.404
  12 str  12   7   1.404
  13 str  12  11   1.387
  14 str  13  10   1.490
  15 str  14  13   1.406
  16 str  15  14   1.390
  17 str  16  15   1.392
  18 str  17  16   1.392
  19 str  18  13   1.406
  20 str  18  17   1.390
  21 str  19   1   1.084
  22 str  20   2   1.084
  23 str  21   3   1.082
  24 str  22   5   1.082
  25 str  23   6   1.084
  26 str  24   8   1.082
  27 str  25   9   1.082
  28 str  26  11   1.082
  29 str  27  12   1.082
  30 str  28  14   1.082
  31 str  29  15   1.084
  32 str  30  16   1.084
  33 str  31  17   1.084
  34 str  32  18   1.082
 nber stretches=          34
  35 ben   1   2   3
  36 prop tor   1   2   3   4
  37 prop tor   1   2   3  21
  38 ben   1   2  20
  39 ben   1   6   5
  40 ben   1   6  23
  41 ben   2   1   6
  42 prop tor   2   1   6   5
  43 prop tor   2   1   6  23
  44 ben   2   1  19
  45 ben   2   3   4
  46 prop tor   2   3   4   5
  47 prop tor   2   3   4   7
  48 ben   2   3  21
  49 ben   3   2  20
  50 ben   3   4   5
  51 prop tor   3   4   5   6
  52 prop tor   3   4   5  22
  53 ben   3   4   7
  54 prop tor   3   4   7   8
  55 prop tor   3   4   7  12
  56 ben   4   3  21
  57 ben   4   5   6
  58 prop tor   4   5   6   1
  59 prop tor   4   5   6  23
  60 ben   4   5  22
  61 ben   4   7   8
  62 prop tor   4   7   8   9
  63 prop tor   4   7   8  24
  64 ben   4   7  12
  65 prop tor   4   7  12  11
  66 prop tor   4   7  12  27
  67 ben   5   4   7
  68 prop tor   5   4   7   8
  69 prop tor   5   4   7  12
  70 ben   5   6  23
  71 prop tor   6   1   2   3
  72 prop tor   6   1   2  20
  73 ben   6   1  19
  74 ben   6   5  22
  75 prop tor   7   4   5   6
  76 prop tor   7   4   5  22
  77 ben   7   8   9
  78 prop tor   7   8   9  10
  79 prop tor   7   8   9  25
  80 ben   7   8  24
  81 ben   7  12  11
  82 ben   7  12  27
  83 ben   8   7  12
  84 prop tor   8   7  12  11
  85 prop tor   8   7  12  27
  86 ben   8   9  10
  87 prop tor   8   9  10  11
  88 prop tor   8   9  10  13
  89 ben   8   9  25
  90 ben   9   8  24
  91 ben   9  10  11
  92 prop tor   9  10  11  12
  93 prop tor   9  10  11  26
  94 ben   9  10  13
  95 prop tor   9  10  13  14
  96 prop tor   9  10  13  18
  97 ben  10   9  25
  98 ben  10  11  12
  99 prop tor  10  11  12   7
 100 prop tor  10  11  12  27
 101 ben  10  11  26
 102 ben  10  13  14
 103 prop tor  10  13  14  15
 104 prop tor  10  13  14  28
 105 ben  10  13  18
 106 prop tor  10  13  18  17
 107 prop tor  10  13  18  32
 108 ben  11  10  13
 109 prop tor  11  10  13  14
 110 prop tor  11  10  13  18
 111 ben  11  12  27
 112 prop tor  12   7   8   9
 113 prop tor  12   7   8  24
 114 ben  12  11  26
 115 prop tor  13  10  11  12
 116 prop tor  13  10  11  26
 117 ben  13  14  15
 118 prop tor  13  14  15  16
 119 prop tor  13  14  15  29
 120 ben  13  14  28
 121 ben  13  18  17
 122 ben  13  18  32
 123 ben  14  13  18
 124 prop tor  14  13  18  17
 125 prop tor  14  13  18  32
 126 ben  14  15  16
 127 prop tor  14  15  16  17
 128 prop tor  14  15  16  30
 129 ben  14  15  29
 130 ben  15  14  28
 131 ben  15  16  17
 132 prop tor  15  16  17  18
 133 prop tor  15  16  17  31
 134 ben  15  16  30
 135 ben  16  15  29
 136 ben  16  17  18
 137 prop tor  16  17  18  13
 138 prop tor  16  17  18  32
 139 ben  16  17  31
 140 ben  17  16  30
 141 ben  17  18  32
 142 prop tor  18  13  14  15
 143 prop tor  18  13  14  28
 144 ben  18  17  31
 145 prop tor  19   1   2   3
 146 prop tor  19   1   2  20
 147 prop tor  19   1   6   5
 148 prop tor  19   1   6  23
 149 prop tor  20   2   3   4
 150 prop tor  20   2   3  21
 151 prop tor  21   3   4   5
 152 prop tor  21   3   4   7
 153 prop tor  22   5   6   1
 154 prop tor  22   5   6  23
 155 prop tor  24   8   9  10
 156 prop tor  24   8   9  25
 157 prop tor  25   9  10  11
 158 prop tor  25   9  10  13
 159 prop tor  26  11  12   7
 160 prop tor  26  11  12  27
 161 prop tor  28  14  15  16
 162 prop tor  28  14  15  29
 163 prop tor  29  15  16  17
 164 prop tor  29  15  16  30
 165 prop tor  30  16  17  18
 166 prop tor  30  16  17  31
 167 prop tor  31  17  18  13
 168 prop tor  31  17  18  32
 nber bend=              54
 nber lin bend=           0
 nber prop tor=          80
 nber impr tor=           0
 nber tot redund int=         168
 Eigenvalues of G in red int coords
    Gval -0.00000000 -0.00000000 -0.00000000 -0.00000000 -0.00000000 -0.00000000 -0.00000000 -0.00000000
    Gval -0.00000000 -0.00000000 -0.00000000 -0.00000000 -0.00000000 -0.00000000 -0.00000000 -0.00000000
    Gval -0.00000000 -0.00000000 -0.00000000 -0.00000000 -0.00000000 -0.00000000 -0.00000000 -0.00000000
    Gval -0.00000000 -0.00000000 -0.00000000 -0.00000000 -0.00000000 -0.00000000 -0.00000000 -0.00000000
    Gval -0.00000000 -0.00000000 -0.00000000 -0.00000000 -0.00000000 -0.00000000 -0.00000000  0.00000000
    Gval  0.00000000  0.00000000  0.00000000  0.00000000  0.00000000  0.00000000  0.00000000  0.00000000
    Gval  0.00000000  0.00000000  0.00000000  0.00000000  0.00000000  0.00000000  0.00000000  0.00000000
    Gval  0.00000000  0.00000000  0.00000000  0.00000000  0.00000000  0.00000000  0.00000000  0.00000000
    Gval  0.00000000  0.00000000  0.00000000  0.00000000  0.00000000  0.00000000  0.00000000  0.00000000
    Gval  0.00000000  0.00000000  0.00000000  0.00000000  0.00000000  0.00000000  0.00000137  0.00000359
    Gval  0.00000637  0.00000718  0.00001278  0.00002167  0.00002192  0.00002924  0.00004270  0.00004727
    Gval  0.00005048  0.00005100  0.00005781  0.00005782  0.00006142  0.00006151  0.00007102  0.00007425
    Gval  0.00008219  0.00009860  0.00010959  0.00011526  0.00011928  0.00012143  0.00012494  0.00013139
    Gval  0.00013892  0.00017997  0.00024014  0.00025954  0.00026768  0.00028440  0.00029527  0.00033216
    Gval  0.00035726  0.00036922  0.00038924  0.00040123  0.00042782  0.00052793  0.00054995  0.00059308
    Gval  0.00059308  0.00059338  0.00059349  0.00059746  0.00059976  0.00060406  0.00060407  0.00060930
    Gval  0.00061926  0.00062189  0.00062527  0.00064105  0.00065012  0.00066096  0.00066117  0.00080483
    Gval  0.00101730  0.00104133  0.00104147  0.00108029  0.00110964  0.00111091  0.00111233  0.00113890
    Gval  0.00113898  0.00115108  0.00116833  0.00116998  0.00117028  0.00117305  0.00117305  0.00142713
    Gval  0.00143381  0.00157729  0.00176893  0.00200334  0.00234483  0.00235174  0.00236676  0.00254178
    Gval  0.00311688  0.00316551  0.00360365  0.00366894  0.00370762  0.00370993  0.00406679  0.00406718
  1.365411421178792E-006  1.365411421178792E-006
  3.590509860629200E-006  1.365411421178792E-006
  6.365422774871355E-006  1.365411421178792E-006
  7.181223112963655E-006  1.365411421178792E-006
  1.277631404291881E-005  1.365411421178792E-006
  2.166539914217634E-005  1.365411421178792E-006
  2.191800896769582E-005  1.365411421178792E-006
  2.923613952055740E-005  1.365411421178792E-006
  4.270456951997155E-005  1.365411421178792E-006
  4.726892074231967E-005  1.365411421178792E-006
  5.048491995581373E-005  1.365411421178792E-006
  5.100471071397927E-005  1.365411421178792E-006
  5.781270694309783E-005  1.365411421178792E-006
  5.782495899288863E-005  1.365411421178792E-006
  6.141552393095269E-005  1.365411421178792E-006
  6.150643148859390E-005  1.365411421178792E-006
  7.101926818942926E-005  1.365411421178792E-006
  7.425238622103652E-005  1.365411421178792E-006
  8.219129277925510E-005  1.365411421178792E-006
  9.859769900275679E-005  1.365411421178792E-006
  1.095876429588862E-004  1.365411421178792E-006
  1.152591639448436E-004  1.365411421178792E-006
  1.192813627479156E-004  1.365411421178792E-006
  1.214272766722538E-004  1.365411421178792E-006
  1.249369001983337E-004  1.365411421178792E-006
  1.313890234524163E-004  1.365411421178792E-006
  1.389213650829748E-004  1.365411421178792E-006
  1.799725836300547E-004  1.365411421178792E-006
  2.401417661975542E-004  1.365411421178792E-006
  2.595353900087738E-004  1.365411421178792E-006
  2.676759470026987E-004  1.365411421178792E-006
  2.844026407785927E-004  1.365411421178792E-006
  2.952745318775711E-004  1.365411421178792E-006
  3.321616642915844E-004  1.365411421178792E-006
  3.572618982191660E-004  1.365411421178792E-006
  3.692172707368338E-004  1.365411421178792E-006
  3.892369725568983E-004  1.365411421178792E-006
  4.012346645480010E-004  1.365411421178792E-006
  4.278158332555164E-004  1.365411421178792E-006
  5.279331450516457E-004  1.365411421178792E-006
  5.499478289058505E-004  1.365411421178792E-006
  5.930754316899272E-004  1.365411421178792E-006
  5.930754695075084E-004  1.365411421178792E-006
  5.933751775413747E-004  1.365411421178792E-006
  5.934899692603122E-004  1.365411421178792E-006
  5.974624473189869E-004  1.365411421178792E-006
  5.997552419975170E-004  1.365411421178792E-006
  6.040591186548992E-004  1.365411421178792E-006
  6.040746306264421E-004  1.365411421178792E-006
  6.092992575199187E-004  1.365411421178792E-006
  6.192554964035567E-004  1.365411421178792E-006
  6.218852457421329E-004  1.365411421178792E-006
  6.252655843749378E-004  1.365411421178792E-006
  6.410502567714297E-004  1.365411421178792E-006
  6.501221399975943E-004  1.365411421178792E-006
  6.609621760462305E-004  1.365411421178792E-006
  6.611727586507667E-004  1.365411421178792E-006
  8.048284328514648E-004  1.365411421178792E-006
  1.017296033322209E-003  1.365411421178792E-006
  1.041325253194418E-003  1.365411421178792E-006
  1.041471333098406E-003  1.365411421178792E-006
  1.080291563773316E-003  1.365411421178792E-006
  1.109637511354802E-003  1.365411421178792E-006
  1.110906973445230E-003  1.365411421178792E-006
  1.112329543281043E-003  1.365411421178792E-006
  1.138899167588493E-003  1.365411421178792E-006
  1.138982276573343E-003  1.365411421178792E-006
  1.151079473910437E-003  1.365411421178792E-006
  1.168327309578035E-003  1.365411421178792E-006
  1.169977924108680E-003  1.365411421178792E-006
  1.170275940782701E-003  1.365411421178792E-006
  1.173050221905088E-003  1.365411421178792E-006
  1.173050230134769E-003  1.365411421178792E-006
  1.427134756367573E-003  1.365411421178792E-006
  1.433807583488868E-003  1.365411421178792E-006
  1.577293116483358E-003  1.365411421178792E-006
  1.768934875257030E-003  1.365411421178792E-006
  2.003343384784418E-003  1.365411421178792E-006
  2.344830690199493E-003  1.365411421178792E-006
  2.351742072784805E-003  1.365411421178792E-006
  2.366762736168185E-003  1.365411421178792E-006
  2.541784925910933E-003  1.365411421178792E-006
  3.116882128748528E-003  1.365411421178792E-006
  3.165510081887260E-003  1.365411421178792E-006
  3.603647814018447E-003  1.365411421178792E-006
  3.668936710558630E-003  1.365411421178792E-006
  3.707616542834379E-003  1.365411421178792E-006
  3.709931194830967E-003  1.365411421178792E-006
  4.066785686190183E-003  1.365411421178792E-006
  4.067181946540462E-003  1.365411421178792E-006
 cut=1d-8, nber non-redundant internal coords=          90
 Check on Eigenvals of non-red overlap matrix:
  0.00000137  0.00000359  0.00000637  0.00000718  0.00001278  0.00002167  0.00002192  0.00002924
  0.00004270  0.00004727  0.00005048  0.00005100  0.00005781  0.00005782  0.00006142  0.00006151
  0.00007102  0.00007425  0.00008219  0.00009860  0.00010959  0.00011526  0.00011928  0.00012143
  0.00012494  0.00013139  0.00013892  0.00017997  0.00024014  0.00025954  0.00026768  0.00028440
  0.00029527  0.00033216  0.00035726  0.00036922  0.00038924  0.00040123  0.00042782  0.00052793
  0.00054995  0.00059308  0.00059308  0.00059338  0.00059349  0.00059746  0.00059976  0.00060406
  0.00060407  0.00060930  0.00061926  0.00062189  0.00062527  0.00064105  0.00065012  0.00066096
  0.00066117  0.00080483  0.00101730  0.00104133  0.00104147  0.00108029  0.00110964  0.00111091
  0.00111233  0.00113890  0.00113898  0.00115108  0.00116833  0.00116998  0.00117028  0.00117305
  0.00117305  0.00142713  0.00143381  0.00157729  0.00176893  0.00200334  0.00234483  0.00235174
  0.00236676  0.00254178  0.00311688  0.00316551  0.00360365  0.00366894  0.00370762  0.00370993
  0.00406679  0.00406718
 Checking for correct frequencies
 recalc frequencies=
   -98.6  -58.1   -0.0   -0.0   -0.0   -0.0   -0.0   -0.0   38.4   98.1
   114.0  187.5  215.6  229.2  308.5  382.0  385.0  404.0  415.9  432.8
   454.0  461.2  528.3  558.4  625.7  629.4  635.9  664.3  693.4  696.6
   710.7  728.9  764.3  790.7  792.5  805.3  833.8  847.8  852.8  919.0
   919.1  945.8  955.5  970.2  975.5  997.3  997.9 1011.0 1015.5 1018.6
  1024.2 1052.7 1064.9 1065.3 1110.6 1112.7 1163.5 1185.3 1190.1 1207.3
  1219.9 1252.8 1286.8 1291.7 1301.7 1307.7 1320.9 1350.8 1366.9 1374.0
  1437.6 1472.3 1489.2 1518.5 1535.5 1568.4 1593.9 1621.4 1625.2 1637.8
  1644.7 1656.4 3161.4 3161.6 3169.5 3169.8 3181.0 3183.9 3184.9 3188.2
  3193.2 3196.1 3204.0 3205.3 3210.3 3212.9
 recalc symmetries=
     B1g    Au     B1u    B2u    B3g    B2g    B1g    B3u    B3u    B2u
     B2g    B3u    B3g    Ag     B2g    B2u    Au     B1g    Au     B1u
     B3u    B3g    B2g    B3u    Ag     B3g    B2u    B3g    B2g    B3u
     B1u    B2g    B3u    Ag     B2g    B1g    Au     B1g    B3u    B3u
     B2g    Au     B2g    B1g    Au     B3u    B2g    Ag     B1u    B1u
     Ag     B1u    B1u    Ag     B2u    B3g    B2u    B3g    B2u    Ag 
     B1u    Ag     Ag     B2u    B1u    B3g    B2u    B3g    B3g    B2u
     B2u    B3g    B2u    B1u    Ag     B1u    B3g    B2u    B3g    Ag 
     B1u    Ag     B1u    Ag     B3g    B2u    B1u    B3g    Ag     B1u
     B2u    Ag     B3g    B1u    B2u    Ag 
 recalc freqs check OK
 Zero-point lengths:
 24.9671 32.5106 10.0000 10.0000 10.0000 10.0000 10.0000 10.0000 39.9969 25.0258
 23.2183 18.1057 16.8851 16.3736 14.1140 12.6838 12.6354 12.3339 12.1558 11.9162
 11.6354 11.5439 10.7863 10.4908  9.9108  9.8817  9.8309  9.6185  9.4150  9.3927
  9.2995  9.1826  8.9674  8.8166  8.8061  8.7363  8.5857  8.5144  8.4894  8.1779
  8.1774  8.0612  8.0201  7.9592  7.9375  7.8504  7.8478  7.7969  7.7795  7.7677
  7.7463  7.6410  7.5970  7.5956  7.4389  7.4320  7.2679  7.2007  7.1864  7.1348
  7.0979  7.0040  6.9110  6.8979  6.8712  6.8556  6.8212  6.7453  6.7053  6.6881
  6.5385  6.4609  6.4242  6.3619  6.3267  6.2599  6.2097  6.1566  6.1495  6.1259
  6.1130  6.0913  4.4092  4.4090  4.4036  4.4033  4.3955  4.3936  4.3929  4.3906
  4.3871  4.3852  4.3798  4.3789  4.3754  4.3737
 highest evec of mol 1
  0.0000  0.0000 -0.0120
  0.0000 -0.0196 -0.0130
  0.0000 -0.0709  0.0381
  0.0000  0.0000  0.0028
  0.0000  0.0709  0.0381
  0.0000  0.0196 -0.0130
  0.0000  0.0000 -0.0054
  0.0000  0.1028 -0.0562
  0.0000  0.1028  0.0562
  0.0000  0.0000  0.0054
  0.0000 -0.1028  0.0562
  0.0000 -0.1028 -0.0562
  0.0000  0.0000 -0.0028
  0.0000  0.0709 -0.0381
  0.0000  0.0196  0.0130
  0.0000  0.0000  0.0120
  0.0000 -0.0196  0.0130
  0.0000 -0.0709 -0.0381
  0.0000  0.0000  0.0360
  0.0000  0.0619  0.0356
  0.0000  0.2371 -0.1316
  0.0000 -0.2371 -0.1316
  0.0000 -0.0619  0.0356
  0.0000 -0.3406  0.1841
  0.0000 -0.3406 -0.1841
  0.0000  0.3406 -0.1841
  0.0000  0.3406  0.1841
  0.0000 -0.2371  0.1316
  0.0000 -0.0619 -0.0356
  0.0000  0.0000 -0.0360
  0.0000  0.0619 -0.0356
  0.0000  0.2371  0.1316
 generating redundant internal coords
         300        3600          32
 Adding extra bonds for z output only
           6           6           6           6           6           6
           6           6           6           6           6           6
           6           6           6           6           6           6
           1           1           1           1           1           1
           1           1           1           1           1           1
           1           1
 search for int coords
   1 str   2   1   1.392
   2 str   3   2   1.390
   3 str   4   3   1.406
   4 str   5   4   1.406
   5 str   6   1   1.392
   6 str   6   5   1.390
   7 str   7   4   1.490
   8 str   8   7   1.404
   9 str   9   8   1.387
  10 str  10   9   1.404
  11 str  11  10   1.404
  12 str  12   7   1.404
  13 str  12  11   1.387
  14 str  13  10   1.490
  15 str  14  13   1.406
  16 str  15  14   1.390
  17 str  16  15   1.392
  18 str  17  16   1.392
  19 str  18  13   1.406
  20 str  18  17   1.390
  21 str  19   1   1.084
  22 str  20   2   1.084
  23 str  21   3   1.082
  24 str  22   5   1.082
  25 str  23   6   1.084
  26 str  24   8   1.082
  27 str  25   9   1.082
  28 str  26  11   1.082
  29 str  27  12   1.082
  30 str  28  14   1.082
  31 str  29  15   1.084
  32 str  30  16   1.084
  33 str  31  17   1.084
  34 str  32  18   1.082
 nber stretches=          34
  35 ben   1   2   3
  36 prop tor   1   2   3   4
  37 prop tor   1   2   3  21
  38 ben   1   2  20
  39 ben   1   6   5
  40 ben   1   6  23
  41 ben   2   1   6
  42 prop tor   2   1   6   5
  43 prop tor   2   1   6  23
  44 ben   2   1  19
  45 ben   2   3   4
  46 prop tor   2   3   4   5
  47 prop tor   2   3   4   7
  48 ben   2   3  21
  49 ben   3   2  20
  50 ben   3   4   5
  51 prop tor   3   4   5   6
  52 prop tor   3   4   5  22
  53 ben   3   4   7
  54 prop tor   3   4   7   8
  55 prop tor   3   4   7  12
  56 ben   4   3  21
  57 ben   4   5   6
  58 prop tor   4   5   6   1
  59 prop tor   4   5   6  23
  60 ben   4   5  22
  61 ben   4   7   8
  62 prop tor   4   7   8   9
  63 prop tor   4   7   8  24
  64 ben   4   7  12
  65 prop tor   4   7  12  11
  66 prop tor   4   7  12  27
  67 ben   5   4   7
  68 prop tor   5   4   7   8
  69 prop tor   5   4   7  12
  70 ben   5   6  23
  71 prop tor   6   1   2   3
  72 prop tor   6   1   2  20
  73 ben   6   1  19
  74 ben   6   5  22
  75 prop tor   7   4   5   6
  76 prop tor   7   4   5  22
  77 ben   7   8   9
  78 prop tor   7   8   9  10
  79 prop tor   7   8   9  25
  80 ben   7   8  24
  81 ben   7  12  11
  82 ben   7  12  27
  83 ben   8   7  12
  84 prop tor   8   7  12  11
  85 prop tor   8   7  12  27
  86 ben   8   9  10
  87 prop tor   8   9  10  11
  88 prop tor   8   9  10  13
  89 ben   8   9  25
  90 ben   9   8  24
  91 ben   9  10  11
  92 prop tor   9  10  11  12
  93 prop tor   9  10  11  26
  94 ben   9  10  13
  95 prop tor   9  10  13  14
  96 prop tor   9  10  13  18
  97 ben  10   9  25
  98 ben  10  11  12
  99 prop tor  10  11  12   7
 100 prop tor  10  11  12  27
 101 ben  10  11  26
 102 ben  10  13  14
 103 prop tor  10  13  14  15
 104 prop tor  10  13  14  28
 105 ben  10  13  18
 106 prop tor  10  13  18  17
 107 prop tor  10  13  18  32
 108 ben  11  10  13
 109 prop tor  11  10  13  14
 110 prop tor  11  10  13  18
 111 ben  11  12  27
 112 prop tor  12   7   8   9
 113 prop tor  12   7   8  24
 114 ben  12  11  26
 115 prop tor  13  10  11  12
 116 prop tor  13  10  11  26
 117 ben  13  14  15
 118 prop tor  13  14  15  16
 119 prop tor  13  14  15  29
 120 ben  13  14  28
 121 ben  13  18  17
 122 ben  13  18  32
 123 ben  14  13  18
 124 prop tor  14  13  18  17
 125 prop tor  14  13  18  32
 126 ben  14  15  16
 127 prop tor  14  15  16  17
 128 prop tor  14  15  16  30
 129 ben  14  15  29
 130 ben  15  14  28
 131 ben  15  16  17
 132 prop tor  15  16  17  18
 133 prop tor  15  16  17  31
 134 ben  15  16  30
 135 ben  16  15  29
 136 ben  16  17  18
 137 prop tor  16  17  18  13
 138 prop tor  16  17  18  32
 139 ben  16  17  31
 140 ben  17  16  30
 141 ben  17  18  32
 142 prop tor  18  13  14  15
 143 prop tor  18  13  14  28
 144 ben  18  17  31
 145 prop tor  19   1   2   3
 146 prop tor  19   1   2  20
 147 prop tor  19   1   6   5
 148 prop tor  19   1   6  23
 149 prop tor  20   2   3   4
 150 prop tor  20   2   3  21
 151 prop tor  21   3   4   5
 152 prop tor  21   3   4   7
 153 prop tor  22   5   6   1
 154 prop tor  22   5   6  23
 155 prop tor  24   8   9  10
 156 prop tor  24   8   9  25
 157 prop tor  25   9  10  11
 158 prop tor  25   9  10  13
 159 prop tor  26  11  12   7
 160 prop tor  26  11  12  27
 161 prop tor  28  14  15  16
 162 prop tor  28  14  15  29
 163 prop tor  29  15  16  17
 164 prop tor  29  15  16  30
 165 prop tor  30  16  17  18
 166 prop tor  30  16  17  31
 167 prop tor  31  17  18  13
 168 prop tor  31  17  18  32
 nber bend=              54
 nber lin bend=           0
 nber prop tor=          80
 nber impr tor=           0
 nber tot redund int=         168
 Reading file: 
 ./Phenyls_1_C1S0.log                                                           
                                          
  Entering Gaussian System, Link 0=g16                                          
  
 Gaussian format, type: g94, g98, g03= F F F
  #P Geom=AllCheck Guess=TCheck SCRF=Check GenChk UB3LYP/6-311G(d,p) Fre    
 energy type= B3LYP   
 Original G94 input coords:
  6  5.715306  0.000000  0.000000
  6  5.014550 -1.211047  0.000000
  6  3.633217 -1.213808  0.000000
  6  2.893527  0.000000  0.000000
  6  3.633217  1.213808  0.000000
  6  5.014550  1.211047  0.000000
  6  1.439777  0.000000  0.000000
  6  0.684970  1.208613  0.000000
  6 -0.684970  1.208613  0.000000
  6 -1.439777  0.000000  0.000000
  6 -0.684970 -1.208613  0.000000
  6  0.684970 -1.208613  0.000000
  6 -2.893527  0.000000  0.000000
  6 -3.633217  1.213808  0.000000
  6 -5.014550  1.211047  0.000000
  6 -5.715306  0.000000  0.000000
  6 -5.014550 -1.211047  0.000000
  6 -3.633217 -1.213808  0.000000
  1  6.798849  0.000000  0.000000
  1  5.554895 -2.149498  0.000000
  1  3.125111 -2.167273  0.000000
  1  3.125111  2.167273  0.000000
  1  5.554895  2.149498  0.000000
  1  1.189195  2.163650  0.000000
  1 -1.189195  2.163650  0.000000
  1 -1.189195 -2.163650  0.000000
  1  1.189195 -2.163650  0.000000
  1 -3.125111  2.167273  0.000000
  1 -5.554895  2.149498  0.000000
  1 -6.798849  0.000000  0.000000
  1 -5.554895 -2.149498  0.000000
  1 -3.125111 -2.167273  0.000000
 nber atoms=          32
 Original standard coords:
  6  0.000000  0.000000  5.715306
  6  0.000000  1.211047  5.014550
  6  0.000000  1.213808  3.633217
  6  0.000000  0.000000  2.893527
  6  0.000000 -1.213808  3.633217
  6  0.000000 -1.211047  5.014550
  6  0.000000  0.000000  1.439777
  6  0.000000 -1.208613  0.684970
  6  0.000000 -1.208613 -0.684970
  6  0.000000  0.000000 -1.439777
  6  0.000000  1.208613 -0.684970
  6  0.000000  1.208613  0.684970
  6  0.000000  0.000000 -2.893527
  6  0.000000 -1.213808 -3.633217
  6  0.000000 -1.211047 -5.014550
  6  0.000000  0.000000 -5.715306
  6  0.000000  1.211047 -5.014550
  6  0.000000  1.213808 -3.633217
  1  0.000000  0.000000  6.798849
  1  0.000000  2.149498  5.554895
  1  0.000000  2.167273  3.125111
  1  0.000000 -2.167273  3.125111
  1  0.000000 -2.149498  5.554895
  1  0.000000 -2.163650  1.189195
  1  0.000000 -2.163650 -1.189195
  1  0.000000  2.163650 -1.189195
  1  0.000000  2.163650  1.189195
  1  0.000000 -2.167273 -3.125111
  1  0.000000 -2.149498 -5.554895
  1  0.000000  0.000000 -6.798849
  1  0.000000  2.149498 -5.554895
  1  0.000000  2.167273 -3.125111
  SCF Done:  E(UB3LYP) =  -694.258746852     A.U. after    1 cycles             
  
          23          40 "  -694.258746852"
After scan for Atom:   Atom  AN      X      Y      Z        X      Y      Z        X      Y      Z   
After scan for Atom:   Atom  AN      X      Y      Z        X      Y      Z        X      Y      Z   
After scan for Atom:   Atom  AN      X      Y      Z        X      Y      Z        X      Y      Z   
After scan for Atom:   Atom  AN      X      Y      Z        X      Y      Z        X      Y      Z   
After scan for Atom:   Atom  AN      X      Y      Z        X      Y      Z        X      Y      Z   
After scan for Atom:   Atom  AN      X      Y      Z        X      Y      Z        X      Y      Z   
After scan for Atom:   Atom  AN      X      Y      Z        X      Y      Z        X      Y      Z   
After scan for Atom:   Atom  AN      X      Y      Z        X      Y      Z        X      Y      Z   
After scan for Atom:   Atom  AN      X      Y      Z        X      Y      Z        X      Y      Z   
After scan for Atom:   Atom  AN      X      Y      Z        X      Y      Z        X      Y      Z   
After scan for Atom:   Atom  AN      X      Y      Z        X      Y      Z        X      Y      Z   
After scan for Atom:   Atom  AN      X      Y      Z        X      Y      Z        X      Y      Z   
After scan for Atom:   Atom  AN      X      Y      Z        X      Y      Z        X      Y      Z   
After scan for Atom:   Atom  AN      X      Y      Z        X      Y      Z        X      Y      Z   
After scan for Atom:   Atom  AN      X      Y      Z        X      Y      Z        X      Y      Z   
After scan for Atom:   Atom  AN      X      Y      Z        X      Y      Z        X      Y      Z   
After scan for Atom:   Atom  AN      X      Y      Z        X      Y      Z        X      Y      Z   
After scan for Atom:   Atom  AN      X      Y      Z        X      Y      Z        X      Y      Z   
After scan for Atom:   Atom  AN      X      Y      Z        X      Y      Z        X      Y      Z   
After scan for Atom:   Atom  AN      X      Y      Z        X      Y      Z        X      Y      Z   
After scan for Atom:   Atom  AN      X      Y      Z        X      Y      Z        X      Y      Z   
After scan for Atom:   Atom  AN      X      Y      Z        X      Y      Z        X      Y      Z   
After scan for Atom:   Atom  AN      X      Y      Z        X      Y      Z        X      Y      Z   
After scan for Atom:   Atom  AN      X      Y      Z        X      Y      Z        X      Y      Z   
After scan for Atom:   Atom  AN      X      Y      Z        X      Y      Z        X      Y      Z   
After scan for Atom:   Atom  AN      X      Y      Z        X      Y      Z        X      Y      Z   
After scan for Atom:   Atom  AN      X      Y      Z        X      Y      Z        X      Y      Z   
After scan for Atom:   Atom  AN      X      Y      Z        X      Y      Z        X      Y      Z   
After scan for Atom:   Atom  AN      X      Y      Z        X      Y      Z        X      Y      Z   
After scan for Atom:   Atom  AN      X      Y      Z        X      Y      Z        X      Y      Z   
 g94    frequencies=
     0.0    0.0    0.0    0.0    0.0    0.0  -71.3  -41.2   33.5  102.2
   102.8  165.7  219.9  232.6  279.2  378.1  385.6  386.0  388.5  433.3
   438.5  462.5  488.3  550.7  607.3  617.9  618.9  642.2  662.2  666.1
   708.0  728.0  780.1  784.0  795.7  808.3  823.3  825.4  865.0  947.2
   949.2  979.1  986.2  989.1  996.2  998.0 1001.0 1006.7 1015.1 1025.7
  1026.3 1029.4 1046.9 1048.7 1122.9 1123.1 1170.2 1193.5 1195.8 1215.2
  1227.1 1266.0 1302.7 1309.9 1333.4 1339.5 1348.6 1356.8 1372.7 1377.2
  1469.2 1469.3 1496.4 1503.3 1523.5 1524.1 1549.7 1575.7 1577.9 1614.8
  1634.5 1650.8 3186.5 3186.6 3195.8 3196.0 3203.1 3203.7 3211.0 3211.5
  3216.8 3217.9 3229.9 3230.1 3237.3 3239.1
 g94    symmetries=
                                                B1     AU     B3     B2
      B2     B3     B3     AG     B2     AU     B2     B1     AU     B3
      B1     B3     B2     B3     B3     B2     AG     B3     B3     B2
      B1     B2     B3     AG     B1     B2     AU     B1     B3     B2
      B3     AU     B2     AG     B1     B1     AU     B1     AG     B3
      B2     B1     B1     AG     B2     B3     B2     B3     B2     AG
      B1     AG     B3     B2     B1     AG     B3     B2     B3     B2
      B3     B2     B1     B2     B3     AG     B1     B3     B2     B1
      AG     AG     B1     AG     B3     B2     B1     AG     B3     B1
      B2     AG     B3     B1     B2     AG
 atomic masses:
 12.0000 12.0000 12.0000 12.0000 12.0000 12.0000 12.0000 12.0000 12.0000 12.0000
 12.0000 12.0000 12.0000 12.0000 12.0000 12.0000 12.0000 12.0000  1.0078  1.0078
  1.0078  1.0078  1.0078  1.0078  1.0078  1.0078  1.0078  1.0078  1.0078  1.0078
  1.0078  1.0078
 looking for force constants in 
 ./Phenyls_1_C1S0.fchk                                                          
  
 Cartesian Force Constants                  R   N=        4656                  
  
 n3=          96        4656
 g94-fc frequencies=
   -71.3  -41.2    0.0    0.0    0.0    0.6    0.7    1.6   33.5  102.2
   102.8  165.7  219.9  232.6  279.2  378.1  385.7  386.0  388.5  433.3
   438.5  462.5  488.3  550.7  607.3  617.9  618.9  642.2  662.2  666.1
   708.0  728.0  780.1  784.0  795.7  808.4  823.3  825.4  865.0  947.2
   949.2  979.1  986.2  989.1  996.2  998.0 1001.0 1006.7 1015.2 1025.7
  1026.3 1029.4 1046.9 1048.8 1122.9 1123.1 1170.2 1193.5 1195.9 1215.2
  1227.1 1266.1 1302.7 1309.9 1333.5 1339.6 1348.6 1356.9 1372.7 1377.2
  1469.2 1469.4 1496.4 1503.3 1523.5 1524.1 1549.7 1575.8 1577.9 1614.8
  1634.5 1650.9 3186.6 3186.7 3195.8 3196.1 3203.1 3203.8 3211.1 3211.5
  3216.8 3217.9 3230.0 3230.2 3237.4 3239.2
 at 99999: n3=          96
 symm operator            1 :  T  nop=           1
 symm operator            2 :  T  nop=           2
 symm operator            3 :  T  nop=           3
 symm operator            4 :  T  nop=           4
 symm operator            5 :  T  nop=           5
 symm operator            6 :  T  nop=           6
 symm operator            7 :  T  nop=           7
 The point group of the molecule is D2H
 enforcing symm op           1  jsymt=          -1          -1           1
 enforcing symm op           2  jsymt=          -1           1          -1
 enforcing symm op           3  jsymt=           1          -1          -1
 enforcing symm op           4  jsymt=          -1          -1          -1
 enforcing symm op           5  jsymt=           1           1          -1
 enforcing symm op           6  jsymt=           1          -1           1
 enforcing symm op           7  jsymt=          -1           1           1
 cartesian coord symmetries:
 Ag :   16 Au :    6 B1g:    6 B1u:   16 B2g:   10 B2u:   16 B3g:   16 B3u:   10
 Symmetry rotation matrix:
   1.00000   0.00000   0.00000
   0.00000   1.00000   0.00000
   0.00000   0.00000   1.00000

 Projecting out zero-frequency components
 generating redundant internal coords
         300        3600          32
 search for int coords
   1 str   2   1   1.399
   2 str   3   2   1.381
   3 str   4   3   1.421
   4 str   5   4   1.421
   5 str   6   1   1.399
   6 str   6   5   1.381
   7 str   7   4   1.454
   8 str   8   7   1.425
   9 str   9   8   1.370
  10 str  10   9   1.425
  11 str  11  10   1.425
  12 str  12   7   1.425
  13 str  12  11   1.370
  14 str  13  10   1.454
  15 str  14  13   1.421
  16 str  15  14   1.381
  17 str  16  15   1.399
  18 str  17  16   1.399
  19 str  18  13   1.421
  20 str  18  17   1.381
  21 str  19   1   1.084
  22 str  20   2   1.083
  23 str  21   3   1.080
  24 str  22   5   1.080
  25 str  23   6   1.083
  26 str  24   8   1.080
  27 str  25   9   1.080
  28 str  26  11   1.080
  29 str  27  12   1.080
  30 str  28  14   1.080
  31 str  29  15   1.083
  32 str  30  16   1.084
  33 str  31  17   1.083
  34 str  32  18   1.080
 nber stretches=          34
  35 ben   1   2   3
  36 prop tor   1   2   3   4
  37 prop tor   1   2   3  21
  38 ben   1   2  20
  39 ben   1   6   5
  40 ben   1   6  23
  41 ben   2   1   6
  42 prop tor   2   1   6   5
  43 prop tor   2   1   6  23
  44 ben   2   1  19
  45 ben   2   3   4
  46 prop tor   2   3   4   5
  47 prop tor   2   3   4   7
  48 ben   2   3  21
  49 ben   3   2  20
  50 ben   3   4   5
  51 prop tor   3   4   5   6
  52 prop tor   3   4   5  22
  53 ben   3   4   7
  54 prop tor   3   4   7   8
  55 prop tor   3   4   7  12
  56 ben   4   3  21
  57 ben   4   5   6
  58 prop tor   4   5   6   1
  59 prop tor   4   5   6  23
  60 ben   4   5  22
  61 ben   4   7   8
  62 prop tor   4   7   8   9
  63 prop tor   4   7   8  24
  64 ben   4   7  12
  65 prop tor   4   7  12  11
  66 prop tor   4   7  12  27
  67 ben   5   4   7
  68 prop tor   5   4   7   8
  69 prop tor   5   4   7  12
  70 ben   5   6  23
  71 prop tor   6   1   2   3
  72 prop tor   6   1   2  20
  73 ben   6   1  19
  74 ben   6   5  22
  75 prop tor   7   4   5   6
  76 prop tor   7   4   5  22
  77 ben   7   8   9
  78 prop tor   7   8   9  10
  79 prop tor   7   8   9  25
  80 ben   7   8  24
  81 ben   7  12  11
  82 ben   7  12  27
  83 ben   8   7  12
  84 prop tor   8   7  12  11
  85 prop tor   8   7  12  27
  86 ben   8   9  10
  87 prop tor   8   9  10  11
  88 prop tor   8   9  10  13
  89 ben   8   9  25
  90 ben   9   8  24
  91 ben   9  10  11
  92 prop tor   9  10  11  12
  93 prop tor   9  10  11  26
  94 ben   9  10  13
  95 prop tor   9  10  13  14
  96 prop tor   9  10  13  18
  97 ben  10   9  25
  98 ben  10  11  12
  99 prop tor  10  11  12   7
 100 prop tor  10  11  12  27
 101 ben  10  11  26
 102 ben  10  13  14
 103 prop tor  10  13  14  15
 104 prop tor  10  13  14  28
 105 ben  10  13  18
 106 prop tor  10  13  18  17
 107 prop tor  10  13  18  32
 108 ben  11  10  13
 109 prop tor  11  10  13  14
 110 prop tor  11  10  13  18
 111 ben  11  12  27
 112 prop tor  12   7   8   9
 113 prop tor  12   7   8  24
 114 ben  12  11  26
 115 prop tor  13  10  11  12
 116 prop tor  13  10  11  26
 117 ben  13  14  15
 118 prop tor  13  14  15  16
 119 prop tor  13  14  15  29
 120 ben  13  14  28
 121 ben  13  18  17
 122 ben  13  18  32
 123 ben  14  13  18
 124 prop tor  14  13  18  17
 125 prop tor  14  13  18  32
 126 ben  14  15  16
 127 prop tor  14  15  16  17
 128 prop tor  14  15  16  30
 129 ben  14  15  29
 130 ben  15  14  28
 131 ben  15  16  17
 132 prop tor  15  16  17  18
 133 prop tor  15  16  17  31
 134 ben  15  16  30
 135 ben  16  15  29
 136 ben  16  17  18
 137 prop tor  16  17  18  13
 138 prop tor  16  17  18  32
 139 ben  16  17  31
 140 ben  17  16  30
 141 ben  17  18  32
 142 prop tor  18  13  14  15
 143 prop tor  18  13  14  28
 144 ben  18  17  31
 145 prop tor  19   1   2   3
 146 prop tor  19   1   2  20
 147 prop tor  19   1   6   5
 148 prop tor  19   1   6  23
 149 prop tor  20   2   3   4
 150 prop tor  20   2   3  21
 151 prop tor  21   3   4   5
 152 prop tor  21   3   4   7
 153 prop tor  22   5   6   1
 154 prop tor  22   5   6  23
 155 prop tor  24   8   9  10
 156 prop tor  24   8   9  25
 157 prop tor  25   9  10  11
 158 prop tor  25   9  10  13
 159 prop tor  26  11  12   7
 160 prop tor  26  11  12  27
 161 prop tor  28  14  15  16
 162 prop tor  28  14  15  29
 163 prop tor  29  15  16  17
 164 prop tor  29  15  16  30
 165 prop tor  30  16  17  18
 166 prop tor  30  16  17  31
 167 prop tor  31  17  18  13
 168 prop tor  31  17  18  32
 nber bend=              54
 nber lin bend=           0
 nber prop tor=          80
 nber impr tor=           0
 nber tot redund int=         168
 Eigenvalues of G in red int coords
    Gval -0.00000000 -0.00000000 -0.00000000 -0.00000000 -0.00000000 -0.00000000 -0.00000000 -0.00000000
    Gval -0.00000000 -0.00000000 -0.00000000 -0.00000000 -0.00000000 -0.00000000 -0.00000000 -0.00000000
    Gval -0.00000000 -0.00000000 -0.00000000 -0.00000000 -0.00000000 -0.00000000 -0.00000000 -0.00000000
    Gval -0.00000000 -0.00000000 -0.00000000 -0.00000000 -0.00000000 -0.00000000 -0.00000000 -0.00000000
    Gval -0.00000000 -0.00000000  0.00000000  0.00000000  0.00000000  0.00000000  0.00000000  0.00000000
    Gval  0.00000000  0.00000000  0.00000000  0.00000000  0.00000000  0.00000000  0.00000000  0.00000000
    Gval  0.00000000  0.00000000  0.00000000  0.00000000  0.00000000  0.00000000  0.00000000  0.00000000
    Gval  0.00000000  0.00000000  0.00000000  0.00000000  0.00000000  0.00000000  0.00000000  0.00000000
    Gval  0.00000000  0.00000000  0.00000000  0.00000000  0.00000000  0.00000000  0.00000000  0.00000000
    Gval  0.00000000  0.00000000  0.00000000  0.00000000  0.00000000  0.00000000  0.00000138  0.00000358
    Gval  0.00000645  0.00000716  0.00001274  0.00002131  0.00002213  0.00002896  0.00004269  0.00004709
    Gval  0.00005018  0.00005123  0.00005747  0.00005799  0.00006131  0.00006178  0.00006933  0.00007418
    Gval  0.00008300  0.00009865  0.00010967  0.00011492  0.00011918  0.00012077  0.00012553  0.00013100
    Gval  0.00014042  0.00018224  0.00024071  0.00025675  0.00026600  0.00028389  0.00029166  0.00033710
    Gval  0.00035481  0.00036663  0.00038574  0.00040689  0.00043250  0.00052300  0.00054286  0.00059305
    Gval  0.00059305  0.00059341  0.00059354  0.00059749  0.00059955  0.00060385  0.00060387  0.00060571
    Gval  0.00061595  0.00062169  0.00062526  0.00064129  0.00064890  0.00066029  0.00066047  0.00081767
    Gval  0.00102302  0.00104320  0.00104334  0.00108211  0.00111057  0.00111235  0.00111330  0.00114157
    Gval  0.00114164  0.00115709  0.00117329  0.00117351  0.00117351  0.00117429  0.00117473  0.00141898
    Gval  0.00142932  0.00156577  0.00176612  0.00199996  0.00234742  0.00235778  0.00236696  0.00254191
    Gval  0.00312249  0.00317103  0.00362409  0.00368944  0.00373388  0.00373578  0.00406240  0.00406291
  1.379645126919101E-006  1.379645126919101E-006
  3.579253721706910E-006  1.379645126919101E-006
  6.446326609449794E-006  1.379645126919101E-006
  7.161820814704044E-006  1.379645126919101E-006
  1.273996326229896E-005  1.379645126919101E-006
  2.131087778754497E-005  1.379645126919101E-006
  2.212563121005799E-005  1.379645126919101E-006
  2.896102341739847E-005  1.379645126919101E-006
  4.269338771323593E-005  1.379645126919101E-006
  4.708860374489211E-005  1.379645126919101E-006
  5.018163254852974E-005  1.379645126919101E-006
  5.123415419761400E-005  1.379645126919101E-006
  5.747414941888632E-005  1.379645126919101E-006
  5.798654865221260E-005  1.379645126919101E-006
  6.130980084243653E-005  1.379645126919101E-006
  6.177844318083974E-005  1.379645126919101E-006
  6.932865475633647E-005  1.379645126919101E-006
  7.418033884648554E-005  1.379645126919101E-006
  8.300353025570324E-005  1.379645126919101E-006
  9.865389434652088E-005  1.379645126919101E-006
  1.096748963192573E-004  1.379645126919101E-006
  1.149179976381662E-004  1.379645126919101E-006
  1.191750522653605E-004  1.379645126919101E-006
  1.207716028857570E-004  1.379645126919101E-006
  1.255335062030452E-004  1.379645126919101E-006
  1.309976708768729E-004  1.379645126919101E-006
  1.404194953142293E-004  1.379645126919101E-006
  1.822398183025570E-004  1.379645126919101E-006
  2.407065160941234E-004  1.379645126919101E-006
  2.567469471655753E-004  1.379645126919101E-006
  2.659986568848657E-004  1.379645126919101E-006
  2.838881630728407E-004  1.379645126919101E-006
  2.916643002846749E-004  1.379645126919101E-006
  3.370970387158432E-004  1.379645126919101E-006
  3.548089805348034E-004  1.379645126919101E-006
  3.666344861642503E-004  1.379645126919101E-006
  3.857432793168194E-004  1.379645126919101E-006
  4.068889155642976E-004  1.379645126919101E-006
  4.324987073816133E-004  1.379645126919101E-006
  5.230017952576884E-004  1.379645126919101E-006
  5.428579546525235E-004  1.379645126919101E-006
  5.930488759292843E-004  1.379645126919101E-006
  5.930489146759529E-004  1.379645126919101E-006
  5.934113874677329E-004  1.379645126919101E-006
  5.935390805886566E-004  1.379645126919101E-006
  5.974858450305375E-004  1.379645126919101E-006
  5.995473320773619E-004  1.379645126919101E-006
  6.038534953565709E-004  1.379645126919101E-006
  6.038677314116134E-004  1.379645126919101E-006
  6.057059414534079E-004  1.379645126919101E-006
  6.159497606355733E-004  1.379645126919101E-006
  6.216899330274255E-004  1.379645126919101E-006
  6.252565160108773E-004  1.379645126919101E-006
  6.412942490498277E-004  1.379645126919101E-006
  6.488963323754566E-004  1.379645126919101E-006
  6.602862151430985E-004  1.379645126919101E-006
  6.604686164127329E-004  1.379645126919101E-006
  8.176693358942206E-004  1.379645126919101E-006
  1.023022363826357E-003  1.379645126919101E-006
  1.043197845494408E-003  1.379645126919101E-006
  1.043343686784093E-003  1.379645126919101E-006
  1.082113932814895E-003  1.379645126919101E-006
  1.110574195585407E-003  1.379645126919101E-006
  1.112354042846301E-003  1.379645126919101E-006
  1.113304832956224E-003  1.379645126919101E-006
  1.141574963194746E-003  1.379645126919101E-006
  1.141642849707120E-003  1.379645126919101E-006
  1.157088695031584E-003  1.379645126919101E-006
  1.173286274383732E-003  1.379645126919101E-006
  1.173512300505900E-003  1.379645126919101E-006
  1.173512320349717E-003  1.379645126919101E-006
  1.174286432440540E-003  1.379645126919101E-006
  1.174731216612978E-003  1.379645126919101E-006
  1.418975718480627E-003  1.379645126919101E-006
  1.429320433586579E-003  1.379645126919101E-006
  1.565772383278081E-003  1.379645126919101E-006
  1.766116612041706E-003  1.379645126919101E-006
  1.999955179766120E-003  1.379645126919101E-006
  2.347424626616658E-003  1.379645126919101E-006
  2.357781814280608E-003  1.379645126919101E-006
  2.366955318415335E-003  1.379645126919101E-006
  2.541910361931613E-003  1.379645126919101E-006
  3.122491009513315E-003  1.379645126919101E-006
  3.171025859461573E-003  1.379645126919101E-006
  3.624085570400816E-003  1.379645126919101E-006
  3.689440234574273E-003  1.379645126919101E-006
  3.733883474097223E-003  1.379645126919101E-006
  3.735781188482471E-003  1.379645126919101E-006
  4.062400594668000E-003  1.379645126919101E-006
  4.062907913104000E-003  1.379645126919101E-006
 cut=1d-8, nber non-redundant internal coords=          90
 Check on Eigenvals of non-red overlap matrix:
  0.00000138  0.00000358  0.00000645  0.00000716  0.00001274  0.00002131  0.00002213  0.00002896
  0.00004269  0.00004709  0.00005018  0.00005123  0.00005747  0.00005799  0.00006131  0.00006178
  0.00006933  0.00007418  0.00008300  0.00009865  0.00010967  0.00011492  0.00011918  0.00012077
  0.00012553  0.00013100  0.00014042  0.00018224  0.00024071  0.00025675  0.00026600  0.00028389
  0.00029166  0.00033710  0.00035481  0.00036663  0.00038574  0.00040689  0.00043250  0.00052300
  0.00054286  0.00059305  0.00059305  0.00059341  0.00059354  0.00059749  0.00059955  0.00060385
  0.00060387  0.00060571  0.00061595  0.00062169  0.00062526  0.00064129  0.00064890  0.00066029
  0.00066047  0.00081767  0.00102302  0.00104320  0.00104334  0.00108211  0.00111057  0.00111235
  0.00111330  0.00114157  0.00114164  0.00115709  0.00117329  0.00117351  0.00117351  0.00117429
  0.00117473  0.00141898  0.00142932  0.00156577  0.00176612  0.00199996  0.00234742  0.00235778
  0.00236696  0.00254191  0.00312249  0.00317103  0.00362409  0.00368944  0.00373388  0.00373578
  0.00406240  0.00406291
 Checking for correct frequencies
 recalc frequencies=
   -71.3  -41.2   -0.0   -0.0   -0.0   -0.0   -0.0    0.0   33.5  102.2
   102.8  165.7  219.9  232.6  279.2  378.1  385.7  386.0  388.5  433.3
   438.5  462.5  488.3  550.7  607.3  617.9  618.9  642.2  662.2  666.1
   708.0  728.0  780.1  784.0  795.7  808.4  823.3  825.4  865.0  947.2
   949.2  979.1  986.2  989.1  996.2  998.0 1001.0 1006.7 1015.2 1025.7
  1026.3 1029.4 1046.9 1048.8 1122.9 1123.1 1170.2 1193.5 1195.9 1215.2
  1227.1 1266.1 1302.7 1309.9 1333.5 1339.6 1348.6 1356.9 1372.7 1377.2
  1469.2 1469.4 1496.4 1503.3 1523.5 1524.1 1549.7 1575.8 1577.9 1614.8
  1634.5 1650.9 3186.6 3186.7 3195.8 3196.1 3203.1 3203.8 3211.1 3211.5
  3216.8 3217.9 3230.0 3230.2 3237.4 3239.2
 recalc symmetries=
     B1g    Au     B3g    B2u    B3u    B2g    B1g    B1u    B3u    B2u
     B2g    B3u    B3g    Ag     B2g    Au     B2u    B1g    Au     B3u
     B1u    B3g    B2g    B3u    B3g    B2u    Ag     B3g    B3u    B2g
     B1u    B2g    B3u    Ag     B1g    B2g    Au     B1g    B3u    B2g
     B3u    Au     B2g    Ag     B1g    B1u    Au     B1u    Ag     B3u
     B2g    B1u    B1u    Ag     B2u    B3g    B2u    B3g    B2u    Ag 
     B1u    Ag     B3g    B2u    B1u    Ag     B3g    B2u    B3g    B2u
     B3g    B2u    B1u    B2u    B3g    Ag     B1u    B3g    B2u    B1u
     Ag     Ag     B1u    Ag     B3g    B2u    B1u    Ag     B3g    B1u
     B2u    Ag     B3g    B1u    B2u    Ag 
 recalc freqs check OK
 Zero-point lengths:
 29.3687 38.6117 10.0000 10.0000 10.0000 10.0000 10.0000 10.0000 42.8119 24.5280
 24.4520 19.2591 16.7176 16.2553 14.8354 12.7490 12.6240 12.6189 12.5777 11.9091
 11.8387 11.5270 11.2188 10.5642 10.0599  9.9735  9.9650  9.7826  9.6337  9.6058
  9.3172  9.1882  8.8760  8.8539  8.7887  8.7195  8.6401  8.6290  8.4292  8.0552
  8.0468  7.9229  7.8941  7.8827  7.8545  7.8474  7.8357  7.8134  7.7809  7.7407
  7.7386  7.7267  7.6620  7.6552  7.3982  7.3975  7.2470  7.1759  7.1689  7.1116
  7.0771  6.9674  6.8686  6.8498  6.7890  6.7735  6.7507  6.7302  6.6913  6.6802
  6.4677  6.4674  6.4087  6.3940  6.3515  6.3501  6.2975  6.2453  6.2411  6.1693
  6.1320  6.1016  4.3917  4.3916  4.3853  4.3852  4.3803  4.3799  4.3749  4.3746
  4.3710  4.3703  4.3621  4.3619  4.3571  4.3559
 highest evec of mol 2
  0.0000  0.0000 -0.0044
  0.0000 -0.0121 -0.0089
  0.0000 -0.0612  0.0328
  0.0000  0.0000  0.0023
  0.0000  0.0612  0.0328
  0.0000  0.0121 -0.0089
  0.0000  0.0000 -0.0047
  0.0000  0.1099 -0.0633
  0.0000  0.1099  0.0633
  0.0000  0.0000  0.0047
  0.0000 -0.1099  0.0633
  0.0000 -0.1099 -0.0633
  0.0000  0.0000 -0.0023
  0.0000  0.0612 -0.0328
  0.0000  0.0121  0.0089
  0.0000  0.0000  0.0044
  0.0000 -0.0121  0.0089
  0.0000 -0.0612 -0.0328
  0.0000  0.0000  0.0116
  0.0000  0.0381  0.0226
  0.0000  0.2041 -0.1147
  0.0000 -0.2041 -0.1147
  0.0000 -0.0381  0.0226
  0.0000 -0.3634  0.1999
  0.0000 -0.3634 -0.1999
  0.0000  0.3634 -0.1999
  0.0000  0.3634  0.1999
  0.0000 -0.2041  0.1147
  0.0000 -0.0381 -0.0226
  0.0000  0.0000 -0.0116
  0.0000  0.0381 -0.0226
  0.0000  0.2041  0.1147
 Enter nber and list of atoms to keep of mol #2
 keep list:          32           1           2           3           4
           5           6           7           8           9          10
          11          12          13          14          15          16
          17          18          19          20          21          22
          23          24          25          26          27          28
          29          30          31          32
 reordering atoms
           1   5.71530600000000     
           2   5.01455000000000     
           3   3.63321700000000     
           4   2.89352700000000     
           5   3.63321700000000     
           6   5.01455000000000     
           7   1.43977700000000     
           8  0.684970000000000     
           9 -0.684970000000000     
          10  -1.43977700000000     
          11 -0.684970000000000     
          12  0.684970000000000     
          13  -2.89352700000000     
          14  -3.63321700000000     
          15  -5.01455000000000     
          16  -5.71530600000000     
          17  -5.01455000000000     
          18  -3.63321700000000     
          19   6.79884900000000     
          20   5.55489500000000     
          21   3.12511100000000     
          22   3.12511100000000     
          23   5.55489500000000     
          24   1.18919500000000     
          25  -1.18919500000000     
          26  -1.18919500000000     
          27   1.18919500000000     
          28  -3.12511100000000     
          29  -5.55489500000000     
          30  -6.79884900000000     
          31  -5.55489500000000     
          32  -3.12511100000000     
           1           1
           2           2
           3           3
           4           4
           5           5
           6           6
           7           7
           8           8
           9           9
          10          10
          11          11
          12          12
          13          13
          14          14
          15          15
          16          16
          17          17
          18          18
          19          19
          20          20
          21          21
          22          22
          23          23
          24          24
          25          25
          26          26
          27          27
          28          28
          29          29
          30          30
          31          31
          32          32
 initial cartes coords mol 1
   6   0.00000   0.00000   5.76381
   6   0.00000  -1.19911   5.05632
   6   0.00000  -1.19765   3.66585
   6   0.00000   0.00000   2.92958
   6   0.00000   1.19765   3.66585
   6   0.00000   1.19911   5.05632
   6   0.00000   0.00000   1.43953
   6   0.00000   1.18945   0.69354
   6   0.00000   1.18945  -0.69354
   6   0.00000   0.00000  -1.43953
   6   0.00000  -1.18945  -0.69354
   6   0.00000  -1.18945   0.69354
   6   0.00000   0.00000  -2.92958
   6   0.00000   1.19765  -3.66585
   6   0.00000   1.19911  -5.05632
   6   0.00000   0.00000  -5.76381
   6   0.00000  -1.19911  -5.05632
   6   0.00000  -1.19765  -3.66585
   1   0.00000   0.00000   6.84769
   1   0.00000  -2.14430   5.58784
   1   0.00000  -2.15205   3.15645
   1   0.00000   2.15205   3.15645
   1   0.00000   2.14430   5.58784
   1   0.00000   2.14857   1.19399
   1   0.00000   2.14857  -1.19399
   1   0.00000  -2.14857  -1.19399
   1   0.00000  -2.14857   1.19399
   1   0.00000   2.15205  -3.15645
   1   0.00000   2.14430  -5.58784
   1   0.00000   0.00000  -6.84769
   1   0.00000  -2.14430  -5.58784
   1   0.00000  -2.15205  -3.15645
 initial cartes coords mol 2
   6   0.00000   0.00000   5.71531
   6   0.00000  -1.21105   5.01455
   6   0.00000  -1.21381   3.63322
   6   0.00000   0.00000   2.89353
   6   0.00000   1.21381   3.63322
   6   0.00000   1.21105   5.01455
   6   0.00000   0.00000   1.43978
   6   0.00000   1.20861   0.68497
   6   0.00000   1.20861  -0.68497
   6   0.00000   0.00000  -1.43978
   6   0.00000  -1.20861  -0.68497
   6   0.00000  -1.20861   0.68497
   6   0.00000   0.00000  -2.89353
   6   0.00000   1.21381  -3.63322
   6   0.00000   1.21105  -5.01455
   6   0.00000   0.00000  -5.71531
   6   0.00000  -1.21105  -5.01455
   6   0.00000  -1.21381  -3.63322
   1   0.00000   0.00000   6.79885
   1   0.00000  -2.14950   5.55490
   1   0.00000  -2.16727   3.12511
   1   0.00000   2.16727   3.12511
   1   0.00000   2.14950   5.55490
   1   0.00000   2.16365   1.18920
   1   0.00000   2.16365  -1.18919
   1   0.00000  -2.16365  -1.18919
   1   0.00000  -2.16365   1.18920
   1   0.00000   2.16727  -3.12511
   1   0.00000   2.14950  -5.55490
   1   0.00000   0.00000  -6.79885
   1   0.00000  -2.14950  -5.55490
   1   0.00000  -2.16727  -3.12511
 loop 1 0
 mod cartes coords mol 2
   6   0.00000   0.00000   5.71531
   6   0.00000  -1.21105   5.01455
   6   0.00000  -1.21381   3.63322
   6   0.00000   0.00000   2.89353
   6   0.00000   1.21381   3.63322
   6   0.00000   1.21105   5.01455
   6   0.00000   0.00000   1.43978
   6   0.00000   1.20861   0.68497
   6   0.00000   1.20861  -0.68497
   6   0.00000   0.00000  -1.43978
   6   0.00000  -1.20861  -0.68497
   6   0.00000  -1.20861   0.68497
   6   0.00000   0.00000  -2.89353
   6   0.00000   1.21381  -3.63322
   6   0.00000   1.21105  -5.01455
   6   0.00000   0.00000  -5.71531
   6   0.00000  -1.21105  -5.01455
   6   0.00000  -1.21381  -3.63322
   1   0.00000   0.00000   6.79885
   1   0.00000  -2.14950   5.55490
   1   0.00000  -2.16727   3.12511
   1   0.00000   2.16727   3.12511
   1   0.00000   2.14950   5.55490
   1   0.00000   2.16365   1.18920
   1   0.00000   2.16365  -1.18919
   1   0.00000  -2.16365  -1.18919
   1   0.00000  -2.16365   1.18920
   1   0.00000   2.16727  -3.12511
   1   0.00000   2.14950  -5.55490
   1   0.00000   0.00000  -6.79885
   1   0.00000  -2.14950  -5.55490
   1   0.00000  -2.16727  -3.12511
 read in order, maxerr=  0.05 for atom  19
 final axis swaps:           1           1           1
 final xyz swap pattern=           1
 reorder list:
   1   2   3   4   5   6   7   8   9  10  11  12  13  14  15  16  17  18  19  20
  21  22  23  24  25  26  27  28  29  30  31  32
 axis signs=           1           1           1
  6     0.000000  0.000000  5.715306     0.000000  0.000000  5.763809
  6     0.000000 -1.211047  5.014550     0.000000 -1.199114  5.056323
  6     0.000000 -1.213808  3.633217     0.000000 -1.197655  3.665848
  6     0.000000  0.000000  2.893527     0.000000  0.000000  2.929576
  6     0.000000  1.213808  3.633217     0.000000  1.197655  3.665848
  6     0.000000  1.211047  5.014550     0.000000  1.199114  5.056323
  6     0.000000  0.000000  1.439777     0.000000  0.000000  1.439533
  6     0.000000  1.208613  0.684970     0.000000  1.189455  0.693544
  6     0.000000  1.208613 -0.684970     0.000000  1.189455 -0.693544
  6     0.000000  0.000000 -1.439777     0.000000  0.000000 -1.439533
  6     0.000000 -1.208613 -0.684970     0.000000 -1.189455 -0.693544
  6     0.000000 -1.208613  0.684970     0.000000 -1.189455  0.693544
  6     0.000000  0.000000 -2.893527     0.000000  0.000000 -2.929576
  6     0.000000  1.213808 -3.633217     0.000000  1.197655 -3.665848
  6     0.000000  1.211047 -5.014550     0.000000  1.199114 -5.056323
  6     0.000000  0.000000 -5.715306     0.000000  0.000000 -5.763809
  6     0.000000 -1.211047 -5.014550     0.000000 -1.199114 -5.056323
  6     0.000000 -1.213808 -3.633217     0.000000 -1.197655 -3.665848
  1     0.000000  0.000000  6.798849     0.000000  0.000000  6.847690
  1     0.000000 -2.149498  5.554895     0.000000 -2.144300  5.587840
  1     0.000000 -2.167273  3.125111     0.000000 -2.152050  3.156449
  1     0.000000  2.167273  3.125111     0.000000  2.152050  3.156449
  1     0.000000  2.149498  5.554895     0.000000  2.144300  5.587840
  1     0.000000  2.163650  1.189195     0.000000  2.148565  1.193990
  1     0.000000  2.163650 -1.189195     0.000000  2.148565 -1.193990
  1     0.000000 -2.163650 -1.189195     0.000000 -2.148565 -1.193990
  1     0.000000 -2.163650  1.189195     0.000000 -2.148565  1.193990
  1     0.000000  2.167273 -3.125111     0.000000  2.152050 -3.156449
  1     0.000000  2.149498 -5.554895     0.000000  2.144300 -5.587840
  1     0.000000  0.000000 -6.798849     0.000000  0.000000 -6.847690
  1     0.000000 -2.149498 -5.554895     0.000000 -2.144300 -5.587840
  1     0.000000 -2.167273 -3.125111     0.000000 -2.152050 -3.156449
 generating redundant internal coords
         300        3600          32
 Adding extra bonds for z output only
           6           6           6           6           6           6
           6           6           6           6           6           6
           6           6           6           6           6           6
           1           1           1           1           1           1
           1           1           1           1           1           1
           1           1
 search for int coords
   1 str   2   1   1.399
   2 str   3   2   1.381
   3 str   4   3   1.421
   4 str   5   4   1.421
   5 str   6   1   1.399
   6 str   6   5   1.381
   7 str   7   4   1.454
   8 str   8   7   1.425
   9 str   9   8   1.370
  10 str  10   9   1.425
  11 str  11  10   1.425
  12 str  12   7   1.425
  13 str  12  11   1.370
  14 str  13  10   1.454
  15 str  14  13   1.421
  16 str  15  14   1.381
  17 str  16  15   1.399
  18 str  17  16   1.399
  19 str  18  13   1.421
  20 str  18  17   1.381
  21 str  19   1   1.084
  22 str  20   2   1.083
  23 str  21   3   1.080
  24 str  22   5   1.080
  25 str  23   6   1.083
  26 str  24   8   1.080
  27 str  25   9   1.080
  28 str  26  11   1.080
  29 str  27  12   1.080
  30 str  28  14   1.080
  31 str  29  15   1.083
  32 str  30  16   1.084
  33 str  31  17   1.083
  34 str  32  18   1.080
 nber stretches=          34
  35 ben   1   2   3
  36 prop tor   1   2   3   4
  37 prop tor   1   2   3  21
  38 ben   1   2  20
  39 ben   1   6   5
  40 ben   1   6  23
  41 ben   2   1   6
  42 prop tor   2   1   6   5
  43 prop tor   2   1   6  23
  44 ben   2   1  19
  45 ben   2   3   4
  46 prop tor   2   3   4   5
  47 prop tor   2   3   4   7
  48 ben   2   3  21
  49 ben   3   2  20
  50 ben   3   4   5
  51 prop tor   3   4   5   6
  52 prop tor   3   4   5  22
  53 ben   3   4   7
  54 prop tor   3   4   7   8
  55 prop tor   3   4   7  12
  56 ben   4   3  21
  57 ben   4   5   6
  58 prop tor   4   5   6   1
  59 prop tor   4   5   6  23
  60 ben   4   5  22
  61 ben   4   7   8
  62 prop tor   4   7   8   9
  63 prop tor   4   7   8  24
  64 ben   4   7  12
  65 prop tor   4   7  12  11
  66 prop tor   4   7  12  27
  67 ben   5   4   7
  68 prop tor   5   4   7   8
  69 prop tor   5   4   7  12
  70 ben   5   6  23
  71 prop tor   6   1   2   3
  72 prop tor   6   1   2  20
  73 ben   6   1  19
  74 ben   6   5  22
  75 prop tor   7   4   5   6
  76 prop tor   7   4   5  22
  77 ben   7   8   9
  78 prop tor   7   8   9  10
  79 prop tor   7   8   9  25
  80 ben   7   8  24
  81 ben   7  12  11
  82 ben   7  12  27
  83 ben   8   7  12
  84 prop tor   8   7  12  11
  85 prop tor   8   7  12  27
  86 ben   8   9  10
  87 prop tor   8   9  10  11
  88 prop tor   8   9  10  13
  89 ben   8   9  25
  90 ben   9   8  24
  91 ben   9  10  11
  92 prop tor   9  10  11  12
  93 prop tor   9  10  11  26
  94 ben   9  10  13
  95 prop tor   9  10  13  14
  96 prop tor   9  10  13  18
  97 ben  10   9  25
  98 ben  10  11  12
  99 prop tor  10  11  12   7
 100 prop tor  10  11  12  27
 101 ben  10  11  26
 102 ben  10  13  14
 103 prop tor  10  13  14  15
 104 prop tor  10  13  14  28
 105 ben  10  13  18
 106 prop tor  10  13  18  17
 107 prop tor  10  13  18  32
 108 ben  11  10  13
 109 prop tor  11  10  13  14
 110 prop tor  11  10  13  18
 111 ben  11  12  27
 112 prop tor  12   7   8   9
 113 prop tor  12   7   8  24
 114 ben  12  11  26
 115 prop tor  13  10  11  12
 116 prop tor  13  10  11  26
 117 ben  13  14  15
 118 prop tor  13  14  15  16
 119 prop tor  13  14  15  29
 120 ben  13  14  28
 121 ben  13  18  17
 122 ben  13  18  32
 123 ben  14  13  18
 124 prop tor  14  13  18  17
 125 prop tor  14  13  18  32
 126 ben  14  15  16
 127 prop tor  14  15  16  17
 128 prop tor  14  15  16  30
 129 ben  14  15  29
 130 ben  15  14  28
 131 ben  15  16  17
 132 prop tor  15  16  17  18
 133 prop tor  15  16  17  31
 134 ben  15  16  30
 135 ben  16  15  29
 136 ben  16  17  18
 137 prop tor  16  17  18  13
 138 prop tor  16  17  18  32
 139 ben  16  17  31
 140 ben  17  16  30
 141 ben  17  18  32
 142 prop tor  18  13  14  15
 143 prop tor  18  13  14  28
 144 ben  18  17  31
 145 prop tor  19   1   2   3
 146 prop tor  19   1   2  20
 147 prop tor  19   1   6   5
 148 prop tor  19   1   6  23
 149 prop tor  20   2   3   4
 150 prop tor  20   2   3  21
 151 prop tor  21   3   4   5
 152 prop tor  21   3   4   7
 153 prop tor  22   5   6   1
 154 prop tor  22   5   6  23
 155 prop tor  24   8   9  10
 156 prop tor  24   8   9  25
 157 prop tor  25   9  10  11
 158 prop tor  25   9  10  13
 159 prop tor  26  11  12   7
 160 prop tor  26  11  12  27
 161 prop tor  28  14  15  16
 162 prop tor  28  14  15  29
 163 prop tor  29  15  16  17
 164 prop tor  29  15  16  30
 165 prop tor  30  16  17  18
 166 prop tor  30  16  17  31
 167 prop tor  31  17  18  13
 168 prop tor  31  17  18  32
 nber bend=              54
 nber lin bend=           0
 nber prop tor=          80
 nber impr tor=           0
 nber tot redund int=         168
 generating redundant internal coords
         300        3600          32
 search for int coords
   1 str   2   1   1.392
   2 str   3   2   1.390
   3 str   4   3   1.406
   4 str   5   4   1.406
   5 str   6   1   1.392
   6 str   6   5   1.390
   7 str   7   4   1.490
   8 str   8   7   1.404
   9 str   9   8   1.387
  10 str  10   9   1.404
  11 str  11  10   1.404
  12 str  12   7   1.404
  13 str  12  11   1.387
  14 str  13  10   1.490
  15 str  14  13   1.406
  16 str  15  14   1.390
  17 str  16  15   1.392
  18 str  17  16   1.392
  19 str  18  13   1.406
  20 str  18  17   1.390
  21 str  19   1   1.084
  22 str  20   2   1.084
  23 str  21   3   1.082
  24 str  22   5   1.082
  25 str  23   6   1.084
  26 str  24   8   1.082
  27 str  25   9   1.082
  28 str  26  11   1.082
  29 str  27  12   1.082
  30 str  28  14   1.082
  31 str  29  15   1.084
  32 str  30  16   1.084
  33 str  31  17   1.084
  34 str  32  18   1.082
 nber stretches=          34
  35 ben   1   2   3
  36 prop tor   1   2   3   4
  37 prop tor   1   2   3  21
  38 ben   1   2  20
  39 ben   1   6   5
  40 ben   1   6  23
  41 ben   2   1   6
  42 prop tor   2   1   6   5
  43 prop tor   2   1   6  23
  44 ben   2   1  19
  45 ben   2   3   4
  46 prop tor   2   3   4   5
  47 prop tor   2   3   4   7
  48 ben   2   3  21
  49 ben   3   2  20
  50 ben   3   4   5
  51 prop tor   3   4   5   6
  52 prop tor   3   4   5  22
  53 ben   3   4   7
  54 prop tor   3   4   7   8
  55 prop tor   3   4   7  12
  56 ben   4   3  21
  57 ben   4   5   6
  58 prop tor   4   5   6   1
  59 prop tor   4   5   6  23
  60 ben   4   5  22
  61 ben   4   7   8
  62 prop tor   4   7   8   9
  63 prop tor   4   7   8  24
  64 ben   4   7  12
  65 prop tor   4   7  12  11
  66 prop tor   4   7  12  27
  67 ben   5   4   7
  68 prop tor   5   4   7   8
  69 prop tor   5   4   7  12
  70 ben   5   6  23
  71 prop tor   6   1   2   3
  72 prop tor   6   1   2  20
  73 ben   6   1  19
  74 ben   6   5  22
  75 prop tor   7   4   5   6
  76 prop tor   7   4   5  22
  77 ben   7   8   9
  78 prop tor   7   8   9  10
  79 prop tor   7   8   9  25
  80 ben   7   8  24
  81 ben   7  12  11
  82 ben   7  12  27
  83 ben   8   7  12
  84 prop tor   8   7  12  11
  85 prop tor   8   7  12  27
  86 ben   8   9  10
  87 prop tor   8   9  10  11
  88 prop tor   8   9  10  13
  89 ben   8   9  25
  90 ben   9   8  24
  91 ben   9  10  11
  92 prop tor   9  10  11  12
  93 prop tor   9  10  11  26
  94 ben   9  10  13
  95 prop tor   9  10  13  14
  96 prop tor   9  10  13  18
  97 ben  10   9  25
  98 ben  10  11  12
  99 prop tor  10  11  12   7
 100 prop tor  10  11  12  27
 101 ben  10  11  26
 102 ben  10  13  14
 103 prop tor  10  13  14  15
 104 prop tor  10  13  14  28
 105 ben  10  13  18
 106 prop tor  10  13  18  17
 107 prop tor  10  13  18  32
 108 ben  11  10  13
 109 prop tor  11  10  13  14
 110 prop tor  11  10  13  18
 111 ben  11  12  27
 112 prop tor  12   7   8   9
 113 prop tor  12   7   8  24
 114 ben  12  11  26
 115 prop tor  13  10  11  12
 116 prop tor  13  10  11  26
 117 ben  13  14  15
 118 prop tor  13  14  15  16
 119 prop tor  13  14  15  29
 120 ben  13  14  28
 121 ben  13  18  17
 122 ben  13  18  32
 123 ben  14  13  18
 124 prop tor  14  13  18  17
 125 prop tor  14  13  18  32
 126 ben  14  15  16
 127 prop tor  14  15  16  17
 128 prop tor  14  15  16  30
 129 ben  14  15  29
 130 ben  15  14  28
 131 ben  15  16  17
 132 prop tor  15  16  17  18
 133 prop tor  15  16  17  31
 134 ben  15  16  30
 135 ben  16  15  29
 136 ben  16  17  18
 137 prop tor  16  17  18  13
 138 prop tor  16  17  18  32
 139 ben  16  17  31
 140 ben  17  16  30
 141 ben  17  18  32
 142 prop tor  18  13  14  15
 143 prop tor  18  13  14  28
 144 ben  18  17  31
 145 prop tor  19   1   2   3
 146 prop tor  19   1   2  20
 147 prop tor  19   1   6   5
 148 prop tor  19   1   6  23
 149 prop tor  20   2   3   4
 150 prop tor  20   2   3  21
 151 prop tor  21   3   4   5
 152 prop tor  21   3   4   7
 153 prop tor  22   5   6   1
 154 prop tor  22   5   6  23
 155 prop tor  24   8   9  10
 156 prop tor  24   8   9  25
 157 prop tor  25   9  10  11
 158 prop tor  25   9  10  13
 159 prop tor  26  11  12   7
 160 prop tor  26  11  12  27
 161 prop tor  28  14  15  16
 162 prop tor  28  14  15  29
 163 prop tor  29  15  16  17
 164 prop tor  29  15  16  30
 165 prop tor  30  16  17  18
 166 prop tor  30  16  17  31
 167 prop tor  31  17  18  13
 168 prop tor  31  17  18  32
 nber bend=              54
 nber lin bend=           0
 nber prop tor=          80
 nber impr tor=           0
 nber tot redund int=         168
 Eigenvalues of G in red int coords
    Gval -0.00000000 -0.00000000 -0.00000000 -0.00000000 -0.00000000 -0.00000000 -0.00000000 -0.00000000
    Gval -0.00000000 -0.00000000 -0.00000000 -0.00000000 -0.00000000 -0.00000000 -0.00000000 -0.00000000
    Gval -0.00000000 -0.00000000 -0.00000000 -0.00000000 -0.00000000 -0.00000000 -0.00000000 -0.00000000
    Gval -0.00000000 -0.00000000 -0.00000000 -0.00000000 -0.00000000 -0.00000000 -0.00000000 -0.00000000
    Gval -0.00000000 -0.00000000 -0.00000000 -0.00000000 -0.00000000  0.00000000  0.00000000  0.00000000
    Gval  0.00000000  0.00000000  0.00000000  0.00000000  0.00000000  0.00000000  0.00000000  0.00000000
    Gval  0.00000000  0.00000000  0.00000000  0.00000000  0.00000000  0.00000000  0.00000000  0.00000000
    Gval  0.00000000  0.00000000  0.00000000  0.00000000  0.00000000  0.00000000  0.00000000  0.00000000
    Gval  0.00000000  0.00000000  0.00000000  0.00000000  0.00000000  0.00000000  0.00000000  0.00000000
    Gval  0.00000000  0.00000000  0.00000000  0.00000000  0.00000000  0.00000000  0.00000137  0.00000359
    Gval  0.00000637  0.00000718  0.00001278  0.00002167  0.00002192  0.00002924  0.00004270  0.00004727
    Gval  0.00005048  0.00005100  0.00005781  0.00005782  0.00006142  0.00006151  0.00007102  0.00007425
    Gval  0.00008219  0.00009860  0.00010959  0.00011526  0.00011928  0.00012143  0.00012494  0.00013139
    Gval  0.00013892  0.00017997  0.00024014  0.00025954  0.00026768  0.00028440  0.00029527  0.00033216
    Gval  0.00035726  0.00036922  0.00038924  0.00040123  0.00042782  0.00052793  0.00054995  0.00059308
    Gval  0.00059308  0.00059338  0.00059349  0.00059746  0.00059976  0.00060406  0.00060407  0.00060930
    Gval  0.00061926  0.00062189  0.00062527  0.00064105  0.00065012  0.00066096  0.00066117  0.00080483
    Gval  0.00101730  0.00104133  0.00104147  0.00108029  0.00110964  0.00111091  0.00111233  0.00113890
    Gval  0.00113898  0.00115108  0.00116833  0.00116998  0.00117028  0.00117305  0.00117305  0.00142713
    Gval  0.00143381  0.00157729  0.00176893  0.00200334  0.00234483  0.00235174  0.00236676  0.00254178
    Gval  0.00311688  0.00316551  0.00360365  0.00366894  0.00370762  0.00370993  0.00406679  0.00406718
  1.365411421178540E-006  1.365411421178540E-006
  3.590509860629184E-006  1.365411421178540E-006
  6.365422774871356E-006  1.365411421178540E-006
  7.181223112963586E-006  1.365411421178540E-006
  1.277631404291862E-005  1.365411421178540E-006
  2.166539914217618E-005  1.365411421178540E-006
  2.191800896769556E-005  1.365411421178540E-006
  2.923613952055717E-005  1.365411421178540E-006
  4.270456951997139E-005  1.365411421178540E-006
  4.726892074231945E-005  1.365411421178540E-006
  5.048491995581358E-005  1.365411421178540E-006
  5.100471071397947E-005  1.365411421178540E-006
  5.781270694309765E-005  1.365411421178540E-006
  5.782495899288858E-005  1.365411421178540E-006
  6.141552393095250E-005  1.365411421178540E-006
  6.150643148859383E-005  1.365411421178540E-006
  7.101926818942927E-005  1.365411421178540E-006
  7.425238622103625E-005  1.365411421178540E-006
  8.219129277925486E-005  1.365411421178540E-006
  9.859769900275676E-005  1.365411421178540E-006
  1.095876429588862E-004  1.365411421178540E-006
  1.152591639448433E-004  1.365411421178540E-006
  1.192813627479153E-004  1.365411421178540E-006
  1.214272766722536E-004  1.365411421178540E-006
  1.249369001983335E-004  1.365411421178540E-006
  1.313890234524161E-004  1.365411421178540E-006
  1.389213650829752E-004  1.365411421178540E-006
  1.799725836300543E-004  1.365411421178540E-006
  2.401417661975545E-004  1.365411421178540E-006
  2.595353900087737E-004  1.365411421178540E-006
  2.676759470026984E-004  1.365411421178540E-006
  2.844026407785925E-004  1.365411421178540E-006
  2.952745318775709E-004  1.365411421178540E-006
  3.321616642915844E-004  1.365411421178540E-006
  3.572618982191665E-004  1.365411421178540E-006
  3.692172707368339E-004  1.365411421178540E-006
  3.892369725568980E-004  1.365411421178540E-006
  4.012346645480008E-004  1.365411421178540E-006
  4.278158332555164E-004  1.365411421178540E-006
  5.279331450516456E-004  1.365411421178540E-006
  5.499478289058489E-004  1.365411421178540E-006
  5.930754316899257E-004  1.365411421178540E-006
  5.930754695075069E-004  1.365411421178540E-006
  5.933751775413745E-004  1.365411421178540E-006
  5.934899692603115E-004  1.365411421178540E-006
  5.974624473189859E-004  1.365411421178540E-006
  5.997552419975158E-004  1.365411421178540E-006
  6.040591186548998E-004  1.365411421178540E-006
  6.040746306264428E-004  1.365411421178540E-006
  6.092992575199191E-004  1.365411421178540E-006
  6.192554964035564E-004  1.365411421178540E-006
  6.218852457421320E-004  1.365411421178540E-006
  6.252655843749377E-004  1.365411421178540E-006
  6.410502567714292E-004  1.365411421178540E-006
  6.501221399975948E-004  1.365411421178540E-006
  6.609621760462298E-004  1.365411421178540E-006
  6.611727586507660E-004  1.365411421178540E-006
  8.048284328514639E-004  1.365411421178540E-006
  1.017296033322208E-003  1.365411421178540E-006
  1.041325253194418E-003  1.365411421178540E-006
  1.041471333098406E-003  1.365411421178540E-006
  1.080291563773315E-003  1.365411421178540E-006
  1.109637511354802E-003  1.365411421178540E-006
  1.110906973445229E-003  1.365411421178540E-006
  1.112329543281043E-003  1.365411421178540E-006
  1.138899167588491E-003  1.365411421178540E-006
  1.138982276573341E-003  1.365411421178540E-006
  1.151079473910435E-003  1.365411421178540E-006
  1.168327309578032E-003  1.365411421178540E-006
  1.169977924108678E-003  1.365411421178540E-006
  1.170275940782699E-003  1.365411421178540E-006
  1.173050221905086E-003  1.365411421178540E-006
  1.173050230134767E-003  1.365411421178540E-006
  1.427134756367571E-003  1.365411421178540E-006
[...]
  13 B3g   216. -0.9997    99.9    99.9  13 B3g   220.
  14 Ag    229. -0.9999   100.0    98.8  14 Ag    233.
  15 B2g   309.  0.9962    99.2   101.6  15 B2g   279.
  16 B2u   382. -0.9997    99.9   103.2  17 B2u   386.
  17 Au    385.  0.9911    98.2    99.9  16 Au    378.
  18 B1g   404. -0.9989    99.8    99.0  18 B1g   386.
  19 Au    416. -0.9918    98.4    99.4  19 Au    388.
  20 B1u   433. -0.9993    99.9    98.8  21 B1u   439.
  21 B3u   454.  0.9925    98.5    99.3  20 B3u   433.
  22 B3g   461. -0.9997    99.9   102.7  22 B3g   463.
  23 B2g   528.  0.9866    97.3   101.6  23 B2g   488.
  24 B3u   558. -0.9816    96.4   101.2  24 B3u   551.
  25 Ag    626.  0.9996    99.9    98.5  27 Ag    619.
  26 B3g   629. -0.9904    98.1    99.6  25 B3g   607.
  27 B2u   636.  0.9994    99.9    99.7  26 B2u   618.
  28 B3g   664.  0.9899    98.0    99.6  28 B3g   642.
  29 B2g   693. -0.9469    89.7   100.0  30 B2g   666.
  30 B3u   697.  0.9806    96.2    99.8  29 B3u   662.
  31 B1u   711. -0.9966    99.3    99.6  31 B1u   708.
  32 B2g   729.  0.9521    90.7    98.7  32 B2g   728.
  33 B3u   764.  0.9926    98.5    99.7  33 B3u   780.
  34 Ag    791. -0.9960    99.2    99.4  34 Ag    784.
  35 B2g   793.  0.9849    97.0    99.8  36 B2g   808.
  36 B1g   805. -0.9658    93.3    99.9  35 B1g   796.
  37 Au    834.  0.9962    99.2   100.2  37 Au    823.
  38 B1g   848.  0.9627    92.7   100.2  38 B1g   825.
  39 B3u   853.  0.9914    98.3    99.8  39 B3u   865.
  40 B3u   919.  0.9835    96.7   100.0  41 B3u   949.
  41 B2g   919.  0.9781    95.7   100.0  40 B2g   947.
  42 Au    946.  0.9990    99.8   100.5  42 Au    979.
  43 B2g   955. -0.9898    98.0   100.6  43 B2g   986.
  44 B1g   970.  0.9971    99.4   100.6  45 B1g   996.
  45 Au    975.  0.9978    99.6   100.6  47 Au   1001.
  46 B3u   997.  0.9958    99.2   100.0  50 B3u  1026.
  47 B2g   998. -0.9962    99.2   100.0  51 B2g  1026.
  48 Ag   1011. -0.9075    82.4   100.0  44 Ag    989.
                -0.3883    15.1          49 Ag   1015.
  49 B1u  1015. -0.5840    34.1    99.8  46 B1u   998.
                 0.7301    53.3          48 B1u  1007.
                 0.3341    11.2          52 B1u  1029.
  50 B1u  1019.  0.8046    64.7    99.9  46 B1u   998.
                 0.5384    29.0          48 B1u  1007.
  51 Ag   1024. -0.3778    14.3    99.8  44 Ag    989.
                 0.9196    84.6          49 Ag   1015.
  52 B1u  1053. -0.3350    11.2   100.2  48 B1u  1007.
                 0.8375    70.1          52 B1u  1029.
                -0.4312    18.6          53 B1u  1047.
  53 B1u  1065.  0.3590    12.9    99.6  52 B1u  1029.
                 0.8962    80.3          53 B1u  1047.
  54 Ag   1065. -0.9875    97.5    99.8  54 Ag   1049.
  55 B2u  1111.  0.9936    98.7    99.9  55 B2u  1123.
  56 B3g  1113.  0.9959    99.2    99.9  56 B3g  1123.
  57 B2u  1164. -0.9679    93.7    99.8  57 B2u  1170.
  58 B3g  1185.  0.9915    98.3   100.2  58 B3g  1194.
  59 B2u  1190.  0.9761    95.3   100.1  59 B2u  1196.
  60 Ag   1207.  0.9964    99.3   100.2  60 Ag   1215.
  61 B1u  1220.  0.9904    98.1   100.2  61 B1u  1227.
  62 Ag   1253. -0.9946    98.9   100.1  62 Ag   1266.
  63 Ag   1287. -0.9926    98.5   100.0  66 Ag   1340.
  64 B2u  1292.  0.9314    86.7   100.0  64 B2u  1310.
  65 B1u  1302.  0.9874    97.5    99.7  65 B1u  1333.
  66 B3g  1308. -0.8860    78.5   100.1  63 B3g  1303.
                 0.3712    13.8          69 B3g  1373.
  67 B2u  1321. -0.9280    86.1   100.2  68 B2u  1357.
  68 B3g  1351. -0.9694    94.0   100.4  67 B3g  1349.
  69 B3g  1367.  0.3683    13.6   100.2  63 B3g  1303.
                 0.9009    81.2          69 B3g  1373.
  70 B2u  1374. -0.9690    93.9   100.3  70 B2u  1377.
  71 B2u  1438. -0.7834    61.4    99.6  72 B2u  1469.
                 0.5432    29.5          74 B2u  1503.
  72 B3g  1472. -0.9523    90.7    99.8  71 B3g  1469.
  73 B2u  1489.  0.5401    29.2    99.7  72 B2u  1469.
                 0.8060    65.0          74 B2u  1503.
  74 B1u  1518.  0.9935    98.7   100.3  73 B1u  1496.
  75 Ag   1535. -0.9967    99.3   100.3  76 Ag   1524.
  76 B1u  1568.  0.9874    97.5   100.2  77 B1u  1550.
  77 B3g  1594.  0.8172    66.8   100.5  75 B3g  1523.
                -0.4823    23.3          78 B3g  1576.
  78 B2u  1621.  0.9622    92.6   100.4  79 B2u  1578.
  79 B3g  1625.  0.5216    27.2   100.5  75 B3g  1523.
                 0.8413    70.8          78 B3g  1576.
  80 Ag   1638.  0.5607    31.4    99.6  81 Ag   1634.
                 0.8266    68.3          82 Ag   1651.
  81 B1u  1645.  0.9860    97.2    99.6  80 B1u  1615.
  82 Ag   1656. -0.8251    68.1    99.6  81 Ag   1634.
                 0.5577    31.1          82 Ag   1651.
  83 B1u  3161. -0.9805    96.1   100.0  83 B1u  3187.
  84 Ag   3162.  0.9815    96.3   100.0  84 Ag   3187.
  85 B3g  3169. -0.9993    99.9   100.0  85 B3g  3196.
  86 B2u  3170.  0.9999   100.0   100.0  86 B2u  3196.
  87 B1u  3181. -0.8013    64.2   100.0  87 B1u  3203.
                -0.5694    32.4          90 B1u  3211.
  88 B3g  3184.  0.9792    95.9   100.0  89 B3g  3211.
  89 Ag   3185.  0.9667    93.5   100.0  88 Ag   3204.
  90 B1u  3188. -0.5670    32.1   100.0  87 B1u  3203.
                 0.7810    61.0          90 B1u  3211.
  91 B2u  3193.  0.9935    98.7   100.0  91 B2u  3217.
  92 Ag   3196. -0.9765    95.4   100.0  92 Ag   3218.
  93 B3g  3204.  0.9799    96.0   100.0  93 B3g  3230.
  94 B1u  3205.  0.9673    93.6   100.0  94 B1u  3230.
  95 B2u  3210.  0.9936    98.7   100.0  95 B2u  3237.
  96 Ag   3213.  0.9930    98.6   100.0  96 Ag   3239.
 nber times 1st assigned=           1           0
 nber times 1st assigned=           2           0
 nber times 1st assigned=           3           0
 nber times 1st assigned=           4           0
 nber times 1st assigned=           5           0
 nber times 1st assigned=           6           0
 nber times 1st assigned=           7           0
 nber times 1st assigned=           8           0
 nber times 1st assigned=           9           0
 nber times 1st assigned=          10           0
 nber times 1st assigned=          11           0
 nber times 1st assigned=          12           0
 nber times 1st assigned=          13           0
 nber times 1st assigned=          14           0
 nber times 1st assigned=          15           0
 nber times 1st assigned=          16           0
 nber times 1st assigned=          17           0
 nber times 1st assigned=          18           0
 nber times 1st assigned=          19           0
 nber times 1st assigned=          20           0
 nber times 1st assigned=          21           0
 nber times 1st assigned=          22           0
 nber times 1st assigned=          23           0
 nber times 1st assigned=          24           0
 nber times 1st assigned=          25           0
 nber times 1st assigned=          26           0
 nber times 1st assigned=          27           0
 nber times 1st assigned=          28           0
 nber times 1st assigned=          29           0
 nber times 1st assigned=          30           0
 nber times 1st assigned=          31           0
 nber times 1st assigned=          32           0
 nber times 1st assigned=          33           0
 nber times 1st assigned=          34           0
 nber times 1st assigned=          35           0
 nber times 1st assigned=          36           0
 nber times 1st assigned=          37           0
 nber times 1st assigned=          38           0
 nber times 1st assigned=          39           0
 nber times 1st assigned=          40           0
 nber times 1st assigned=          41           0
 nber times 1st assigned=          42           0
 nber times 1st assigned=          43           0
 nber times 1st assigned=          44           0
 nber times 1st assigned=          45           0
 nber times 1st assigned=          46           0
 nber times 1st assigned=          47           0
 nber times 1st assigned=          48           0
 nber times 1st assigned=          49           0
 nber times 1st assigned=          50           0
 nber times 1st assigned=          51           0
 nber times 1st assigned=          52           0
 nber times 1st assigned=          53           0
 nber times 1st assigned=          54           0
 nber times 1st assigned=          55           0
 nber times 1st assigned=          56           0
 nber times 1st assigned=          57           0
 nber times 1st assigned=          58           0
 nber times 1st assigned=          59           0
 nber times 1st assigned=          60           0
 nber times 1st assigned=          61           0
 nber times 1st assigned=          62           0
 nber times 1st assigned=          63           0
 nber times 1st assigned=          64           0
 nber times 1st assigned=          65           0
 nber times 1st assigned=          66           0
 nber times 1st assigned=          67           0
 nber times 1st assigned=          68           0
 nber times 1st assigned=          69           0
 nber times 1st assigned=          70           0
 nber times 1st assigned=          71           0
 nber times 1st assigned=          72           0
 nber times 1st assigned=          73           0
 nber times 1st assigned=          74           0
 nber times 1st assigned=          75           0
 nber times 1st assigned=          76           0
 nber times 1st assigned=          77           0
 nber times 1st assigned=          78           0
 nber times 1st assigned=          79           0
 nber times 1st assigned=          80           0
 nber times 1st assigned=          81           0
 nber times 1st assigned=          82           0
 nber times 1st assigned=          83           0
 nber times 1st assigned=          84           0
 nber times 1st assigned=          85           0
 nber times 1st assigned=          86           0
 nber times 1st assigned=          87           0
 nber times 1st assigned=          88           0
 nber times 1st assigned=          89           0
 nber times 1st assigned=          90           0
 nber times 1st assigned=          91           0
 nber times 1st assigned=          92           0
 nber times 1st assigned=          93           0
 nber times 1st assigned=          94           0
 nber times 1st assigned=          95           0
 nber times 1st assigned=          96           0
 modes represented=   90.0263395847846     
 p1=
    0.    0.   -0.   -0.    0.   -0.    0.   -0.   -0.    0.    0.   -0.   -0.  -21.    0.   -0.   -0.   -0.   -0.    0.
    0.   -0.   -0.   -0.    2.   -0.   -0.    0.    0.   -0.    0.   -0.   -0.    5.    0.    0.    0.    0.   -0.    0.
   -0.    0.   -0.   -0.   -0.    0.   -0.   -1.   -0.   -0.    2.    0.    0.   -1.   -0.   -0.   -0.    0.    0.    1.
   -0.   -4.    2.   -0.   -0.    0.    0.    0.   -0.   -0.    0.   -0.   -0.    0.   -1.    0.    0.    0.   -0.   -4.
   -0.   -1.   -0.   -0.    0.    0.   -0.    0.   -0.   -0.   -0.    0.   -0.   -0.    0.   -0.
 p2=
    0.    0.   -0.   -0.    0.    0.   -0.    0.    0.    0.   -0.    0.    0.  -21.   -0.    0.   -0.   -0.   -0.   -0.
   -0.    0.    0.   -0.    0.    0.   -2.   -0.    0.    0.   -0.    0.    0.    5.    0.   -0.   -0.   -0.    0.    0.
   -0.   -0.    0.   -0.    0.   -0.    0.   -0.   -2.   -0.   -0.   -0.    0.   -1.    0.   -0.   -0.    0.   -0.   -0.
    0.   -4.   -0.    0.   -0.    2.   -0.    0.   -0.    0.   -0.   -0.    0.    0.    0.   -1.    0.    0.   -0.    0.
    1.    4.    0.    0.   -0.   -0.    0.    0.   -0.   -0.    0.    0.   -0.   -0.    0.    0.

 Displacement: in terms of nc of 1 THEN of nc of 2

   1 B1g freq=   -99. Q=  0.000 lam=    -0.0 B1g freq=   -71. Q=  0.000 lam=    -0.0
   2 Au  freq=   -58. Q=  0.000 lam=    -0.0 Au  freq=   -41. Q=  0.000 lam=    -0.0
   3 B1u freq=    -0. Q= -0.000 lam=    -0.0 B3g freq=    -0. Q= -0.000 lam=    -0.0
   4 B2u freq=    -0. Q= -0.000 lam=    -0.0 B2u freq=    -0. Q= -0.000 lam=    -0.0
   5 B3g freq=    -0. Q=  0.000 lam=    -0.0 B3u freq=    -0. Q=  0.000 lam=    -0.0
   6 B2g freq=    -0. Q= -0.000 lam=    -0.0 B2g freq=    -0. Q= -0.000 lam=    -0.0
   7 B1g freq=    -0. Q=  0.000 lam=    -0.0 B1g freq=    -0. Q=  0.000 lam=    -0.0
   8 B3u freq=    -0. Q= -0.000 lam=    -0.0 B1u freq=     0. Q= -0.000 lam=     0.0
   9 B3u freq=    38. Q= -0.000 lam=     0.0 B3u freq=    34. Q= -0.000 lam=     0.0
  10 B2u freq=    98. Q=  0.000 lam=     0.0 B2u freq=   102. Q=  0.000 lam=     0.0
  11 B2g freq=   114. Q=  0.000 lam=     0.0 B2g freq=   103. Q=  0.000 lam=     0.0
  12 B3u freq=   187. Q= -0.000 lam=     0.0 B3u freq=   166. Q= -0.000 lam=     0.0
  13 B3g freq=   216. Q= -0.000 lam=     0.0 B3g freq=   220. Q= -0.000 lam=     0.0
  14 Ag  freq=   229. Q= -1.278 lam=   187.2 Ag  freq=   233. Q= -1.292 lam=   194.3
  15 B2g freq=   309. Q=  0.000 lam=     0.0 B2g freq=   279. Q=  0.000 lam=     0.0
  16 B2u freq=   382. Q= -0.000 lam=     0.0 Au  freq=   378. Q= -0.000 lam=     0.0
  17 Au  freq=   385. Q= -0.000 lam=     0.0 B2u freq=   386. Q= -0.000 lam=     0.0
  18 B1g freq=   404. Q= -0.000 lam=     0.0 B1g freq=   386. Q= -0.000 lam=     0.0
  19 Au  freq=   416. Q= -0.000 lam=     0.0 Au  freq=   388. Q= -0.000 lam=     0.0
  20 B1u freq=   433. Q=  0.000 lam=     0.0 B3u freq=   433. Q=  0.000 lam=     0.0
  21 B3u freq=   454. Q=  0.000 lam=     0.0 B1u freq=   439. Q=  0.000 lam=     0.0
  22 B3g freq=   461. Q= -0.000 lam=     0.0 B3g freq=   463. Q= -0.000 lam=     0.0
  23 B2g freq=   528. Q= -0.000 lam=     0.0 B2g freq=   488. Q= -0.000 lam=     0.0
  24 B3u freq=   558. Q= -0.000 lam=     0.0 B3u freq=   551. Q= -0.000 lam=     0.0
  25 Ag  freq=   626. Q=  0.215 lam=    14.4 B3g freq=   607. Q=  0.000 lam=     0.0
  26 B3g freq=   629. Q= -0.000 lam=     0.0 B2u freq=   618. Q= -0.000 lam=     0.0
  27 B2u freq=   636. Q= -0.000 lam=     0.0 Ag  freq=   619. Q= -0.211 lam=    13.8
  28 B3g freq=   664. Q=  0.000 lam=     0.0 B3g freq=   642. Q=  0.000 lam=     0.0
  29 B2g freq=   693. Q=  0.000 lam=     0.0 B3u freq=   662. Q=  0.000 lam=     0.0
  30 B3u freq=   697. Q= -0.000 lam=     0.0 B2g freq=   666. Q= -0.000 lam=     0.0
  31 B1u freq=   711. Q=  0.000 lam=     0.0 B1u freq=   708. Q=  0.000 lam=     0.0
  32 B2g freq=   729. Q= -0.000 lam=     0.0 B2g freq=   728. Q= -0.000 lam=     0.0
  33 B3u freq=   764. Q= -0.000 lam=     0.0 B3u freq=   780. Q= -0.000 lam=     0.0
  34 Ag  freq=   791. Q=  0.527 lam=   109.7 Ag  freq=   784. Q=  0.559 lam=   122.4
  35 B2g freq=   793. Q=  0.000 lam=     0.0 B1g freq=   796. Q=  0.000 lam=     0.0
  36 B1g freq=   805. Q=  0.000 lam=     0.0 B2g freq=   808. Q=  0.000 lam=     0.0
  37 Au  freq=   834. Q=  0.000 lam=     0.0 Au  freq=   823. Q=  0.000 lam=     0.0
  38 B1g freq=   848. Q=  0.000 lam=     0.0 B1g freq=   825. Q=  0.000 lam=     0.0
  39 B3u freq=   853. Q= -0.000 lam=     0.0 B3u freq=   865. Q= -0.000 lam=     0.0
  40 B3u freq=   919. Q=  0.000 lam=     0.0 B2g freq=   947. Q=  0.000 lam=     0.0
  41 B2g freq=   919. Q= -0.000 lam=     0.0 B3u freq=   949. Q= -0.000 lam=     0.0
  42 Au  freq=   946. Q=  0.000 lam=     0.0 Au  freq=   979. Q=  0.000 lam=     0.0
  43 B2g freq=   955. Q= -0.000 lam=     0.0 B2g freq=   986. Q= -0.000 lam=     0.0
  44 B1g freq=   970. Q= -0.000 lam=     0.0 Ag  freq=   989. Q= -0.030 lam=     0.4
  45 Au  freq=   975. Q= -0.000 lam=     0.0 B1g freq=   996. Q= -0.000 lam=     0.0
  46 B3u freq=   997. Q=  0.000 lam=     0.0 B1u freq=   998. Q=  0.000 lam=     0.0
  47 B2g freq=   998. Q= -0.000 lam=     0.0 Au  freq=  1001. Q= -0.000 lam=     0.0
  48 Ag  freq=  1011. Q= -0.146 lam=    10.8 B1u freq=  1007. Q= -0.000 lam=     0.0
  49 B1u freq=  1015. Q= -0.000 lam=     0.0 Ag  freq=  1015. Q= -0.270 lam=    37.0
  50 B1u freq=  1019. Q= -0.000 lam=     0.0 B3u freq=  1026. Q= -0.000 lam=     0.0
  51 Ag  freq=  1024. Q=  0.221 lam=    24.9 B2g freq=  1026. Q=  0.000 lam=     0.0
  52 B1u freq=  1053. Q=  0.000 lam=     0.0 B1u freq=  1029. Q=  0.000 lam=     0.0
  53 B1u freq=  1065. Q=  0.000 lam=     0.0 B1u freq=  1047. Q=  0.000 lam=     0.0
  54 Ag  freq=  1065. Q= -0.138 lam=    10.2 Ag  freq=  1049. Q= -0.148 lam=    11.4
  55 B2u freq=  1111. Q= -0.000 lam=     0.0 B2u freq=  1123. Q= -0.000 lam=     0.0
  56 B3g freq=  1113. Q= -0.000 lam=     0.0 B3g freq=  1123. Q= -0.000 lam=     0.0
  57 B2u freq=  1164. Q= -0.000 lam=     0.0 B2u freq=  1170. Q= -0.000 lam=     0.0
  58 B3g freq=  1185. Q=  0.000 lam=     0.0 B3g freq=  1194. Q=  0.000 lam=     0.0
  59 B2u freq=  1190. Q=  0.000 lam=     0.0 B2u freq=  1196. Q=  0.000 lam=     0.0
  60 Ag  freq=  1207. Q=  0.080 lam=     3.8 Ag  freq=  1215. Q=  0.064 lam=     2.5
  61 B1u freq=  1220. Q= -0.000 lam=     0.0 B1u freq=  1227. Q= -0.000 lam=     0.0
  62 Ag  freq=  1253. Q= -0.578 lam=   209.1 Ag  freq=  1266. Q= -0.530 lam=   177.7
  63 Ag  freq=  1287. Q=  0.290 lam=    54.0 B3g freq=  1303. Q=  0.000 lam=     0.0
  64 B2u freq=  1292. Q= -0.000 lam=     0.0 B2u freq=  1310. Q= -0.000 lam=     0.0
  65 B1u freq=  1302. Q= -0.000 lam=     0.0 B1u freq=  1333. Q= -0.000 lam=     0.0
  66 B3g freq=  1308. Q=  0.000 lam=     0.0 Ag  freq=  1340. Q=  0.352 lam=    82.8
  67 B2u freq=  1321. Q=  0.000 lam=     0.0 B3g freq=  1349. Q=  0.000 lam=     0.0
  68 B3g freq=  1351. Q=  0.000 lam=     0.0 B2u freq=  1357. Q=  0.000 lam=     0.0
  69 B3g freq=  1367. Q= -0.000 lam=     0.0 B3g freq=  1373. Q= -0.000 lam=     0.0
  70 B2u freq=  1374. Q= -0.000 lam=     0.0 B2u freq=  1377. Q= -0.000 lam=     0.0
  71 B2u freq=  1438. Q=  0.000 lam=     0.0 B3g freq=  1469. Q=  0.000 lam=     0.0
  72 B3g freq=  1472. Q= -0.000 lam=     0.0 B2u freq=  1469. Q= -0.000 lam=     0.0
  73 B2u freq=  1489. Q= -0.000 lam=     0.0 B1u freq=  1496. Q= -0.000 lam=     0.0
  74 B1u freq=  1518. Q=  0.000 lam=     0.0 B2u freq=  1503. Q=  0.000 lam=     0.0
  75 Ag  freq=  1535. Q= -0.110 lam=     9.2 B3g freq=  1523. Q= -0.000 lam=     0.0
  76 B1u freq=  1568. Q=  0.000 lam=     0.0 Ag  freq=  1524. Q=  0.129 lam=    12.8
  77 B3g freq=  1594. Q=  0.000 lam=     0.0 B1u freq=  1550. Q=  0.000 lam=     0.0
  78 B2u freq=  1621. Q=  0.000 lam=     0.0 B3g freq=  1576. Q=  0.000 lam=     0.0
  79 B3g freq=  1625. Q= -0.000 lam=     0.0 B2u freq=  1578. Q= -0.000 lam=     0.0
  80 Ag  freq=  1638. Q= -0.573 lam=   269.3 B1u freq=  1615. Q= -0.000 lam=     0.0
  81 B1u freq=  1645. Q= -0.000 lam=     0.0 Ag  freq=  1634. Q= -0.141 lam=    16.3
  82 Ag  freq=  1656. Q= -0.233 lam=    45.1 Ag  freq=  1651. Q= -0.578 lam=   276.0
  83 B1u freq=  3161. Q= -0.000 lam=     0.0 B1u freq=  3187. Q= -0.000 lam=     0.0
  84 Ag  freq=  3162. Q= -0.015 lam=     0.4 Ag  freq=  3187. Q= -0.010 lam=     0.2
  85 B3g freq=  3169. Q=  0.000 lam=     0.0 B3g freq=  3196. Q=  0.000 lam=     0.0
  86 B2u freq=  3170. Q=  0.000 lam=     0.0 B2u freq=  3196. Q=  0.000 lam=     0.0
  87 B1u freq=  3181. Q= -0.000 lam=     0.0 B1u freq=  3203. Q= -0.000 lam=     0.0
  88 B3g freq=  3184. Q=  0.000 lam=     0.0 Ag  freq=  3204. Q=  0.020 lam=     0.7
  89 Ag  freq=  3185. Q= -0.015 lam=     0.4 B3g freq=  3211. Q= -0.000 lam=     0.0
  90 B1u freq=  3188. Q= -0.000 lam=     0.0 B1u freq=  3211. Q= -0.000 lam=     0.0
  91 B2u freq=  3193. Q= -0.000 lam=     0.0 B2u freq=  3217. Q= -0.000 lam=     0.0
  92 Ag  freq=  3196. Q=  0.012 lam=     0.2 Ag  freq=  3218. Q=  0.017 lam=     0.5
  93 B3g freq=  3204. Q= -0.000 lam=     0.0 B3g freq=  3230. Q= -0.000 lam=     0.0
  94 B1u freq=  3205. Q= -0.000 lam=     0.0 B1u freq=  3230. Q= -0.000 lam=     0.0
  95 B2u freq=  3210. Q=  0.000 lam=     0.0 B2u freq=  3237. Q=  0.000 lam=     0.0
  96 Ag  freq=  3213. Q= -0.048 lam=     3.7 Ag  freq=  3239. Q= -0.043 lam=     3.1

 total reorg energy (cm**-1, kcal/mol)=      953.      952.      2.72      2.72
 Nber of molecules processed=           2
