 Enter ifcurve (0=recti, 1=orth curvi, 2=apprx curvi, -1 = skip
 And atom ordering flag, 0= never changes, 1= use the first order thenceforth,
  2= deduce it (does read on fail), 3= always read it
 Reading file: 
 ./TT-BT_0_C0S0.log                                                             
                                          
  Entering Gaussian System, Link 0=g16                                          
  
 Gaussian format, type: g94, g98, g03= F F F
  #P Geom=AllCheck Guess=TCheck SCRF=Check GenChk RB3LYP/6-311G(d,p) Fre    
 energy type= B3LYP   
 Original G94 input coords:
  6 -2.115414 -0.941722 -0.019191
  6 -2.400228  0.432708  0.001009
  6 -1.378628  1.375024  0.016343
  6 -0.062747  0.915647  0.011071
 16  1.428642  1.832574  0.026567
  6  2.324110  0.285966  0.004631
  6  3.772808  0.244927  0.005765
  6  4.537723 -0.898201 -0.011413
  6  5.919489 -0.601517 -0.004891
 16  7.384347 -1.548421 -0.018052
  6  8.349497 -0.091311  0.006443
  6  7.606126  1.053195  0.023633
  6  6.215496  0.758105  0.017112
 16  4.759206  1.710153  0.030378
  7  1.582316 -0.778501 -0.012169
  6  0.240576 -0.466507 -0.009205
  6 -0.806685 -1.398285 -0.024413
  1 -2.931935 -1.654299 -0.030846
  1 -3.431311  0.766522  0.004747
  1 -1.602772  2.434638  0.031927
  1  4.093391 -1.882555 -0.027643
  1  9.425230 -0.177755  0.006506
  1  8.033942  2.045604  0.039981
  1 -0.570967 -2.455219 -0.039920
 nber atoms=          24
  SCF Done:  E(RB3LYP) =  -1749.11747259     A.U. after    1 cycles             
  
          23          40 "  -1749.11747259"
After scan for Atom:   Atom  AN      X      Y      Z        X      Y      Z        X      Y      Z   
After scan for Atom:   Atom  AN      X      Y      Z        X      Y      Z        X      Y      Z   
After scan for Atom:   Atom  AN      X      Y      Z        X      Y      Z        X      Y      Z   
After scan for Atom:   Atom  AN      X      Y      Z        X      Y      Z        X      Y      Z   
After scan for Atom:   Atom  AN      X      Y      Z        X      Y      Z        X      Y      Z   
After scan for Atom:   Atom  AN      X      Y      Z        X      Y      Z        X      Y      Z   
After scan for Atom:   Atom  AN      X      Y      Z        X      Y      Z        X      Y      Z   
After scan for Atom:   Atom  AN      X      Y      Z        X      Y      Z        X      Y      Z   
After scan for Atom:   Atom  AN      X      Y      Z        X      Y      Z        X      Y      Z   
After scan for Atom:   Atom  AN      X      Y      Z        X      Y      Z        X      Y      Z   
After scan for Atom:   Atom  AN      X      Y      Z        X      Y      Z        X      Y      Z   
After scan for Atom:   Atom  AN      X      Y      Z        X      Y      Z        X      Y      Z   
After scan for Atom:   Atom  AN      X      Y      Z        X      Y      Z        X      Y      Z   
After scan for Atom:   Atom  AN      X      Y      Z        X      Y      Z        X      Y      Z   
After scan for Atom:   Atom  AN      X      Y      Z        X      Y      Z        X      Y      Z   
After scan for Atom:   Atom  AN      X      Y      Z        X      Y      Z        X      Y      Z   
After scan for Atom:   Atom  AN      X      Y      Z        X      Y      Z        X      Y      Z   
After scan for Atom:   Atom  AN      X      Y      Z        X      Y      Z        X      Y      Z   
After scan for Atom:   Atom  AN      X      Y      Z        X      Y      Z        X      Y      Z   
After scan for Atom:   Atom  AN      X      Y      Z        X      Y      Z        X      Y      Z   
After scan for Atom:   Atom  AN      X      Y      Z        X      Y      Z        X      Y      Z   
After scan for Atom:   Atom  AN      X      Y      Z        X      Y      Z        X      Y      Z   
 g94    frequencies=
     0.0    0.0    0.0    0.0    0.0    0.0   24.1   45.8   69.7  121.4
   190.4  202.8  217.2  236.1  242.4  318.4  373.7  419.3  434.8  459.0
   459.8  508.8  509.1  559.8  562.9  598.3  616.1  625.6  634.6  686.3
   708.7  715.6  736.7  762.8  772.2  800.6  855.6  866.6  867.4  880.6
   907.5  951.4  965.3  990.3 1037.8 1078.0 1108.6 1144.0 1165.6 1184.2
  1198.6 1211.0 1274.8 1312.9 1342.6 1358.0 1383.8 1453.7 1462.1 1487.4
  1498.4 1526.0 1546.8 1595.8 1636.2 3169.2 3180.9 3191.7 3198.7 3215.2
  3232.3 3244.4
 g94    symmetries=
                                                 A      A      A      A
       A      A      A      A      A      A      A      A      A      A
       A      A      A      A      A      A      A      A      A      A
       A      A      A      A      A      A      A      A      A      A
       A      A      A      A      A      A      A      A      A      A
       A      A      A      A      A      A      A      A      A      A
       A      A      A      A      A      A      A      A      A      A
       A      A
 atomic masses:
 12.0000 12.0000 12.0000 12.0000 31.9721 12.0000 12.0000 12.0000 12.0000 31.9721
 12.0000 12.0000 12.0000 31.9721 14.0031 12.0000 12.0000  1.0078  1.0078  1.0078
  1.0078  1.0078  1.0078  1.0078
 looking for force constants in 
 ./TT-BT_0_C0S0.fchk                                                            
  
 Cartesian Force Constants                  R   N=        2628                  
  
 n3=          72        2628
 g94-fc frequencies=
    -1.8   -0.0   -0.0    0.0    1.6    4.7   24.1   45.8   69.7  121.4
   190.4  202.8  217.3  236.1  242.4  318.5  373.7  419.3  434.8  459.1
   459.8  508.8  509.2  559.8  562.9  598.3  616.1  625.7  634.6  686.3
   708.7  715.6  736.7  762.8  772.2  800.6  855.6  866.6  867.4  880.6
   907.5  951.4  965.3  990.4 1037.8 1078.0 1108.6 1144.1 1165.6 1184.2
  1198.7 1211.0 1274.8 1312.9 1342.6 1358.1 1383.8 1453.7 1462.1 1487.4
  1498.4 1526.1 1546.8 1595.9 1636.3 3169.2 3180.9 3191.7 3198.7 3215.3
  3232.4 3244.5
 at 99999: n3=          72
 symm operator            1 :  F  nop=           0
 symm operator            2 :  F  nop=           0
 symm operator            3 :  F  nop=           0
 symm operator            4 :  F  nop=           0
 symm operator            5 :  F  nop=           0
 symm operator            6 :  F  nop=           0
 symm operator            7 :  F  nop=           0
 The point group of the molecule is  C1
 Symmetry rotation matrix:
   1.00000   0.00000   0.00000
   0.00000   1.00000   0.00000
   0.00000   0.00000   1.00000

 Projecting out zero-frequency components
 generating redundant internal coords
         300        3600          24
 search for int coords
   1 str   2   1   1.404
   2 str   3   2   1.390
   3 str   4   3   1.394
   4 str   5   4   1.751
   5 str   6   5   1.787
   6 str   7   6   1.449
   7 str   8   7   1.376
   8 str   9   8   1.413
   9 str  10   9   1.744
  10 str  11  10   1.748
  11 str  12  11   1.365
  12 str  13   9   1.392
  13 str  13  12   1.422
  14 str  14   7   1.766
  15 str  14  13   1.740
  16 str  15   6   1.298
  17 str  16   4   1.415
  18 str  16  15   1.378
  19 str  17   1   1.386
  20 str  17  16   1.402
  21 str  18   1   1.084
  22 str  19   2   1.084
  23 str  20   3   1.083
  24 str  21   8   1.080
  25 str  22  11   1.079
  26 str  23  12   1.081
  27 str  24  17   1.083
 nber stretches=          27
  28 ben   1   2   3
  29 prop tor   1   2   3   4
  30 prop tor   1   2   3  20
  31 ben   1   2  19
  32 ben   1  17  16
  33 ben   1  17  24
  34 ben   2   1  17
  35 prop tor   2   1  17  16
  36 prop tor   2   1  17  24
  37 ben   2   1  18
  38 ben   2   3   4
  39 prop tor   2   3   4   5
  40 prop tor   2   3   4  16
  41 ben   2   3  20
  42 ben   3   2  19
  43 ben   3   4   5
  44 prop tor   3   4   5   6
  45 ben   3   4  16
  46 prop tor   3   4  16  15
  47 prop tor   3   4  16  17
  48 ben   4   3  20
  49 ben   4   5   6
  50 prop tor   4   5   6   7
  51 prop tor   4   5   6  15
  52 ben   4  16  15
  53 ben   4  16  17
  54 prop tor   4  16  17   1
  55 prop tor   4  16  17  24
  56 ben   5   4  16
  57 prop tor   5   4  16  15
  58 prop tor   5   4  16  17
  59 ben   5   6   7
  60 prop tor   5   6   7   8
  61 prop tor   5   6   7  14
  62 ben   5   6  15
  63 prop tor   5   6  15  16
  64 ben   6   7   8
  65 prop tor   6   7   8   9
  66 prop tor   6   7   8  21
  67 ben   6   7  14
  68 prop tor   6   7  14  13
  69 ben   6  15  16
  70 prop tor   6  15  16   4
  71 prop tor   6  15  16  17
  72 ben   7   6  15
  73 prop tor   7   6  15  16
  74 ben   7   8   9
  75 prop tor   7   8   9  10
  76 prop tor   7   8   9  13
  77 ben   7   8  21
  78 ben   7  14  13
  79 ben   8   7  14
  80 prop tor   8   7  14  13
  81 ben   8   9  10
  82 prop tor   8   9  10  11
  83 ben   8   9  13
  84 prop tor   8   9  13  12
  85 prop tor   8   9  13  14
  86 ben   9   8  21
  87 ben   9  10  11
  88 prop tor   9  10  11  12
  89 prop tor   9  10  11  22
  90 ben   9  13  12
  91 ben   9  13  14
  92 prop tor   9  13  14   7
  93 ben  10   9  13
  94 prop tor  10   9  13  12
  95 prop tor  10   9  13  14
  96 ben  10  11  12
  97 prop tor  10  11  12  13
  98 prop tor  10  11  12  23
  99 ben  10  11  22
 100 ben  11  12  13
 101 prop tor  11  12  13   9
 102 prop tor  11  12  13  14
 103 ben  11  12  23
 104 ben  12  11  22
 105 ben  12  13  14
 106 prop tor  12  13  14   7
 107 prop tor  13   9  10  11
 108 ben  13  12  23
 109 prop tor  14   7   8   9
 110 prop tor  14   7   8  21
 111 prop tor  15   6   7   8
 112 prop tor  15   6   7  14
 113 ben  15  16  17
 114 prop tor  15  16  17   1
 115 prop tor  15  16  17  24
 116 prop tor  16   4   5   6
 117 ben  16  17  24
 118 prop tor  17   1   2   3
 119 prop tor  17   1   2  19
 120 ben  17   1  18
 121 prop tor  18   1   2   3
 122 prop tor  18   1   2  19
 123 prop tor  18   1  17  16
 124 prop tor  18   1  17  24
 125 prop tor  19   2   3   4
 126 prop tor  19   2   3  20
 127 prop tor  20   3   4   5
 128 prop tor  20   3   4  16
 129 prop tor  21   8   9  10
 130 prop tor  21   8   9  13
 131 prop tor  22  11  12  13
 132 prop tor  22  11  12  23
 133 prop tor  23  12  13   9
 134 prop tor  23  12  13  14
 nber bend=              43
 nber lin bend=           0
 nber prop tor=          64
 nber impr tor=           0
 nber tot redund int=         134
 Eigenvalues of G in red int coords
    Gval -0.00000000 -0.00000000 -0.00000000 -0.00000000 -0.00000000 -0.00000000 -0.00000000 -0.00000000
    Gval -0.00000000 -0.00000000 -0.00000000 -0.00000000 -0.00000000 -0.00000000 -0.00000000 -0.00000000
    Gval -0.00000000 -0.00000000 -0.00000000 -0.00000000 -0.00000000 -0.00000000 -0.00000000 -0.00000000
    Gval -0.00000000 -0.00000000 -0.00000000 -0.00000000 -0.00000000 -0.00000000 -0.00000000 -0.00000000
    Gval -0.00000000 -0.00000000 -0.00000000  0.00000000  0.00000000  0.00000000  0.00000000  0.00000000
    Gval  0.00000000  0.00000000  0.00000000  0.00000000  0.00000000  0.00000000  0.00000000  0.00000000
    Gval  0.00000000  0.00000000  0.00000000  0.00000000  0.00000000  0.00000000  0.00000000  0.00000000
    Gval  0.00000000  0.00000000  0.00000000  0.00000000  0.00000000  0.00000000  0.00000000  0.00000000
    Gval  0.00000000  0.00000000  0.00000000  0.00000000  0.00000144  0.00000364  0.00000689  0.00000959
    Gval  0.00001724  0.00001815  0.00002238  0.00003177  0.00003475  0.00003552  0.00004275  0.00004480
    Gval  0.00004775  0.00004989  0.00005827  0.00006016  0.00007655  0.00008508  0.00009191  0.00011085
    Gval  0.00011122  0.00012284  0.00012499  0.00015304  0.00015347  0.00015708  0.00017704  0.00021391
    Gval  0.00023325  0.00025257  0.00029431  0.00031163  0.00031651  0.00032095  0.00035602  0.00038618
    Gval  0.00039918  0.00042861  0.00053699  0.00059315  0.00059660  0.00059751  0.00061831  0.00062195
    Gval  0.00062742  0.00064337  0.00065506  0.00066198  0.00085115  0.00105451  0.00108139  0.00112265
    Gval  0.00114600  0.00116328  0.00117171  0.00118670  0.00127387  0.00130117  0.00163621  0.00180166
    Gval  0.00208112  0.00270187  0.00355127  0.00357019  0.00397249  0.00402237
  1.439325366752540E-006  1.439325366752540E-006
  3.635586199957121E-006  1.439325366752540E-006
  6.888119665988754E-006  1.439325366752540E-006
  9.594413007369515E-006  1.439325366752540E-006
  1.723922189376871E-005  1.439325366752540E-006
  1.815247741626299E-005  1.439325366752540E-006
  2.238033041088703E-005  1.439325366752540E-006
  3.176525989168020E-005  1.439325366752540E-006
  3.475131632839546E-005  1.439325366752540E-006
  3.551864008102023E-005  1.439325366752540E-006
  4.275236266722289E-005  1.439325366752540E-006
  4.480393945094486E-005  1.439325366752540E-006
  4.774549161911292E-005  1.439325366752540E-006
  4.989058589891107E-005  1.439325366752540E-006
  5.826978771810324E-005  1.439325366752540E-006
  6.016168744640166E-005  1.439325366752540E-006
  7.655039944926067E-005  1.439325366752540E-006
  8.507591642875693E-005  1.439325366752540E-006
  9.191147692054205E-005  1.439325366752540E-006
  1.108530141838604E-004  1.439325366752540E-006
  1.112173334590249E-004  1.439325366752540E-006
  1.228437437264794E-004  1.439325366752540E-006
  1.249865172533082E-004  1.439325366752540E-006
  1.530416673205676E-004  1.439325366752540E-006
  1.534734932196496E-004  1.439325366752540E-006
  1.570816388239646E-004  1.439325366752540E-006
  1.770388476350886E-004  1.439325366752540E-006
  2.139069976224109E-004  1.439325366752540E-006
  2.332454391097748E-004  1.439325366752540E-006
  2.525732790110295E-004  1.439325366752540E-006
  2.943142129124768E-004  1.439325366752540E-006
  3.116273310370862E-004  1.439325366752540E-006
  3.165081976388927E-004  1.439325366752540E-006
  3.209539638943435E-004  1.439325366752540E-006
  3.560180767986168E-004  1.439325366752540E-006
  3.861762320904369E-004  1.439325366752540E-006
  3.991774008577306E-004  1.439325366752540E-006
  4.286130042146035E-004  1.439325366752540E-006
  5.369944280127259E-004  1.439325366752540E-006
  5.931542306296515E-004  1.439325366752540E-006
  5.966012745667650E-004  1.439325366752540E-006
  5.975097724785294E-004  1.439325366752540E-006
  6.183069789614660E-004  1.439325366752540E-006
  6.219463931276016E-004  1.439325366752540E-006
  6.274204209930464E-004  1.439325366752540E-006
  6.433673404389024E-004  1.439325366752540E-006
  6.550590563235956E-004  1.439325366752540E-006
  6.619816191126210E-004  1.439325366752540E-006
  8.511511308094210E-004  1.439325366752540E-006
  1.054511330703088E-003  1.439325366752540E-006
  1.081389718289403E-003  1.439325366752540E-006
  1.122654441373524E-003  1.439325366752540E-006
  1.145998900716206E-003  1.439325366752540E-006
  1.163284443004232E-003  1.439325366752540E-006
  1.171711068637593E-003  1.439325366752540E-006
  1.186704294319663E-003  1.439325366752540E-006
  1.273866336401598E-003  1.439325366752540E-006
  1.301165367999104E-003  1.439325366752540E-006
  1.636206561835674E-003  1.439325366752540E-006
  1.801657579889865E-003  1.439325366752540E-006
  2.081124190380488E-003  1.439325366752540E-006
  2.701868157476408E-003  1.439325366752540E-006
  3.551266653833653E-003  1.439325366752540E-006
  3.570194802833290E-003  1.439325366752540E-006
  3.972485911990719E-003  1.439325366752540E-006
  4.022368550723425E-003  1.439325366752540E-006
 cut=1d-8, nber non-redundant internal coords=          66
 Check on Eigenvals of non-red overlap matrix:
  0.00000144  0.00000364  0.00000689  0.00000959  0.00001724  0.00001815  0.00002238  0.00003177
  0.00003475  0.00003552  0.00004275  0.00004480  0.00004775  0.00004989  0.00005827  0.00006016
  0.00007655  0.00008508  0.00009191  0.00011085  0.00011122  0.00012284  0.00012499  0.00015304
  0.00015347  0.00015708  0.00017704  0.00021391  0.00023325  0.00025257  0.00029431  0.00031163
  0.00031651  0.00032095  0.00035602  0.00038618  0.00039918  0.00042861  0.00053699  0.00059315
  0.00059660  0.00059751  0.00061831  0.00062195  0.00062742  0.00064337  0.00065506  0.00066198
  0.00085115  0.00105451  0.00108139  0.00112265  0.00114600  0.00116328  0.00117171  0.00118670
  0.00127387  0.00130117  0.00163621  0.00180166  0.00208112  0.00270187  0.00355127  0.00357019
  0.00397249  0.00402237
 Checking for correct frequencies
 recalc frequencies=
    -0.0   -0.0   -0.0    0.0    0.0    0.0   24.1   45.8   69.7  121.4
   190.4  202.8  217.3  236.1  242.4  318.5  373.7  419.3  434.8  459.1
   459.8  508.8  509.2  559.8  562.9  598.3  616.1  625.7  634.6  686.3
   708.7  715.6  736.7  762.8  772.2  800.6  855.6  866.6  867.4  880.6
   907.5  951.4  965.3  990.4 1037.8 1078.0 1108.6 1144.1 1165.6 1184.2
  1198.7 1211.0 1274.8 1312.9 1342.6 1358.1 1383.8 1453.7 1462.1 1487.4
  1498.4 1526.1 1546.8 1595.9 1636.3 3169.2 3180.9 3191.7 3198.7 3215.3
  3232.4 3244.5
 recalc symmetries=
                                                                       
                                                                       
                                                                       
                                                                       
                                                                       
                                                                       
                                                                       
               
 recalc freqs check OK
 Zero-point lengths:
 10.0000 10.0000 10.0000 10.0000 10.0000 10.0000 50.5453 36.6227 29.6921 22.5030
 17.9682 17.4083 16.8194 16.1351 15.9225 13.8923 12.8248 12.1068 11.8895 11.5708
 11.5612 10.9904 10.9868 10.4783 10.4493 10.1350  9.9880  9.9112  9.8413  9.4632
  9.3127  9.2674  9.1335  8.9761  8.9213  8.7616  8.4753  8.4215  8.4174  8.3543
  8.2295  8.0373  7.9793  7.8777  7.6955  7.5506  7.4456  7.3295  7.2613  7.2042
  7.1606  7.1240  6.9435  6.8419  6.7658  6.7272  6.6644  6.5022  6.4835  6.4281
  6.4043  6.3461  6.3035  6.2058  6.1287  4.4037  4.3956  4.3881  4.3833  4.3720
  4.3605  4.3523
 highest evec of mol 1
 -0.0000 -0.0001 -0.0000
  0.0000  0.0000  0.0000
 -0.0001  0.0001  0.0000
  0.0001  0.0000  0.0000
  0.0000 -0.0000 -0.0000
 -0.0001 -0.0001 -0.0000
 -0.0002  0.0003  0.0000
 -0.0024 -0.0057 -0.0001
  0.0037  0.0001  0.0000
  0.0009  0.0021  0.0000
 -0.2792  0.0372  0.0002
 -0.0274 -0.0991 -0.0016
  0.0075  0.0020  0.0000
 -0.0004  0.0001  0.0000
 -0.0001  0.0000  0.0000
  0.0000 -0.0000 -0.0000
 -0.0000 -0.0001 -0.0000
  0.0002  0.0002  0.0000
  0.0001 -0.0000 -0.0000
  0.0001 -0.0002 -0.0000
  0.0077  0.0172  0.0003
  0.9040 -0.0764 -0.0000
  0.1143  0.2713  0.0045
 -0.0001  0.0002  0.0000
 generating redundant internal coords
         300        3600          24
 Adding extra bonds for z output only
           6           6           6           6          16           6
           6           6           6          16           6           6
           6          16           7           6           6           1
           1           1           1           1           1           1
 search for int coords
   1 str   2   1   1.404
   2 str   3   2   1.390
   3 str   4   3   1.394
   4 str   5   4   1.751
   5 str   6   5   1.787
   6 str   7   6   1.449
   7 str   8   7   1.376
   8 str   9   8   1.413
   9 str  10   9   1.744
  10 str  11  10   1.748
  11 str  12  11   1.365
  12 str  13   9   1.392
  13 str  13  12   1.422
  14 str  14   7   1.766
  15 str  14  13   1.740
  16 str  15   6   1.298
  17 str  16   4   1.415
  18 str  16  15   1.378
  19 str  17   1   1.386
  20 str  17  16   1.402
  21 str  18   1   1.084
  22 str  19   2   1.084
  23 str  20   3   1.083
  24 str  21   8   1.080
  25 str  22  11   1.079
  26 str  23  12   1.081
  27 str  24  17   1.083
 nber stretches=          27
  28 ben   1   2   3
  29 prop tor   1   2   3   4
  30 prop tor   1   2   3  20
  31 ben   1   2  19
  32 ben   1  17  16
  33 ben   1  17  24
  34 ben   2   1  17
  35 prop tor   2   1  17  16
  36 prop tor   2   1  17  24
  37 ben   2   1  18
  38 ben   2   3   4
  39 prop tor   2   3   4   5
  40 prop tor   2   3   4  16
  41 ben   2   3  20
  42 ben   3   2  19
  43 ben   3   4   5
  44 prop tor   3   4   5   6
  45 ben   3   4  16
  46 prop tor   3   4  16  15
  47 prop tor   3   4  16  17
  48 ben   4   3  20
  49 ben   4   5   6
  50 prop tor   4   5   6   7
  51 prop tor   4   5   6  15
  52 ben   4  16  15
  53 ben   4  16  17
  54 prop tor   4  16  17   1
  55 prop tor   4  16  17  24
  56 ben   5   4  16
  57 prop tor   5   4  16  15
  58 prop tor   5   4  16  17
  59 ben   5   6   7
  60 prop tor   5   6   7   8
  61 prop tor   5   6   7  14
  62 ben   5   6  15
  63 prop tor   5   6  15  16
  64 ben   6   7   8
  65 prop tor   6   7   8   9
  66 prop tor   6   7   8  21
  67 ben   6   7  14
  68 prop tor   6   7  14  13
  69 ben   6  15  16
  70 prop tor   6  15  16   4
  71 prop tor   6  15  16  17
  72 ben   7   6  15
  73 prop tor   7   6  15  16
  74 ben   7   8   9
  75 prop tor   7   8   9  10
  76 prop tor   7   8   9  13
  77 ben   7   8  21
  78 ben   7  14  13
  79 ben   8   7  14
  80 prop tor   8   7  14  13
  81 ben   8   9  10
  82 prop tor   8   9  10  11
  83 ben   8   9  13
  84 prop tor   8   9  13  12
  85 prop tor   8   9  13  14
  86 ben   9   8  21
  87 ben   9  10  11
  88 prop tor   9  10  11  12
  89 prop tor   9  10  11  22
  90 ben   9  13  12
  91 ben   9  13  14
  92 prop tor   9  13  14   7
  93 ben  10   9  13
  94 prop tor  10   9  13  12
  95 prop tor  10   9  13  14
  96 ben  10  11  12
  97 prop tor  10  11  12  13
  98 prop tor  10  11  12  23
  99 ben  10  11  22
 100 ben  11  12  13
 101 prop tor  11  12  13   9
 102 prop tor  11  12  13  14
 103 ben  11  12  23
 104 ben  12  11  22
 105 ben  12  13  14
 106 prop tor  12  13  14   7
 107 prop tor  13   9  10  11
 108 ben  13  12  23
 109 prop tor  14   7   8   9
 110 prop tor  14   7   8  21
 111 prop tor  15   6   7   8
 112 prop tor  15   6   7  14
 113 ben  15  16  17
 114 prop tor  15  16  17   1
 115 prop tor  15  16  17  24
 116 prop tor  16   4   5   6
 117 ben  16  17  24
 118 prop tor  17   1   2   3
 119 prop tor  17   1   2  19
 120 ben  17   1  18
 121 prop tor  18   1   2   3
 122 prop tor  18   1   2  19
 123 prop tor  18   1  17  16
 124 prop tor  18   1  17  24
 125 prop tor  19   2   3   4
 126 prop tor  19   2   3  20
 127 prop tor  20   3   4   5
 128 prop tor  20   3   4  16
 129 prop tor  21   8   9  10
 130 prop tor  21   8   9  13
 131 prop tor  22  11  12  13
 132 prop tor  22  11  12  23
 133 prop tor  23  12  13   9
 134 prop tor  23  12  13  14
 nber bend=              43
 nber lin bend=           0
 nber prop tor=          64
 nber impr tor=           0
 nber tot redund int=         134
 Reading file: 
 ./TT-BT_0_C-1S0.log                                                            
                                          
  Entering Gaussian System, Link 0=g16                                          
  
 Gaussian format, type: g94, g98, g03= F F F
  #P Geom=AllCheck Guess=TCheck SCRF=Check GenChk UB3LYP/6-311G(d,p) Fre    
 energy type= B3LYP   
 Original G94 input coords:
  6 -2.150212 -0.921036 -0.019336
  6 -2.429153  0.450901  0.001626
  6 -1.374862  1.374817  0.017195
  6 -0.070002  0.908337  0.011491
 16  1.434610  1.826861  0.027529
  6  2.349715  0.248928  0.004074
  6  3.750375  0.215168  0.005292
  6  4.573343 -0.931658 -0.011138
  6  5.930709 -0.606988 -0.004497
 16  7.425017 -1.540963 -0.016876
  6  8.395564 -0.062243  0.006575
  6  7.608768  1.065241  0.023115
  6  6.232520  0.762768  0.016823
 16  4.746722  1.710910  0.029409
  7  1.551471 -0.822156 -0.013534
  6  0.239687 -0.487688 -0.009837
  6 -0.843501 -1.394618 -0.025172
  1 -2.971842 -1.631845 -0.031321
  1 -3.455543  0.801956  0.005875
  1 -1.580951  2.440172  0.033481
  1  4.148310 -1.923828 -0.026717
  1  9.471491 -0.133078  0.006712
  1  8.017816  2.067944  0.039009
  1 -0.627844 -2.457131 -0.041410
 nber atoms=          24
  SCF Done:  E(UB3LYP) =  -1749.14918353     A.U. after    1 cycles             
  
          23          40 "  -1749.14918353"
After scan for Atom:   Atom  AN      X      Y      Z        X      Y      Z        X      Y      Z   
After scan for Atom:   Atom  AN      X      Y      Z        X      Y      Z        X      Y      Z   
After scan for Atom:   Atom  AN      X      Y      Z        X      Y      Z        X      Y      Z   
After scan for Atom:   Atom  AN      X      Y      Z        X      Y      Z        X      Y      Z   
After scan for Atom:   Atom  AN      X      Y      Z        X      Y      Z        X      Y      Z   
After scan for Atom:   Atom  AN      X      Y      Z        X      Y      Z        X      Y      Z   
After scan for Atom:   Atom  AN      X      Y      Z        X      Y      Z        X      Y      Z   
After scan for Atom:   Atom  AN      X      Y      Z        X      Y      Z        X      Y      Z   
After scan for Atom:   Atom  AN      X      Y      Z        X      Y      Z        X      Y      Z   
After scan for Atom:   Atom  AN      X      Y      Z        X      Y      Z        X      Y      Z   
After scan for Atom:   Atom  AN      X      Y      Z        X      Y      Z        X      Y      Z   
After scan for Atom:   Atom  AN      X      Y      Z        X      Y      Z        X      Y      Z   
After scan for Atom:   Atom  AN      X      Y      Z        X      Y      Z        X      Y      Z   
After scan for Atom:   Atom  AN      X      Y      Z        X      Y      Z        X      Y      Z   
After scan for Atom:   Atom  AN      X      Y      Z        X      Y      Z        X      Y      Z   
After scan for Atom:   Atom  AN      X      Y      Z        X      Y      Z        X      Y      Z   
After scan for Atom:   Atom  AN      X      Y      Z        X      Y      Z        X      Y      Z   
After scan for Atom:   Atom  AN      X      Y      Z        X      Y      Z        X      Y      Z   
After scan for Atom:   Atom  AN      X      Y      Z        X      Y      Z        X      Y      Z   
After scan for Atom:   Atom  AN      X      Y      Z        X      Y      Z        X      Y      Z   
After scan for Atom:   Atom  AN      X      Y      Z        X      Y      Z        X      Y      Z   
After scan for Atom:   Atom  AN      X      Y      Z        X      Y      Z        X      Y      Z   
 g94    frequencies=
     0.0    0.0    0.0    0.0    0.0    0.0   40.3   53.2   67.7  107.0
   181.0  188.2  214.7  215.0  243.8  274.5  369.0  393.8  413.0  431.1
   441.3  461.0  498.2  502.4  539.7  552.8  572.1  575.9  605.0  622.9
   661.5  703.7  714.1  734.0  738.9  740.5  772.6  828.2  828.6  843.3
   884.5  891.7  935.0  936.7 1032.4 1061.2 1081.9 1124.9 1135.9 1147.2
  1165.4 1201.8 1268.0 1288.9 1329.7 1361.2 1381.1 1415.4 1440.6 1463.5
  1475.4 1479.3 1548.0 1576.4 1602.9 3133.0 3148.7 3166.2 3174.6 3183.3
  3228.1 3240.6
 g94    symmetries=
                                                 A      A      A      A
       A      A      A      A      A      A      A      A      A      A
       A      A      A      A      A      A      A      A      A      A
       A      A      A      A      A      A      A      A      A      A
       A      A      A      A      A      A      A      A      A      A
       A      A      A      A      A      A      A      A      A      A
       A      A      A      A      A      A      A      A      A      A
       A      A
 atomic masses:
 12.0000 12.0000 12.0000 12.0000 31.9721 12.0000 12.0000 12.0000 12.0000 31.9721
 12.0000 12.0000 12.0000 31.9721 14.0031 12.0000 12.0000  1.0078  1.0078  1.0078
  1.0078  1.0078  1.0078  1.0078
 looking for force constants in 
 ./TT-BT_0_C-1S0.fchk                                                           
  
 Cartesian Force Constants                  R   N=        2628                  
  
 n3=          72        2628
 g94-fc frequencies=
    -2.3   -0.0   -0.0    0.0    0.3    3.0   40.3   53.2   67.7  107.0
   181.0  188.2  214.7  215.0  243.8  274.5  369.0  393.9  413.0  431.1
   441.3  461.0  498.2  502.4  539.7  552.8  572.1  575.9  605.0  622.9
   661.5  703.7  714.2  734.0  739.0  740.5  772.6  828.3  828.6  843.3
   884.5  891.7  935.0  936.7 1032.5 1061.3 1081.9 1124.9 1135.9 1147.2
  1165.4 1201.9 1268.0 1288.9 1329.7 1361.2 1381.1 1415.4 1440.7 1463.5
  1475.4 1479.3 1548.0 1576.5 1602.9 3133.0 3148.8 3166.3 3174.6 3183.3
  3228.1 3240.7
 at 99999: n3=          72
 symm operator            1 :  F  nop=           0
 symm operator            2 :  F  nop=           0
 symm operator            3 :  F  nop=           0
 symm operator            4 :  F  nop=           0
 symm operator            5 :  F  nop=           0
 symm operator            6 :  F  nop=           0
 symm operator            7 :  F  nop=           0
 The point group of the molecule is  C1
 Symmetry rotation matrix:
   1.00000   0.00000   0.00000
   0.00000   1.00000   0.00000
   0.00000   0.00000   1.00000

 Projecting out zero-frequency components
 generating redundant internal coords
         300        3600          24
 search for int coords
   1 str   2   1   1.400
   2 str   3   2   1.402
   3 str   4   3   1.386
   4 str   5   4   1.763
   5 str   6   5   1.824
   6 str   7   6   1.401
   7 str   8   7   1.412
   8 str   9   8   1.396
   9 str  10   9   1.762
  10 str  11  10   1.769
  11 str  12  11   1.375
  12 str  13   9   1.403
  13 str  13  12   1.409
  14 str  14   7   1.797
  15 str  14  13   1.763
  16 str  15   6   1.336
  17 str  16   4   1.430
  18 str  16  15   1.354
  19 str  17   1   1.390
  20 str  17  16   1.413
  21 str  18   1   1.086
  22 str  19   2   1.085
  23 str  20   3   1.085
  24 str  21   8   1.079
  25 str  22  11   1.078
  26 str  23  12   1.083
  27 str  24  17   1.084
 nber stretches=          27
  28 ben   1   2   3
  29 prop tor   1   2   3   4
  30 prop tor   1   2   3  20
  31 ben   1   2  19
  32 ben   1  17  16
  33 ben   1  17  24
  34 ben   2   1  17
  35 prop tor   2   1  17  16
  36 prop tor   2   1  17  24
  37 ben   2   1  18
  38 ben   2   3   4
  39 prop tor   2   3   4   5
  40 prop tor   2   3   4  16
  41 ben   2   3  20
  42 ben   3   2  19
  43 ben   3   4   5
  44 prop tor   3   4   5   6
  45 ben   3   4  16
  46 prop tor   3   4  16  15
  47 prop tor   3   4  16  17
  48 ben   4   3  20
  49 ben   4   5   6
  50 prop tor   4   5   6   7
  51 prop tor   4   5   6  15
  52 ben   4  16  15
  53 ben   4  16  17
  54 prop tor   4  16  17   1
  55 prop tor   4  16  17  24
  56 ben   5   4  16
  57 prop tor   5   4  16  15
  58 prop tor   5   4  16  17
  59 ben   5   6   7
  60 prop tor   5   6   7   8
  61 prop tor   5   6   7  14
  62 ben   5   6  15
  63 prop tor   5   6  15  16
  64 ben   6   7   8
  65 prop tor   6   7   8   9
  66 prop tor   6   7   8  21
  67 ben   6   7  14
  68 prop tor   6   7  14  13
  69 ben   6  15  16
  70 prop tor   6  15  16   4
  71 prop tor   6  15  16  17
  72 ben   7   6  15
  73 prop tor   7   6  15  16
  74 ben   7   8   9
  75 prop tor   7   8   9  10
  76 prop tor   7   8   9  13
  77 ben   7   8  21
  78 ben   7  14  13
  79 ben   8   7  14
  80 prop tor   8   7  14  13
  81 ben   8   9  10
  82 prop tor   8   9  10  11
  83 ben   8   9  13
  84 prop tor   8   9  13  12
  85 prop tor   8   9  13  14
  86 ben   9   8  21
  87 ben   9  10  11
  88 prop tor   9  10  11  12
  89 prop tor   9  10  11  22
  90 ben   9  13  12
  91 ben   9  13  14
  92 prop tor   9  13  14   7
  93 ben  10   9  13
  94 prop tor  10   9  13  12
  95 prop tor  10   9  13  14
  96 ben  10  11  12
  97 prop tor  10  11  12  13
  98 prop tor  10  11  12  23
  99 ben  10  11  22
 100 ben  11  12  13
 101 prop tor  11  12  13   9
 102 prop tor  11  12  13  14
 103 ben  11  12  23
 104 ben  12  11  22
 105 ben  12  13  14
 106 prop tor  12  13  14   7
 107 prop tor  13   9  10  11
 108 ben  13  12  23
 109 prop tor  14   7   8   9
 110 prop tor  14   7   8  21
 111 prop tor  15   6   7   8
 112 prop tor  15   6   7  14
 113 ben  15  16  17
 114 prop tor  15  16  17   1
 115 prop tor  15  16  17  24
 116 prop tor  16   4   5   6
 117 ben  16  17  24
 118 prop tor  17   1   2   3
 119 prop tor  17   1   2  19
 120 ben  17   1  18
 121 prop tor  18   1   2   3
 122 prop tor  18   1   2  19
 123 prop tor  18   1  17  16
 124 prop tor  18   1  17  24
 125 prop tor  19   2   3   4
 126 prop tor  19   2   3  20
 127 prop tor  20   3   4   5
 128 prop tor  20   3   4  16
 129 prop tor  21   8   9  10
 130 prop tor  21   8   9  13
 131 prop tor  22  11  12  13
 132 prop tor  22  11  12  23
 133 prop tor  23  12  13   9
 134 prop tor  23  12  13  14
 nber bend=              43
 nber lin bend=           0
 nber prop tor=          64
 nber impr tor=           0
 nber tot redund int=         134
 Eigenvalues of G in red int coords
    Gval -0.00000000 -0.00000000 -0.00000000 -0.00000000 -0.00000000 -0.00000000 -0.00000000 -0.00000000
    Gval -0.00000000 -0.00000000 -0.00000000 -0.00000000 -0.00000000 -0.00000000 -0.00000000 -0.00000000
    Gval -0.00000000 -0.00000000 -0.00000000 -0.00000000 -0.00000000 -0.00000000 -0.00000000 -0.00000000
    Gval -0.00000000 -0.00000000 -0.00000000 -0.00000000 -0.00000000 -0.00000000 -0.00000000 -0.00000000
    Gval -0.00000000 -0.00000000  0.00000000  0.00000000  0.00000000  0.00000000  0.00000000  0.00000000
    Gval  0.00000000  0.00000000  0.00000000  0.00000000  0.00000000  0.00000000  0.00000000  0.00000000
    Gval  0.00000000  0.00000000  0.00000000  0.00000000  0.00000000  0.00000000  0.00000000  0.00000000
    Gval  0.00000000  0.00000000  0.00000000  0.00000000  0.00000000  0.00000000  0.00000000  0.00000000
    Gval  0.00000000  0.00000000  0.00000000  0.00000000  0.00000143  0.00000358  0.00000690  0.00000971
    Gval  0.00001726  0.00001810  0.00002228  0.00003155  0.00003479  0.00003510  0.00004268  0.00004465
    Gval  0.00004738  0.00004987  0.00005837  0.00006022  0.00007636  0.00008475  0.00009190  0.00011000
    Gval  0.00011013  0.00012238  0.00012455  0.00015022  0.00015200  0.00015546  0.00017321  0.00021472
    Gval  0.00023101  0.00025115  0.00029294  0.00030744  0.00031384  0.00031703  0.00035788  0.00038558
    Gval  0.00039737  0.00043658  0.00051637  0.00059316  0.00059659  0.00059742  0.00061833  0.00062188
    Gval  0.00062732  0.00064497  0.00065453  0.00066869  0.00085021  0.00105105  0.00108120  0.00111863
    Gval  0.00114533  0.00115753  0.00116813  0.00118337  0.00129181  0.00133842  0.00162641  0.00179611
    Gval  0.00210617  0.00268463  0.00353066  0.00354687  0.00394484  0.00400987
  1.431041228716984E-006  1.431041228716984E-006
  3.584948513555170E-006  1.431041228716984E-006
  6.903794856463096E-006  1.431041228716984E-006
  9.713305349161017E-006  1.431041228716984E-006
  1.725600511054323E-005  1.431041228716984E-006
  1.809837067579280E-005  1.431041228716984E-006
  2.228314756142609E-005  1.431041228716984E-006
  3.154939824746764E-005  1.431041228716984E-006
  3.479495799071655E-005  1.431041228716984E-006
  3.509853463881234E-005  1.431041228716984E-006
  4.268026184379324E-005  1.431041228716984E-006
  4.464758756125875E-005  1.431041228716984E-006
  4.738482588873089E-005  1.431041228716984E-006
  4.986871727488325E-005  1.431041228716984E-006
  5.837102696117440E-005  1.431041228716984E-006
  6.021669141994831E-005  1.431041228716984E-006
  7.636087977246910E-005  1.431041228716984E-006
  8.474521275349240E-005  1.431041228716984E-006
  9.189810285457949E-005  1.431041228716984E-006
  1.099989086228978E-004  1.431041228716984E-006
  1.101344779025027E-004  1.431041228716984E-006
  1.223754979356887E-004  1.431041228716984E-006
  1.245514287027561E-004  1.431041228716984E-006
  1.502152204062355E-004  1.431041228716984E-006
  1.519952432276764E-004  1.431041228716984E-006
  1.554620372628311E-004  1.431041228716984E-006
  1.732142202248907E-004  1.431041228716984E-006
  2.147158455591216E-004  1.431041228716984E-006
  2.310077249991451E-004  1.431041228716984E-006
  2.511526262734061E-004  1.431041228716984E-006
  2.929397359528094E-004  1.431041228716984E-006
  3.074407320882460E-004  1.431041228716984E-006
  3.138393997446632E-004  1.431041228716984E-006
  3.170304527488577E-004  1.431041228716984E-006
  3.578760417029747E-004  1.431041228716984E-006
  3.855803924786337E-004  1.431041228716984E-006
  3.973650612652649E-004  1.431041228716984E-006
  4.365804683761470E-004  1.431041228716984E-006
  5.163712784616895E-004  1.431041228716984E-006
  5.931616235170188E-004  1.431041228716984E-006
  5.965907050006712E-004  1.431041228716984E-006
  5.974210069346374E-004  1.431041228716984E-006
  6.183320118140670E-004  1.431041228716984E-006
  6.218769921433477E-004  1.431041228716984E-006
  6.273181193154439E-004  1.431041228716984E-006
  6.449685418035618E-004  1.431041228716984E-006
  6.545257925291390E-004  1.431041228716984E-006
  6.686850922390676E-004  1.431041228716984E-006
  8.502133230293845E-004  1.431041228716984E-006
  1.051045408067997E-003  1.431041228716984E-006
  1.081203072956193E-003  1.431041228716984E-006
  1.118633436046481E-003  1.431041228716984E-006
  1.145330857584288E-003  1.431041228716984E-006
  1.157531729584238E-003  1.431041228716984E-006
  1.168126519384740E-003  1.431041228716984E-006
  1.183371772836413E-003  1.431041228716984E-006
  1.291809732270213E-003  1.431041228716984E-006
  1.338423046497101E-003  1.431041228716984E-006
  1.626405266624169E-003  1.431041228716984E-006
  1.796114583537619E-003  1.431041228716984E-006
  2.106174141804321E-003  1.431041228716984E-006
  2.684628318536096E-003  1.431041228716984E-006
  3.530659251512221E-003  1.431041228716984E-006
  3.546874435004765E-003  1.431041228716984E-006
  3.944836938980572E-003  1.431041228716984E-006
  4.009865133953173E-003  1.431041228716984E-006
 cut=1d-8, nber non-redundant internal coords=          66
 Check on Eigenvals of non-red overlap matrix:
  0.00000143  0.00000358  0.00000690  0.00000971  0.00001726  0.00001810  0.00002228  0.00003155
  0.00003479  0.00003510  0.00004268  0.00004465  0.00004738  0.00004987  0.00005837  0.00006022
  0.00007636  0.00008475  0.00009190  0.00011000  0.00011013  0.00012238  0.00012455  0.00015022
  0.00015200  0.00015546  0.00017321  0.00021472  0.00023101  0.00025115  0.00029294  0.00030744
  0.00031384  0.00031703  0.00035788  0.00038558  0.00039737  0.00043658  0.00051637  0.00059316
  0.00059659  0.00059742  0.00061833  0.00062188  0.00062732  0.00064497  0.00065453  0.00066869
  0.00085021  0.00105105  0.00108120  0.00111863  0.00114533  0.00115753  0.00116813  0.00118337
  0.00129181  0.00133842  0.00162641  0.00179611  0.00210617  0.00268463  0.00353066  0.00354687
  0.00394484  0.00400987
 Checking for correct frequencies
 recalc frequencies=
    -0.0   -0.0    0.0    0.0    0.0    0.0   40.3   53.2   67.7  107.0
   181.0  188.2  214.7  215.0  243.8  274.5  369.0  393.9  413.0  431.1
   441.3  461.0  498.2  502.4  539.7  552.8  572.1  575.9  605.0  622.9
   661.5  703.7  714.2  734.0  739.0  740.5  772.6  828.3  828.6  843.3
   884.5  891.7  935.0  936.7 1032.5 1061.3 1081.9 1124.9 1135.9 1147.2
  1165.4 1201.9 1268.0 1288.9 1329.7 1361.2 1381.1 1415.4 1440.7 1463.5
  1475.4 1479.3 1548.0 1576.5 1602.9 3133.0 3148.8 3166.3 3174.6 3183.3
  3228.1 3240.7
 recalc symmetries=
                                                                       
                                                                       
                                                                       
                                                                       
                                                                       
                                                                       
                                                                       
               
 recalc freqs check OK
 Zero-point lengths:
 10.0000 10.0000 10.0000 10.0000 10.0000 10.0000 39.0367 33.9780 30.1284 23.9657
 18.4268 18.0719 16.9173 16.9077 15.8779 14.9644 12.9064 12.4919 12.1984 11.9403
 11.8015 11.5461 11.1065 11.0602 10.6716 10.5437 10.3647 10.3304 10.0787  9.9330
  9.6389  9.3456  9.2768  9.1505  9.1198  9.1101  8.9188  8.6142  8.6125  8.5369
  8.3358  8.3021  8.1076  8.1002  7.7154  7.6100  7.5370  7.3917  7.3557  7.3194
  7.2621  7.1510  6.9620  6.9053  6.7985  6.7194  6.6709  6.5896  6.5315  6.4803
  6.4541  6.4457  6.3010  6.2438  6.1921  4.4291  4.4180  4.4058  4.4000  4.3939
  4.3633  4.3549
 highest evec of mol 2
  0.0002  0.0001  0.0000
 -0.0001 -0.0001 -0.0000
  0.0002 -0.0001 -0.0000
 -0.0002  0.0001  0.0000
  0.0000  0.0001  0.0000
  0.0002  0.0003  0.0000
  0.0000 -0.0000 -0.0000
 -0.0034 -0.0069 -0.0001
 -0.0016  0.0012  0.0000
 -0.0006 -0.0018 -0.0000
  0.2861 -0.0317 -0.0002
  0.0127  0.0600  0.0009
 -0.0070 -0.0025 -0.0000
  0.0003  0.0001  0.0000
 -0.0003 -0.0002 -0.0000
  0.0003 -0.0001 -0.0000
 -0.0001  0.0000  0.0000
 -0.0004 -0.0004 -0.0000
 -0.0000  0.0000  0.0000
 -0.0001  0.0004  0.0000
  0.0091  0.0216  0.0003
 -0.9396  0.0666 -0.0000
 -0.0576 -0.1485 -0.0023
  0.0001 -0.0003 -0.0000
 Enter nber and list of atoms to keep of mol #2
 keep list:          24           1           2           3           4
           5           6           7           8           9          10
          11          12          13          14          15          16
          17          18          19          20          21          22
          23          24
 reordering atoms
           1  -5.25293745765934     
           2  -5.60452327873851     
           3  -4.60091566824870     
           4  -3.27307126122235     
           5  -1.81949419374918     
           6 -0.821679559777930     
           7  0.578791496792797     
           8   1.46164831405032     
           9   2.79980431832977     
          10   4.34171711767687     
          11   5.23216209076156     
          12   4.38645586987902     
          13   3.02826290996036     
          14   1.49409379786562     
          15  -1.56176824179117     
          16  -2.88949863801160     
          17  -3.92286658259602     
          18  -6.03555959093041     
          19  -6.64814749215379     
          20  -4.86343072088472     
          21   1.09004022055311     
          22   6.31033444511828     
          23   4.74154093504683     
          24  -3.65094840653021     
           1           1
           2           2
           3           3
           4           4
           5           5
           6           6
           7           7
           8           8
           9           9
          10          10
          11          11
          12          12
          13          13
          14          14
          15          15
          16          16
          17          17
          18          18
          19          19
          20          20
          21          21
          22          22
          23          23
          24          24
 initial cartes coords mol 1
   6   0.00057   1.45579  -5.21243
   6  -0.00008   0.09868  -5.57139
   6  -0.00054  -0.89779  -4.60242
   6  -0.00034  -0.51044  -3.26355
  16  -0.00083  -1.50705  -1.82411
   6  -0.00001  -0.01115  -0.84605
   6  -0.00002  -0.04878   0.60274
   6  -0.00051   1.05130   1.42855
   6  -0.00026   0.68003   2.79219
  16  -0.00062   1.54617   4.30626
   6   0.00021   0.03864   5.19093
   6   0.00066  -1.06398   4.38656
   6   0.00040  -0.69382   3.01399
  16   0.00077  -1.56556   1.50819
   7   0.00053   1.09213  -1.52900
   6   0.00033   0.85337  -2.88569
   6   0.00078   1.84071  -3.88085
   1   0.00092   2.21170  -5.98908
   1  -0.00022  -0.17872  -6.61906
   1  -0.00102  -1.94380  -4.88372
   1  -0.00101   2.05844   1.03828
   1   0.00028   0.06659   6.26977
   1   0.00117  -2.07827   4.75991
   1   0.00129   2.88341  -3.58814
 initial cartes coords mol 2
   6  -0.00007   1.42778  -5.25294
   6   0.00014   0.07247  -5.60452
   6   0.00022  -0.90639  -4.60092
   6   0.00010  -0.51000  -3.27307
  16   0.00018  -1.50745  -1.81949
   6  -0.00013   0.01971  -0.82168
   6  -0.00010  -0.02116   0.57879
   6   0.00010   1.08034   1.46165
   6   0.00009   0.68381   2.79980
  16   0.00025   1.53700   4.34172
   6  -0.00022   0.00852   5.23216
   6  -0.00005  -1.07560   4.38646
   6  -0.00002  -0.70023   3.02826
  16  -0.00020  -1.56802   1.49409
   7  -0.00030   1.13191  -1.56177
   6  -0.00014   0.86773  -2.88950
   6  -0.00021   1.83116  -3.92287
   1  -0.00012   2.18142  -6.03556
   1   0.00025  -0.22347  -6.64815
   1   0.00038  -1.95938  -4.86343
   1   0.00029   2.09385   1.09004
   1  -0.00030   0.02197   6.31033
   1  -0.00007  -2.09878   4.74154
   1  -0.00038   2.88081  -3.65095
 loop 1 0
 mod cartes coords mol 2
   6  -0.00007   1.42778  -5.25294
   6   0.00014   0.07247  -5.60452
   6   0.00022  -0.90639  -4.60092
   6   0.00010  -0.51000  -3.27307
  16   0.00018  -1.50745  -1.81949
   6  -0.00013   0.01971  -0.82168
   6  -0.00010  -0.02116   0.57879
   6   0.00010   1.08034   1.46165
   6   0.00009   0.68381   2.79980
  16   0.00025   1.53700   4.34172
   6  -0.00022   0.00852   5.23216
   6  -0.00005  -1.07560   4.38646
   6  -0.00002  -0.70023   3.02826
  16  -0.00020  -1.56802   1.49409
   7  -0.00030   1.13191  -1.56177
   6  -0.00014   0.86773  -2.88950
   6  -0.00021   1.83116  -3.92287
   1  -0.00012   2.18142  -6.03556
   1   0.00025  -0.22347  -6.64815
   1   0.00038  -1.95938  -4.86343
   1   0.00029   2.09385   1.09004
   1  -0.00030   0.02197   6.31033
   1  -0.00007  -2.09878   4.74154
   1  -0.00038   2.88081  -3.65095
 read in order, maxerr=  0.06 for atom  24
 final axis swaps:           1           1           1
 final xyz swap pattern=           1
 reorder list:
   1   2   3   4   5   6   7   8   9  10  11  12  13  14  15  16  17  18  19  20
  21  22  23  24
 axis signs=           1           1           1
  6    -0.000065  1.427777 -5.252937     0.000573  1.455788 -5.212427
  6     0.000143  0.072474 -5.604523    -0.000078  0.098684 -5.571390
  6     0.000222 -0.906385 -4.600916    -0.000537 -0.897788 -4.602419
  6     0.000099 -0.509995 -3.273071    -0.000343 -0.510444 -3.263553
 16     0.000180 -1.507449 -1.819494    -0.000827 -1.507054 -1.824107
  6    -0.000130  0.019707 -0.821680    -0.000007 -0.011147 -0.846048
  6    -0.000101 -0.021165  0.578791    -0.000024 -0.048779  0.602743
  6     0.000098  1.080343  1.461648    -0.000509  1.051300  1.428550
  6     0.000092  0.683814  2.799804    -0.000265  0.680031  2.792185
 16     0.000251  1.536998  4.341717    -0.000622  1.546166  4.306259
  6    -0.000216  0.008525  5.232162     0.000207  0.038640  5.190934
  6    -0.000052 -1.075598  4.386456     0.000658 -1.063984  4.386564
  6    -0.000016 -0.700232  3.028263     0.000400 -0.693825  3.013992
 16    -0.000196 -1.568018  1.494094     0.000773 -1.565562  1.508194
  7    -0.000297  1.131909 -1.561768     0.000526  1.092126 -1.528998
  6    -0.000143  0.867728 -2.889499     0.000329  0.853369 -2.885689
  6    -0.000213  1.831161 -3.922867     0.000783  1.840709 -3.880855
  1    -0.000120  2.181415 -6.035560     0.000916  2.211705 -5.989085
  1     0.000246 -0.223470 -6.648147    -0.000220 -0.178722 -6.619065
  1     0.000379 -1.959383 -4.863431    -0.001022 -1.943796 -4.883721
  1     0.000292  2.093854  1.090040    -0.001008  2.058442  1.038278
  1    -0.000302  0.021974  6.310334     0.000280  0.066590  6.269772
  1    -0.000073 -2.098780  4.741541     0.001170 -2.078273  4.759908
  1    -0.000378  2.880811 -3.650948     0.001290  2.883413 -3.588141
 generating redundant internal coords
         300        3600          24
 Adding extra bonds for z output only
           6           6           6           6          16           6
           6           6           6          16           6           6
           6          16           7           6           6           1
           1           1           1           1           1           1
 search for int coords
   1 str   2   1   1.400
   2 str   3   2   1.402
   3 str   4   3   1.386
   4 str   5   4   1.763
   5 str   6   5   1.824
   6 str   7   6   1.401
   7 str   8   7   1.412
   8 str   9   8   1.396
   9 str  10   9   1.762
  10 str  11  10   1.769
  11 str  12  11   1.375
  12 str  13   9   1.403
  13 str  13  12   1.409
  14 str  14   7   1.797
  15 str  14  13   1.763
  16 str  15   6   1.336
  17 str  16   4   1.430
  18 str  16  15   1.354
  19 str  17   1   1.390
  20 str  17  16   1.413
  21 str  18   1   1.086
  22 str  19   2   1.085
  23 str  20   3   1.085
  24 str  21   8   1.079
  25 str  22  11   1.078
  26 str  23  12   1.083
  27 str  24  17   1.084
 nber stretches=          27
  28 ben   1   2   3
  29 prop tor   1   2   3   4
  30 prop tor   1   2   3  20
  31 ben   1   2  19
  32 ben   1  17  16
  33 ben   1  17  24
  34 ben   2   1  17
  35 prop tor   2   1  17  16
  36 prop tor   2   1  17  24
  37 ben   2   1  18
  38 ben   2   3   4
  39 prop tor   2   3   4   5
  40 prop tor   2   3   4  16
  41 ben   2   3  20
  42 ben   3   2  19
  43 ben   3   4   5
  44 prop tor   3   4   5   6
  45 ben   3   4  16
  46 prop tor   3   4  16  15
  47 prop tor   3   4  16  17
  48 ben   4   3  20
  49 ben   4   5   6
  50 prop tor   4   5   6   7
  51 prop tor   4   5   6  15
  52 ben   4  16  15
  53 ben   4  16  17
  54 prop tor   4  16  17   1
  55 prop tor   4  16  17  24
  56 ben   5   4  16
  57 prop tor   5   4  16  15
  58 prop tor   5   4  16  17
  59 ben   5   6   7
  60 prop tor   5   6   7   8
  61 prop tor   5   6   7  14
  62 ben   5   6  15
  63 prop tor   5   6  15  16
  64 ben   6   7   8
  65 prop tor   6   7   8   9
  66 prop tor   6   7   8  21
  67 ben   6   7  14
  68 prop tor   6   7  14  13
  69 ben   6  15  16
  70 prop tor   6  15  16   4
  71 prop tor   6  15  16  17
  72 ben   7   6  15
  73 prop tor   7   6  15  16
  74 ben   7   8   9
  75 prop tor   7   8   9  10
  76 prop tor   7   8   9  13
  77 ben   7   8  21
  78 ben   7  14  13
  79 ben   8   7  14
  80 prop tor   8   7  14  13
  81 ben   8   9  10
  82 prop tor   8   9  10  11
  83 ben   8   9  13
  84 prop tor   8   9  13  12
  85 prop tor   8   9  13  14
  86 ben   9   8  21
  87 ben   9  10  11
  88 prop tor   9  10  11  12
  89 prop tor   9  10  11  22
  90 ben   9  13  12
  91 ben   9  13  14
  92 prop tor   9  13  14   7
  93 ben  10   9  13
  94 prop tor  10   9  13  12
  95 prop tor  10   9  13  14
  96 ben  10  11  12
  97 prop tor  10  11  12  13
  98 prop tor  10  11  12  23
  99 ben  10  11  22
 100 ben  11  12  13
 101 prop tor  11  12  13   9
 102 prop tor  11  12  13  14
 103 ben  11  12  23
 104 ben  12  11  22
 105 ben  12  13  14
 106 prop tor  12  13  14   7
 107 prop tor  13   9  10  11
 108 ben  13  12  23
 109 prop tor  14   7   8   9
 110 prop tor  14   7   8  21
 111 prop tor  15   6   7   8
 112 prop tor  15   6   7  14
 113 ben  15  16  17
 114 prop tor  15  16  17   1
 115 prop tor  15  16  17  24
 116 prop tor  16   4   5   6
 117 ben  16  17  24
 118 prop tor  17   1   2   3
 119 prop tor  17   1   2  19
 120 ben  17   1  18
 121 prop tor  18   1   2   3
 122 prop tor  18   1   2  19
 123 prop tor  18   1  17  16
 124 prop tor  18   1  17  24
 125 prop tor  19   2   3   4
 126 prop tor  19   2   3  20
 127 prop tor  20   3   4   5
 128 prop tor  20   3   4  16
 129 prop tor  21   8   9  10
 130 prop tor  21   8   9  13
 131 prop tor  22  11  12  13
 132 prop tor  22  11  12  23
 133 prop tor  23  12  13   9
 134 prop tor  23  12  13  14
 nber bend=              43
 nber lin bend=           0
 nber prop tor=          64
 nber impr tor=           0
 nber tot redund int=         134
 generating redundant internal coords
         300        3600          24
 search for int coords
   1 str   2   1   1.404
   2 str   3   2   1.390
   3 str   4   3   1.394
   4 str   5   4   1.751
   5 str   6   5   1.787
   6 str   7   6   1.449
   7 str   8   7   1.376
   8 str   9   8   1.413
   9 str  10   9   1.744
  10 str  11  10   1.748
  11 str  12  11   1.365
  12 str  13   9   1.392
  13 str  13  12   1.422
  14 str  14   7   1.766
  15 str  14  13   1.740
  16 str  15   6   1.298
  17 str  16   4   1.415
  18 str  16  15   1.378
  19 str  17   1   1.386
  20 str  17  16   1.402
  21 str  18   1   1.084
  22 str  19   2   1.084
  23 str  20   3   1.083
  24 str  21   8   1.080
  25 str  22  11   1.079
  26 str  23  12   1.081
  27 str  24  17   1.083
 nber stretches=          27
  28 ben   1   2   3
  29 prop tor   1   2   3   4
  30 prop tor   1   2   3  20
  31 ben   1   2  19
  32 ben   1  17  16
  33 ben   1  17  24
  34 ben   2   1  17
  35 prop tor   2   1  17  16
  36 prop tor   2   1  17  24
  37 ben   2   1  18
  38 ben   2   3   4
  39 prop tor   2   3   4   5
  40 prop tor   2   3   4  16
  41 ben   2   3  20
  42 ben   3   2  19
  43 ben   3   4   5
  44 prop tor   3   4   5   6
  45 ben   3   4  16
  46 prop tor   3   4  16  15
  47 prop tor   3   4  16  17
  48 ben   4   3  20
  49 ben   4   5   6
  50 prop tor   4   5   6   7
  51 prop tor   4   5   6  15
  52 ben   4  16  15
  53 ben   4  16  17
  54 prop tor   4  16  17   1
  55 prop tor   4  16  17  24
  56 ben   5   4  16
  57 prop tor   5   4  16  15
  58 prop tor   5   4  16  17
  59 ben   5   6   7
  60 prop tor   5   6   7   8
  61 prop tor   5   6   7  14
  62 ben   5   6  15
  63 prop tor   5   6  15  16
  64 ben   6   7   8
  65 prop tor   6   7   8   9
  66 prop tor   6   7   8  21
  67 ben   6   7  14
  68 prop tor   6   7  14  13
  69 ben   6  15  16
  70 prop tor   6  15  16   4
  71 prop tor   6  15  16  17
  72 ben   7   6  15
  73 prop tor   7   6  15  16
  74 ben   7   8   9
  75 prop tor   7   8   9  10
  76 prop tor   7   8   9  13
  77 ben   7   8  21
  78 ben   7  14  13
  79 ben   8   7  14
  80 prop tor   8   7  14  13
  81 ben   8   9  10
  82 prop tor   8   9  10  11
  83 ben   8   9  13
  84 prop tor   8   9  13  12
  85 prop tor   8   9  13  14
  86 ben   9   8  21
  87 ben   9  10  11
  88 prop tor   9  10  11  12
  89 prop tor   9  10  11  22
  90 ben   9  13  12
  91 ben   9  13  14
  92 prop tor   9  13  14   7
  93 ben  10   9  13
  94 prop tor  10   9  13  12
  95 prop tor  10   9  13  14
  96 ben  10  11  12
  97 prop tor  10  11  12  13
  98 prop tor  10  11  12  23
  99 ben  10  11  22
 100 ben  11  12  13
 101 prop tor  11  12  13   9
 102 prop tor  11  12  13  14
 103 ben  11  12  23
 104 ben  12  11  22
 105 ben  12  13  14
 106 prop tor  12  13  14   7
 107 prop tor  13   9  10  11
 108 ben  13  12  23
 109 prop tor  14   7   8   9
 110 prop tor  14   7   8  21
 111 prop tor  15   6   7   8
 112 prop tor  15   6   7  14
 113 ben  15  16  17
 114 prop tor  15  16  17   1
 115 prop tor  15  16  17  24
 116 prop tor  16   4   5   6
 117 ben  16  17  24
 118 prop tor  17   1   2   3
 119 prop tor  17   1   2  19
 120 ben  17   1  18
 121 prop tor  18   1   2   3
 122 prop tor  18   1   2  19
 123 prop tor  18   1  17  16
 124 prop tor  18   1  17  24
 125 prop tor  19   2   3   4
 126 prop tor  19   2   3  20
 127 prop tor  20   3   4   5
 128 prop tor  20   3   4  16
 129 prop tor  21   8   9  10
 130 prop tor  21   8   9  13
 131 prop tor  22  11  12  13
 132 prop tor  22  11  12  23
 133 prop tor  23  12  13   9
 134 prop tor  23  12  13  14
 nber bend=              43
 nber lin bend=           0
 nber prop tor=          64
 nber impr tor=           0
 nber tot redund int=         134
 Eigenvalues of G in red int coords
    Gval -0.00000000 -0.00000000 -0.00000000 -0.00000000 -0.00000000 -0.00000000 -0.00000000 -0.00000000
    Gval -0.00000000 -0.00000000 -0.00000000 -0.00000000 -0.00000000 -0.00000000 -0.00000000 -0.00000000
    Gval -0.00000000 -0.00000000 -0.00000000 -0.00000000 -0.00000000 -0.00000000 -0.00000000 -0.00000000
    Gval -0.00000000 -0.00000000 -0.00000000 -0.00000000 -0.00000000 -0.00000000 -0.00000000 -0.00000000
    Gval -0.00000000 -0.00000000 -0.00000000 -0.00000000  0.00000000  0.00000000  0.00000000  0.00000000
    Gval  0.00000000  0.00000000  0.00000000  0.00000000  0.00000000  0.00000000  0.00000000  0.00000000
    Gval  0.00000000  0.00000000  0.00000000  0.00000000  0.00000000  0.00000000  0.00000000  0.00000000
    Gval  0.00000000  0.00000000  0.00000000  0.00000000  0.00000000  0.00000000  0.00000000  0.00000000
    Gval  0.00000000  0.00000000  0.00000000  0.00000000  0.00000144  0.00000364  0.00000689  0.00000959
    Gval  0.00001724  0.00001815  0.00002238  0.00003177  0.00003475  0.00003552  0.00004275  0.00004480
    Gval  0.00004775  0.00004989  0.00005827  0.00006016  0.00007655  0.00008508  0.00009191  0.00011085
    Gval  0.00011122  0.00012284  0.00012499  0.00015304  0.00015347  0.00015708  0.00017704  0.00021391
    Gval  0.00023325  0.00025257  0.00029431  0.00031163  0.00031651  0.00032095  0.00035602  0.00038618
    Gval  0.00039918  0.00042861  0.00053699  0.00059315  0.00059660  0.00059751  0.00061831  0.00062195
    Gval  0.00062742  0.00064337  0.00065506  0.00066198  0.00085115  0.00105451  0.00108139  0.00112265
    Gval  0.00114600  0.00116328  0.00117171  0.00118670  0.00127387  0.00130117  0.00163621  0.00180166
    Gval  0.00208112  0.00270187  0.00355127  0.00357019  0.00397249  0.00402237
  1.439325366752536E-006  1.439325366752536E-006
  3.635586199957155E-006  1.439325366752536E-006
  6.888119665989063E-006  1.439325366752536E-006
  9.594413007369476E-006  1.439325366752536E-006
  1.723922189376859E-005  1.439325366752536E-006
  1.815247741626294E-005  1.439325366752536E-006
  2.238033041088696E-005  1.439325366752536E-006
  3.176525989168022E-005  1.439325366752536E-006
  3.475131632839550E-005  1.439325366752536E-006
  3.551864008102024E-005  1.439325366752536E-006
  4.275236266722297E-005  1.439325366752536E-006
  4.480393945094505E-005  1.439325366752536E-006
  4.774549161911292E-005  1.439325366752536E-006
  4.989058589891108E-005  1.439325366752536E-006
  5.826978771810326E-005  1.439325366752536E-006
  6.016168744640165E-005  1.439325366752536E-006
  7.655039944926066E-005  1.439325366752536E-006
  8.507591642875694E-005  1.439325366752536E-006
  9.191147692054205E-005  1.439325366752536E-006
  1.108530141838603E-004  1.439325366752536E-006
  1.112173334590255E-004  1.439325366752536E-006
  1.228437437264791E-004  1.439325366752536E-006
  1.249865172533082E-004  1.439325366752536E-006
  1.530416673205676E-004  1.439325366752536E-006
  1.534734932196499E-004  1.439325366752536E-006
  1.570816388239648E-004  1.439325366752536E-006
  1.770388476350886E-004  1.439325366752536E-006
  2.139069976224112E-004  1.439325366752536E-006
  2.332454391097753E-004  1.439325366752536E-006
  2.525732790110299E-004  1.439325366752536E-006
  2.943142129124770E-004  1.439325366752536E-006
  3.116273310370863E-004  1.439325366752536E-006
  3.165081976388927E-004  1.439325366752536E-006
  3.209539638943441E-004  1.439325366752536E-006
  3.560180767986172E-004  1.439325366752536E-006
  3.861762320904370E-004  1.439325366752536E-006
  3.991774008577310E-004  1.439325366752536E-006
  4.286130042146038E-004  1.439325366752536E-006
  5.369944280127262E-004  1.439325366752536E-006
  5.931542306296516E-004  1.439325366752536E-006
  5.966012745667651E-004  1.439325366752536E-006
  5.975097724785302E-004  1.439325366752536E-006
  6.183069789614672E-004  1.439325366752536E-006
  6.219463931276005E-004  1.439325366752536E-006
  6.274204209930457E-004  1.439325366752536E-006
  6.433673404389027E-004  1.439325366752536E-006
  6.550590563235948E-004  1.439325366752536E-006
  6.619816191126213E-004  1.439325366752536E-006
  8.511511308094195E-004  1.439325366752536E-006
  1.054511330703084E-003  1.439325366752536E-006
  1.081389718289404E-003  1.439325366752536E-006
  1.122654441373523E-003  1.439325366752536E-006
  1.145998900716205E-003  1.439325366752536E-006
  1.163284443004231E-003  1.439325366752536E-006
  1.171711068637594E-003  1.439325366752536E-006
  1.186704294319664E-003  1.439325366752536E-006
  1.273866336401596E-003  1.439325366752536E-006
  1.301165367999105E-003  1.439325366752536E-006
  1.636206561835679E-003  1.439325366752536E-006
  1.801657579889865E-003  1.439325366752536E-006
  2.081124190380491E-003  1.439325366752536E-006
  2.701868157476410E-003  1.439325366752536E-006
  3.551266653833660E-003  1.439325366752536E-006
  3.570194802833289E-003  1.439325366752536E-006
  3.972485911990722E-003  1.439325366752536E-006
  4.022368550723413E-003  1.439325366752536E-006
 cut=1d-8, nber non-redundant internal coords=          66
 Check on Eigenvals of non-red overlap matrix:
  0.00000144  0.00000364  0.00000689  0.00000959  0.00001724  0.00001815  0.00002238  0.00003177
  0.00003475  0.00003552  0.00004275  0.00004480  0.00004775  0.00004989  0.00005827  0.00006016
  0.00007655  0.00008508  0.00009191  0.00011085  0.00011122  0.00012284  0.00012499  0.00015304
  0.00015347  0.00015708  0.00017704  0.00021391  0.00023325  0.00025257  0.00029431  0.00031163
  0.00031651  0.00032095  0.00035602  0.00038618  0.00039918  0.00042861  0.00053699  0.00059315
  0.00059660  0.00059751  0.00061831  0.00062195  0.00062742  0.00064337  0.00065506  0.00066198
  0.00085115  0.00105451  0.00108139  0.00112265  0.00114600  0.00116328  0.00117171  0.00118670
  0.00127387  0.00130117  0.00163621  0.00180166  0.00208112  0.00270187  0.00355127  0.00357019
  0.00397249  0.00402237
 generating redundant internal coords
         300        3600          24
 search for int coords
   1 str   2   1   1.400
   2 str   3   2   1.402
   3 str   4   3   1.386
   4 str   5   4   1.763
   5 str   6   5   1.824
   6 str   7   6   1.401
   7 str   8   7   1.412
   8 str   9   8   1.396
   9 str  10   9   1.762
  10 str  11  10   1.769
  11 str  12  11   1.375
  12 str  13   9   1.403
  13 str  13  12   1.409
  14 str  14   7   1.797
  15 str  14  13   1.763
  16 str  15   6   1.336
  17 str  16   4   1.430
  18 str  16  15   1.354
  19 str  17   1   1.390
  20 str  17  16   1.413
  21 str  18   1   1.086
  22 str  19   2   1.085
  23 str  20   3   1.085
  24 str  21   8   1.079
  25 str  22  11   1.078
  26 str  23  12   1.083
  27 str  24  17   1.084
 nber stretches=          27
  28 ben   1   2   3
  29 prop tor   1   2   3   4
  30 prop tor   1   2   3  20
  31 ben   1   2  19
  32 ben   1  17  16
  33 ben   1  17  24
  34 ben   2   1  17
  35 prop tor   2   1  17  16
  36 prop tor   2   1  17  24
  37 ben   2   1  18
  38 ben   2   3   4
  39 prop tor   2   3   4   5
  40 prop tor   2   3   4  16
  41 ben   2   3  20
  42 ben   3   2  19
  43 ben   3   4   5
  44 prop tor   3   4   5   6
  45 ben   3   4  16
  46 prop tor   3   4  16  15
  47 prop tor   3   4  16  17
  48 ben   4   3  20
  49 ben   4   5   6
  50 prop tor   4   5   6   7
  51 prop tor   4   5   6  15
  52 ben   4  16  15
  53 ben   4  16  17
  54 prop tor   4  16  17   1
  55 prop tor   4  16  17  24
  56 ben   5   4  16
  57 prop tor   5   4  16  15
  58 prop tor   5   4  16  17
  59 ben   5   6   7
  60 prop tor   5   6   7   8
  61 prop tor   5   6   7  14
  62 ben   5   6  15
  63 prop tor   5   6  15  16
  64 ben   6   7   8
  65 prop tor   6   7   8   9
  66 prop tor   6   7   8  21
  67 ben   6   7  14
  68 prop tor   6   7  14  13
  69 ben   6  15  16
  70 prop tor   6  15  16   4
  71 prop tor   6  15  16  17
  72 ben   7   6  15
  73 prop tor   7   6  15  16
  74 ben   7   8   9
  75 prop tor   7   8   9  10
  76 prop tor   7   8   9  13
  77 ben   7   8  21
  78 ben   7  14  13
  79 ben   8   7  14
  80 prop tor   8   7  14  13
  81 ben   8   9  10
  82 prop tor   8   9  10  11
  83 ben   8   9  13
  84 prop tor   8   9  13  12
  85 prop tor   8   9  13  14
  86 ben   9   8  21
  87 ben   9  10  11
  88 prop tor   9  10  11  12
  89 prop tor   9  10  11  22
  90 ben   9  13  12
  91 ben   9  13  14
  92 prop tor   9  13  14   7
  93 ben  10   9  13
  94 prop tor  10   9  13  12
  95 prop tor  10   9  13  14
  96 ben  10  11  12
  97 prop tor  10  11  12  13
  98 prop tor  10  11  12  23
  99 ben  10  11  22
 100 ben  11  12  13
 101 prop tor  11  12  13   9
 102 prop tor  11  12  13  14
 103 ben  11  12  23
 104 ben  12  11  22
 105 ben  12  13  14
 106 prop tor  12  13  14   7
 107 prop tor  13   9  10  11
 108 ben  13  12  23
 109 prop tor  14   7   8   9
 110 prop tor  14   7   8  21
 111 prop tor  15   6   7   8
 112 prop tor  15   6   7  14
 113 ben  15  16  17
 114 prop tor  15  16  17   1
 115 prop tor  15  16  17  24
 116 prop tor  16   4   5   6
 117 ben  16  17  24
 118 prop tor  17   1   2   3
 119 prop tor  17   1   2  19
 120 ben  17   1  18
 121 prop tor  18   1   2   3
 122 prop tor  18   1   2  19
 123 prop tor  18   1  17  16
 124 prop tor  18   1  17  24
 125 prop tor  19   2   3   4
 126 prop tor  19   2   3  20
 127 prop tor  20   3   4   5
 128 prop tor  20   3   4  16
 129 prop tor  21   8   9  10
 130 prop tor  21   8   9  13
 131 prop tor  22  11  12  13
 132 prop tor  22  11  12  23
 133 prop tor  23  12  13   9
 134 prop tor  23  12  13  14
 nber bend=              43
 nber lin bend=           0
 nber prop tor=          64
 nber impr tor=           0
 nber tot redund int=         134
 Eigenvalues of G in red int coords
    Gval -0.00000000 -0.00000000 -0.00000000 -0.00000000 -0.00000000 -0.00000000 -0.00000000 -0.00000000
    Gval -0.00000000 -0.00000000 -0.00000000 -0.00000000 -0.00000000 -0.00000000 -0.00000000 -0.00000000
    Gval -0.00000000 -0.00000000 -0.00000000 -0.00000000 -0.00000000 -0.00000000 -0.00000000 -0.00000000
    Gval -0.00000000 -0.00000000 -0.00000000 -0.00000000 -0.00000000 -0.00000000 -0.00000000 -0.00000000
    Gval -0.00000000 -0.00000000 -0.00000000 -0.00000000 -0.00000000 -0.00000000 -0.00000000  0.00000000
    Gval  0.00000000  0.00000000  0.00000000  0.00000000  0.00000000  0.00000000  0.00000000  0.00000000
    Gval  0.00000000  0.00000000  0.00000000  0.00000000  0.00000000  0.00000000  0.00000000  0.00000000
    Gval  0.00000000  0.00000000  0.00000000  0.00000000  0.00000000  0.00000000  0.00000000  0.00000000
    Gval  0.00000000  0.00000000  0.00000000  0.00000000  0.00000143  0.00000358  0.00000690  0.00000971
    Gval  0.00001726  0.00001810  0.00002228  0.00003155  0.00003479  0.00003510  0.00004268  0.00004465
    Gval  0.00004738  0.00004987  0.00005837  0.00006022  0.00007636  0.00008475  0.00009190  0.00011000
    Gval  0.00011013  0.00012238  0.00012455  0.00015022  0.00015200  0.00015546  0.00017321  0.00021472
    Gval  0.00023101  0.00025115  0.00029294  0.00030744  0.00031384  0.00031703  0.00035788  0.00038558
    Gval  0.00039737  0.00043658  0.00051637  0.00059316  0.00059659  0.00059742  0.00061833  0.00062188
    Gval  0.00062732  0.00064497  0.00065453  0.00066869  0.00085021  0.00105105  0.00108120  0.00111863
    Gval  0.00114533  0.00115753  0.00116813  0.00118337  0.00129181  0.00133842  0.00162641  0.00179611
    Gval  0.00210617  0.00268463  0.00353066  0.00354687  0.00394484  0.00400987
  1.431041228716935E-006  1.431041228716935E-006
  3.584948513555074E-006  1.431041228716935E-006
  6.903794856462989E-006  1.431041228716935E-006
  9.713305349161119E-006  1.431041228716935E-006
  1.725600511054317E-005  1.431041228716935E-006
  1.809837067579278E-005  1.431041228716935E-006
  2.228314756142604E-005  1.431041228716935E-006
  3.154939824746747E-005  1.431041228716935E-006
  3.479495799071653E-005  1.431041228716935E-006
  3.509853463881232E-005  1.431041228716935E-006
  4.268026184379322E-005  1.431041228716935E-006
  4.464758756125868E-005  1.431041228716935E-006
  4.738482588873088E-005  1.431041228716935E-006
  4.986871727488332E-005  1.431041228716935E-006
  5.837102696117439E-005  1.431041228716935E-006
  6.021669141994828E-005  1.431041228716935E-006
  7.636087977246893E-005  1.431041228716935E-006
  8.474521275349237E-005  1.431041228716935E-006
  9.189810285457953E-005  1.431041228716935E-006
  1.099989086228974E-004  1.431041228716935E-006
  1.101344779025028E-004  1.431041228716935E-006
  1.223754979356886E-004  1.431041228716935E-006
  1.245514287027561E-004  1.431041228716935E-006
  1.502152204062351E-004  1.431041228716935E-006
  1.519952432276764E-004  1.431041228716935E-006
  1.554620372628308E-004  1.431041228716935E-006
  1.732142202248910E-004  1.431041228716935E-006
  2.147158455591215E-004  1.431041228716935E-006
  2.310077249991451E-004  1.431041228716935E-006
  2.511526262734047E-004  1.431041228716935E-006
  2.929397359528095E-004  1.431041228716935E-006
  3.074407320882458E-004  1.431041228716935E-006
  3.138393997446633E-004  1.431041228716935E-006
  3.170304527488574E-004  1.431041228716935E-006
  3.578760417029742E-004  1.431041228716935E-006
  3.855803924786331E-004  1.431041228716935E-006
  3.973650612652649E-004  1.431041228716935E-006
  4.365804683761462E-004  1.431041228716935E-006
  5.163712784616876E-004  1.431041228716935E-006
  5.931616235170187E-004  1.431041228716935E-006
  5.965907050006707E-004  1.431041228716935E-006
  5.974210069346368E-004  1.431041228716935E-006
  6.183320118140652E-004  1.431041228716935E-006
  6.218769921433475E-004  1.431041228716935E-006
  6.273181193154439E-004  1.431041228716935E-006
  6.449685418035627E-004  1.431041228716935E-006
  6.545257925291388E-004  1.431041228716935E-006
  6.686850922390694E-004  1.431041228716935E-006
  8.502133230293839E-004  1.431041228716935E-006
  1.051045408067998E-003  1.431041228716935E-006
  1.081203072956193E-003  1.431041228716935E-006
  1.118633436046483E-003  1.431041228716935E-006
  1.145330857584288E-003  1.431041228716935E-006
  1.157531729584239E-003  1.431041228716935E-006
  1.168126519384741E-003  1.431041228716935E-006
  1.183371772836416E-003  1.431041228716935E-006
  1.291809732270215E-003  1.431041228716935E-006
  1.338423046497100E-003  1.431041228716935E-006
  1.626405266624168E-003  1.431041228716935E-006
  1.796114583537619E-003  1.431041228716935E-006
  2.106174141804315E-003  1.431041228716935E-006
  2.684628318536090E-003  1.431041228716935E-006
  3.530659251512221E-003  1.431041228716935E-006
  3.546874435004783E-003  1.431041228716935E-006
  3.944836938980578E-003  1.431041228716935E-006
  4.009865133953170E-003  1.431041228716935E-006
 cut=1d-8, nber non-redundant internal coords=          66
 Check on Eigenvals of non-red overlap matrix:
  0.00000143  0.00000358  0.00000690  0.00000971  0.00001726  0.00001810  0.00002228  0.00003155
  0.00003479  0.00003510  0.00004268  0.00004465  0.00004738  0.00004987  0.00005837  0.00006022
  0.00007636  0.00008475  0.00009190  0.00011000  0.00011013  0.00012238  0.00012455  0.00015022
  0.00015200  0.00015546  0.00017321  0.00021472  0.00023101  0.00025115  0.00029294  0.00030744
  0.00031384  0.00031703  0.00035788  0.00038558  0.00039737  0.00043658  0.00051637  0.00059316
  0.00059659  0.00059742  0.00061833  0.00062188  0.00062732  0.00064497  0.00065453  0.00066869
  0.00085021  0.00105105  0.00108120  0.00111863  0.00114533  0.00115753  0.00116813  0.00118337
  0.00129181  0.00133842  0.00162641  0.00179611  0.00210617  0.00268463  0.00353066  0.00354687
  0.00394484  0.00400987
 d1=
 -16.9  -7.9  -0.0   1.0  -0.5   1.3  -5.2  -1.1  -2.1  -0.5  -4.9  -0.1  -1.1  -0.5   1.4   4.0  -0.1   2.1  -1.9  -1.5
  -0.0   0.2   0.5   0.1  -0.2   3.1   1.8  -1.5  -3.5   0.1  -0.4  -5.0  -0.5  -0.0   2.1  -1.4   1.3   0.6  -0.0   0.1
   0.1   0.2  -0.5  -0.5   0.4   0.0   0.1   0.0   0.0   0.0  -0.2  -0.3   0.7  -0.1   0.1  -0.4   0.0  -0.0  -0.0  -0.0
   0.0   0.0  -0.0   0.0  -0.0  -0.0
 d2=
 -17.1   8.4   0.0   1.0  -0.5   1.2  -5.1  -0.9   2.1   0.1   4.6  -0.1   1.2   0.4  -1.9   3.7  -0.0  -2.1   2.0   0.0
  -1.5  -0.2   0.4  -0.1   0.5   3.2   1.6   2.0  -3.6   0.1  -0.5   4.9  -1.8   0.0   1.8  -1.3   1.0   0.6   0.0   0.1
   0.1  -0.2  -0.5  -0.5   0.4  -0.0   0.1  -0.0  -0.0   0.0  -0.1   0.3  -0.7  -0.1   0.1  -0.4  -0.0   0.0   0.0  -0.0
   0.0  -0.0   0.0   0.0   0.0   0.0
 curvilinear- renormalizn of Dush matrix done
  mol 1 sym            1  -> mol 2 sym            1

 Dushinsky matrix, ncs 2 in terms of ncs 1

   mode   freq    coeff     %      %tot     of    at

   1        -0.  0.0000     0.0     0.0   8        46.
   2        -0.  0.0000     0.0     0.0   7        24.
   3         0.  0.0000     0.0     0.0   7        24.
   4         0.  0.0000     0.0     0.0   7        24.
   5         0. -0.0000     0.0     0.0   8        46.
   6         0. -0.0000     0.0     0.0   8        46.
   7        40. -0.3184    10.1    99.8   7        24.
                 0.9474    89.8           8        46.
   8        53.  0.9380    88.0    99.1   7        24.
                 0.3251    10.6           8        46.
   9        68.  1.0000   100.0    99.0   9        70.
  10       107. -0.9830    96.6   100.3  10       121.
  11       181.  0.8098    65.6    99.2  11       190.
                 0.4688    22.0          12       203.
                 0.3477    12.1          14       236.
  12       188. -0.5111    26.1    97.1  11       190.
                 0.8436    71.2          12       203.
  13       215.  0.9018    81.3   100.4  14       236.
  14       215.  0.9984    99.7    98.8  13       217.
  15       244. -0.9988    99.8   101.3  15       242.
  16       274.  0.9652    93.2   102.2  16       318.
  17       369. -0.9989    99.8    98.7  17       374.
  18       394. -0.5081    25.8    97.2  19       435.
                 0.7974    63.6          21       460.
  19       413.  0.9963    99.3    99.8  18       419.
  20       431. -0.8441    71.2   101.8  19       435.
                -0.5253    27.6          21       460.
  21       441.  0.9984    99.7    99.7  20       459.
  22       461. -0.8701    75.7    99.4  23       509.
  23       498.  0.9917    98.3   100.0  22       509.
  24       502. -0.6133    37.6   102.3  28       626.
                 0.6054    36.7          31       709.
  25       540.  0.8679    75.3   104.8  24       560.
                 0.3405    11.6          27       616.
  26       553.  0.9754    95.1    98.5  25       563.
  27       572. -0.3407    11.6   101.5  24       560.
                 0.8465    71.6          27       616.
  28       576. -0.9246    85.5    99.9  26       598.
  29       605. -0.9499    90.2    98.6  29       635.
  30       623. -0.7101    50.4   101.2  28       626.
                -0.6166    38.0          31       709.
  31       661. -0.9874    97.5   100.4  30       686.
  32       704. -0.9928    98.6    99.8  32       716.
  33       714. -0.8448    71.4   100.1  33       737.
                -0.5028    25.3          35       772.
  34       734.  0.5260    27.7    99.9  33       737.
                -0.8180    66.9          35       772.
  35       739.  0.9912    98.3   100.1  34       763.
  36       741. -0.3458    12.0   100.1  38       867.
                 0.8767    76.9          39       867.
                 0.3219    10.4          40       881.
  37       773.  0.9877    97.5   100.6  36       801.
  38       828.  0.8901    79.2    99.4  38       867.
  39       829. -0.3594    12.9    98.5  39       867.
                 0.8759    76.7          40       881.
  40       843. -0.9896    97.9    98.6  37       856.
  41       884.  0.9122    83.2    99.2  42       951.
  42       892.  0.9903    98.1    99.8  41       907.
  43       935.  0.9872    97.5    99.4  43       965.
  44       937.  0.9584    91.8    99.1  44       990.
  45      1032.  0.9972    99.4   100.0  45      1038.
  46      1061. -0.9939    98.8    99.9  46      1078.
  47      1082. -0.9926    98.5    99.8  47      1109.
  48      1125.  0.9478    89.8    99.8  48      1144.
  49      1136.  0.8365    70.0    98.9  49      1166.
                 0.4562    20.8          51      1199.
  50      1147. -0.5113    26.1    99.3  49      1166.
                 0.8036    64.6          51      1199.
  51      1165. -0.9541    91.0    99.7  50      1184.
  52      1202. -0.9592    92.0    99.9  52      1211.
  53      1268. -0.9310    86.7   100.0  53      1275.
  54      1289. -0.5658    32.0    99.9  54      1313.
                -0.6965    48.5          56      1358.
  55      1330.  0.6439    41.5    99.9  54      1313.
                -0.5948    35.4          55      1343.
                -0.4075    16.6          56      1358.
  56      1361. -0.3370    11.4    99.8  54      1313.
                -0.6972    48.6          55      1343.
                 0.4253    18.1          56      1358.
  57      1381. -0.5749    33.0   100.0  57      1384.
                -0.5426    29.4          61      1498.
                -0.3506    12.3          62      1526.
  58      1415.  0.6874    47.2    99.6  57      1384.
                -0.5691    32.4          58      1454.
  59      1441.  0.3795    14.4    99.6  57      1384.
                 0.6280    39.4          58      1454.
                 0.4378    19.2          59      1462.
                -0.3862    14.9          61      1498.
  60      1463.  0.3265    10.7    99.8  58      1454.
                -0.8086    65.4          59      1462.
  61      1475.  0.5610    31.5    99.9  60      1487.
                -0.3228    10.4          61      1498.
                 0.6906    47.7          62      1526.
  62      1479. -0.7358    54.1    99.9  60      1487.
                -0.5350    28.6          61      1498.
                 0.3374    11.4          62      1526.
  63      1548.  0.8645    74.7   100.3  63      1547.
  64      1576.  0.9036    81.6    99.6  64      1596.
  65      1603.  0.9451    89.3   100.2  65      1636.
  66      3133.  0.9348    87.4   100.0  66      3169.
                 0.3246    10.5          67      3181.
  67      3149.  0.9260    85.8   100.0  67      3181.
  68      3166. -0.9737    94.8   100.0  68      3192.
  69      3175. -0.9913    98.3   100.0  69      3199.
  70      3183.  0.9893    97.9   100.0  70      3215.
  71      3228. -0.9989    99.8   100.0  71      3232.
  72      3241. -0.9884    97.7   100.0  72      3244.
 nber times 1st assigned=           1           0
 nber times 1st assigned=           2           0
 nber times 1st assigned=           3           0
 nber times 1st assigned=           4           0
 nber times 1st assigned=           5           0
 nber times 1st assigned=           6           0
 nber times 1st assigned=           7           3
 nber times 1st assigned=           8           3
 nber times 1st assigned=           9           0
 nber times 1st assigned=          10           0
 nber times 1st assigned=          11           0
 nber times 1st assigned=          12           0
 nber times 1st assigned=          13           0
 nber times 1st assigned=          14           0
 nber times 1st assigned=          15           0
 nber times 1st assigned=          16           0
 nber times 1st assigned=          17           0
 nber times 1st assigned=          18           0
 nber times 1st assigned=          19           0
 nber times 1st assigned=          20           0
 nber times 1st assigned=          21           0
 nber times 1st assigned=          22           0
 nber times 1st assigned=          23           0
 nber times 1st assigned=          24           0
 nber times 1st assigned=          25           0
 nber times 1st assigned=          26           0
 nber times 1st assigned=          27           0
 nber times 1st assigned=          28           0
 nber times 1st assigned=          29           0
 nber times 1st assigned=          30           0
 nber times 1st assigned=          31           0
 nber times 1st assigned=          32           0
 nber times 1st assigned=          33           0
 nber times 1st assigned=          34           0
 nber times 1st assigned=          35           0
 nber times 1st assigned=          36           0
 nber times 1st assigned=          37           0
 nber times 1st assigned=          38           0
 nber times 1st assigned=          39           0
 nber times 1st assigned=          40           0
 nber times 1st assigned=          41           0
 nber times 1st assigned=          42           0
 nber times 1st assigned=          43           0
 nber times 1st assigned=          44           0
 nber times 1st assigned=          45           0
 nber times 1st assigned=          46           0
 nber times 1st assigned=          47           0
 nber times 1st assigned=          48           0
 nber times 1st assigned=          49           0
 nber times 1st assigned=          50           0
 nber times 1st assigned=          51           0
 nber times 1st assigned=          52           0
 nber times 1st assigned=          53           0
 nber times 1st assigned=          54           0
 nber times 1st assigned=          55           0
 nber times 1st assigned=          56           0
 nber times 1st assigned=          57           0
 nber times 1st assigned=          58           0
 nber times 1st assigned=          59           0
 nber times 1st assigned=          60           0
 nber times 1st assigned=          61           0
 nber times 1st assigned=          62           0
 nber times 1st assigned=          63           0
 nber times 1st assigned=          64           0
 nber times 1st assigned=          65           0
 nber times 1st assigned=          66           0
 nber times 1st assigned=          67           0
 nber times 1st assigned=          68           0
 nber times 1st assigned=          69           0
 nber times 1st assigned=          70           0
 nber times 1st assigned=          71           0
 nber times 1st assigned=          72           0
 Dushinsky matrix written to .out file
 modes represented=   65.9148266221525     

 Dushinsky matrix, ncs 1 in terms of ncs 2

   mode   freq    coeff     %      %tot     of    at

   7        24. -0.3184    10.1   103.5   7        40.
                 0.9380    88.0           8        53.
   8        46.  0.9474    89.8   101.4   7        40.
                 0.3251    10.6           8        53.
   9        70.  1.0000   100.0    99.3   9        68.
  10       121. -0.9830    96.6   101.9  10       107.
  11       190.  0.8098    65.6    99.0  11       181.
                -0.5111    26.1          12       188.
  12       203.  0.4688    22.0    97.5  11       181.
                 0.8436    71.2          12       188.
  13       217.  0.9984    99.7    99.5  14       215.
  14       236.  0.3477    12.1   100.4  11       181.
                 0.9018    81.3          13       215.
  15       242. -0.9988    99.8   102.1  15       244.
  16       318.  0.9652    93.2   103.0  16       274.
  17       374. -0.9989    99.8    98.8  17       369.
  18       419.  0.9963    99.3   100.1  19       413.
  19       435. -0.5081    25.8   100.6  18       394.
                -0.8441    71.2          20       431.
  20       459.  0.9984    99.7    99.8  21       441.
  21       460.  0.7974    63.6    98.0  18       394.
                -0.5253    27.6          20       431.
  22       509.  0.9917    98.3   100.3  23       498.
  23       509. -0.8701    75.7    98.1  22       461.
  24       560.  0.8679    75.3   100.9  25       540.
                -0.3407    11.6          27       572.
  25       563.  0.9754    95.1    98.5  26       553.
  26       598. -0.9246    85.5    99.3  28       576.
  27       616.  0.3405    11.6   100.0  25       540.
                 0.8465    71.6          27       572.
  28       626. -0.6133    37.6   100.5  24       502.
                -0.7101    50.4          30       623.
  29       635. -0.9499    90.2    98.9  29       605.
  30       686. -0.9874    97.5   100.1  31       661.
  31       709.  0.6054    36.7   101.5  24       502.
                -0.6166    38.0          30       623.
  32       716. -0.9928    98.6    99.7  32       704.
  33       737. -0.8448    71.4    99.8  33       714.
                 0.5260    27.7          34       734.
  34       763.  0.9912    98.3   100.1  35       739.
  35       772. -0.5028    25.3    99.7  33       714.
                -0.8180    66.9          34       734.
  36       801.  0.9877    97.5   100.2  37       773.
  37       856. -0.9896    97.9    98.7  40       843.
  38       867. -0.3458    12.0    99.2  36       741.
                 0.8901    79.2          38       828.
  39       867.  0.8767    76.9    99.6  36       741.
                -0.3594    12.9          39       829.
  40       881.  0.3219    10.4    99.5  36       741.
                 0.8759    76.7          39       829.
  41       907.  0.9903    98.1    99.7  42       892.
  42       951.  0.9122    83.2    99.3  41       884.
  43       965.  0.9872    97.5    99.3  43       935.
  44       990.  0.9584    91.8    99.5  44       937.
  45      1038.  0.9972    99.4    99.9  45      1032.
  46      1078. -0.9939    98.8    99.8  46      1061.
  47      1109. -0.9926    98.5    99.8  47      1082.
  48      1144.  0.9478    89.8    99.9  48      1125.
  49      1166.  0.8365    70.0    99.5  49      1136.
                -0.5113    26.1          50      1147.
  50      1184. -0.9541    91.0    99.6  51      1165.
  51      1199.  0.4562    20.8    98.0  49      1136.
                 0.8036    64.6          50      1147.
  52      1211. -0.9592    92.0    99.7  52      1202.
  53      1275. -0.9310    86.7    99.7  53      1268.
  54      1313. -0.5658    32.0    99.6  54      1289.
                 0.6439    41.5          55      1330.
                -0.3370    11.4          56      1361.
  55      1343. -0.5948    35.4   100.0  55      1330.
                -0.6972    48.6          56      1361.
  56      1358. -0.6965    48.5    99.9  54      1289.
                -0.4075    16.6          55      1330.
                 0.4253    18.1          56      1361.
  57      1384. -0.5749    33.0    99.6  57      1381.
                 0.6874    47.2          58      1415.
                 0.3795    14.4          59      1441.
  58      1454. -0.5691    32.4    99.8  58      1415.
                 0.6280    39.4          59      1441.
                 0.3265    10.7          60      1463.
  59      1462.  0.4378    19.2    99.7  59      1441.
                -0.8086    65.4          60      1463.
  60      1487.  0.5610    31.5    99.8  61      1475.
                -0.7358    54.1          62      1479.
  61      1498. -0.5426    29.4   100.0  57      1381.
                -0.3862    14.9          59      1441.
                -0.3228    10.4          61      1475.
                -0.5350    28.6          62      1479.
  62      1526. -0.3506    12.3   100.0  57      1381.
                 0.6906    47.7          61      1475.
                 0.3374    11.4          62      1479.
  63      1547.  0.8645    74.7   100.1  63      1548.
  64      1596.  0.9036    81.6    99.5  64      1576.
  65      1636.  0.9451    89.3   100.1  65      1603.
  66      3169.  0.9348    87.4   100.0  66      3133.
  67      3181.  0.3246    10.5   100.0  66      3133.
                 0.9260    85.8          67      3149.
  68      3192. -0.9737    94.8   100.0  68      3166.
  69      3199. -0.9913    98.3   100.0  69      3175.
  70      3215.  0.9893    97.9   100.0  70      3183.
  71      3232. -0.9989    99.8   100.0  71      3228.
  72      3244. -0.9884    97.7   100.0  72      3241.
 nber times 1st assigned=           1           0
 nber times 1st assigned=           2           0
 nber times 1st assigned=           3           0
 nber times 1st assigned=           4           0
 nber times 1st assigned=           5           0
 nber times 1st assigned=           6           0
 nber times 1st assigned=           7           0
 nber times 1st assigned=           8           0
 nber times 1st assigned=           9           0
 nber times 1st assigned=          10           0
 nber times 1st assigned=          11           0
 nber times 1st assigned=          12           0
 nber times 1st assigned=          13           0
 nber times 1st assigned=          14           0
 nber times 1st assigned=          15           0
 nber times 1st assigned=          16           0
 nber times 1st assigned=          17           0
 nber times 1st assigned=          18           0
 nber times 1st assigned=          19           0
 nber times 1st assigned=          20           0
 nber times 1st assigned=          21           0
 nber times 1st assigned=          22           0
 nber times 1st assigned=          23           0
 nber times 1st assigned=          24           0
 nber times 1st assigned=          25           0
 nber times 1st assigned=          26           0
 nber times 1st assigned=          27           0
 nber times 1st assigned=          28           0
 nber times 1st assigned=          29           0
 nber times 1st assigned=          30           0
 nber times 1st assigned=          31           0
 nber times 1st assigned=          32           0
 nber times 1st assigned=          33           0
 nber times 1st assigned=          34           0
 nber times 1st assigned=          35           0
 nber times 1st assigned=          36           0
 nber times 1st assigned=          37           0
 nber times 1st assigned=          38           0
 nber times 1st assigned=          39           0
 nber times 1st assigned=          40           0
 nber times 1st assigned=          41           0
 nber times 1st assigned=          42           0
 nber times 1st assigned=          43           0
 nber times 1st assigned=          44           0
 nber times 1st assigned=          45           0
 nber times 1st assigned=          46           0
 nber times 1st assigned=          47           0
 nber times 1st assigned=          48           0
 nber times 1st assigned=          49           0
 nber times 1st assigned=          50           0
 nber times 1st assigned=          51           0
 nber times 1st assigned=          52           0
 nber times 1st assigned=          53           0
 nber times 1st assigned=          54           0
 nber times 1st assigned=          55           0
 nber times 1st assigned=          56           0
 nber times 1st assigned=          57           0
 nber times 1st assigned=          58           0
 nber times 1st assigned=          59           0
 nber times 1st assigned=          60           0
 nber times 1st assigned=          61           0
 nber times 1st assigned=          62           0
 nber times 1st assigned=          63           0
 nber times 1st assigned=          64           0
 nber times 1st assigned=          65           0
 nber times 1st assigned=          66           0
 nber times 1st assigned=          67           0
 nber times 1st assigned=          68           0
 nber times 1st assigned=          69           0
 nber times 1st assigned=          70           0
 nber times 1st assigned=          71           0
 nber times 1st assigned=          72           0
 modes represented=   65.9148266221525     
 p1=
   -0.   -0.   -0.    0.    0.    0.    1.    0.  -16.    0.   -0.    0.   -8.    0.    5.   -0.   -2.    0.   -0.   -4.
    0.   -4.   -0.   -0.    1.    1.   -0.    0.   -4.   -2.   -0.    2.   -0.    4.   -0.    0.    1.    0.    0.    0.
    1.   -0.    1.   -0.    1.   -1.    1.    1.    1.    0.    0.    1.   -1.    2.    0.    1.   -0.    3.   -1.    2.
   -0.    1.    6.    0.   -0.    0.    0.    0.   -0.   -0.   -0.   -0.
 p2=
   -0.   -0.   -0.   -0.    0.   -0.    0.   -1.   17.    0.    0.   -0.   -0.    8.    5.    0.   -2.   -0.   -1.    0.
    4.    0.    5.   -0.    0.   -2.    0.    1.   -4.    0.   -2.    1.    0.    0.   -4.    0.    0.   -0.   -0.    1.
   -0.   -1.   -1.    0.   -1.   -1.    1.   -0.    0.    1.    0.    0.   -0.    1.   -1.    1.    1.    1.   -1.   -1.
   -0.    1.   -6.   -2.   -1.   -0.    0.    0.   -0.    0.   -0.   -0.

 Displacement: in terms of nc of 1 THEN of nc of 2

   1     freq=    -0. Q= -0.000 lam=    -0.0     freq=    -0. Q= -0.000 lam=    -0.0
   2     freq=    -0. Q= -0.000 lam=    -0.0     freq=    -0. Q= -0.000 lam=    -0.0
   3     freq=    -0. Q= -0.000 lam=    -0.0     freq=     0. Q= -0.000 lam=     0.0
   4     freq=     0. Q=  0.000 lam=     0.0     freq=     0. Q=  0.000 lam=     0.0
   5     freq=     0. Q=  0.000 lam=     0.0     freq=     0. Q=  0.000 lam=     0.0
   6     freq=     0. Q=  0.000 lam=     0.0     freq=     0. Q=  0.000 lam=     0.0
   7     freq=    24. Q=  0.010 lam=     0.0     freq=    40. Q=  0.003 lam=     0.0
   8     freq=    46. Q=  0.001 lam=     0.0     freq=    53. Q=  0.016 lam=     0.0
   9     freq=    70. Q= -0.546 lam=    10.4     freq=    68. Q= -0.548 lam=    10.2
  10     freq=   121. Q=  0.001 lam=     0.0     freq=   107. Q=  0.004 lam=     0.0
  11     freq=   190. Q= -0.001 lam=     0.0     freq=   181. Q= -0.002 lam=     0.0
  12     freq=   203. Q=  0.000 lam=     0.0     freq=   188. Q=  0.002 lam=     0.0
  13     freq=   217. Q= -0.451 lam=    22.1     freq=   215. Q= -0.020 lam=     0.0
  14     freq=   236. Q=  0.002 lam=     0.0     freq=   215. Q=  0.484 lam=    25.1
  15     freq=   242. Q=  0.345 lam=    14.4     freq=   244. Q=  0.336 lam=    13.8
  16     freq=   318. Q= -0.000 lam=     0.0     freq=   274. Q= -0.000 lam=     0.0
  17     freq=   374. Q= -0.149 lam=     4.1     freq=   369. Q= -0.130 lam=     3.1
  18     freq=   419. Q=  0.041 lam=     0.3     freq=   394. Q=  0.001 lam=     0.0
  19     freq=   435. Q= -0.000 lam=     0.0     freq=   413. Q= -0.052 lam=     0.6
  20     freq=   459. Q= -0.350 lam=    28.2     freq=   431. Q= -0.001 lam=     0.0
  21     freq=   460. Q=  0.002 lam=     0.0     freq=   441. Q=  0.337 lam=    25.0
  22     freq=   509. Q= -0.401 lam=    40.9     freq=   461. Q= -0.002 lam=     0.0
  23     freq=   509. Q= -0.006 lam=     0.0     freq=   498. Q= -0.420 lam=    43.9
  24     freq=   560. Q= -0.001 lam=     0.0     freq=   502. Q= -0.000 lam=     0.0
  25     freq=   563. Q=  0.098 lam=     2.7     freq=   540. Q=  0.001 lam=     0.0
  26     freq=   598. Q=  0.064 lam=     1.2     freq=   553. Q=  0.151 lam=     6.3
  27     freq=   616. Q= -0.000 lam=     0.0     freq=   572. Q= -0.001 lam=     0.0
  28     freq=   626. Q=  0.000 lam=     0.0     freq=   576. Q=  0.144 lam=     6.0
  29     freq=   635. Q= -0.442 lam=    61.9     freq=   605. Q= -0.392 lam=    46.4
  30     freq=   686. Q= -0.243 lam=    20.3     freq=   623. Q= -0.000 lam=     0.0
  31     freq=   709. Q= -0.000 lam=     0.0     freq=   661. Q= -0.207 lam=    14.2
  32     freq=   716. Q=  0.197 lam=    13.8     freq=   704. Q=  0.145 lam=     7.4
  33     freq=   737. Q= -0.000 lam=     0.0     freq=   714. Q= -0.000 lam=     0.0
  34     freq=   763. Q=  0.431 lam=    70.7     freq=   734. Q=  0.000 lam=     0.0
  35     freq=   772. Q= -0.000 lam=     0.0     freq=   739. Q= -0.442 lam=    72.2
  36     freq=   801. Q=  0.031 lam=     0.4     freq=   741. Q=  0.001 lam=     0.0
  37     freq=   856. Q=  0.146 lam=     9.2     freq=   773. Q=  0.003 lam=     0.0
  38     freq=   867. Q=  0.000 lam=     0.0     freq=   828. Q=  0.000 lam=     0.0
  39     freq=   867. Q=  0.000 lam=     0.0     freq=   829. Q=  0.000 lam=     0.0
  40     freq=   881. Q=  0.000 lam=     0.0     freq=   843. Q=  0.145 lam=     8.9
  41     freq=   907. Q=  0.178 lam=    14.4     freq=   884. Q=  0.000 lam=     0.0
  42     freq=   951. Q= -0.000 lam=     0.0     freq=   892. Q= -0.159 lam=    11.2
  43     freq=   965. Q=  0.075 lam=     2.7     freq=   935. Q=  0.062 lam=     1.8
  44     freq=   990. Q= -0.000 lam=     0.0     freq=   937. Q= -0.000 lam=     0.0
  45     freq=  1038. Q=  0.085 lam=     3.8     freq=  1032. Q=  0.079 lam=     3.3
  46     freq=  1078. Q= -0.106 lam=     6.1     freq=  1061. Q= -0.077 lam=     3.1
  47     freq=  1109. Q=  0.145 lam=    11.6     freq=  1082. Q=  0.098 lam=     5.2
  48     freq=  1144. Q=  0.111 lam=     7.0     freq=  1125. Q=  0.033 lam=     0.6
  49     freq=  1166. Q=  0.203 lam=    24.0     freq=  1136. Q=  0.011 lam=     0.1
  50     freq=  1184. Q=  0.018 lam=     0.2     freq=  1147. Q=  0.175 lam=    17.5
  51     freq=  1199. Q=  0.061 lam=     2.2     freq=  1165. Q=  0.028 lam=     0.5
  52     freq=  1211. Q=  0.085 lam=     4.3     freq=  1202. Q=  0.040 lam=     1.0
  53     freq=  1275. Q= -0.124 lam=     9.8     freq=  1268. Q= -0.035 lam=     0.8
  54     freq=  1313. Q=  0.305 lam=    61.1     freq=  1289. Q=  0.129 lam=    10.6
  55     freq=  1343. Q=  0.067 lam=     3.0     freq=  1330. Q=  0.124 lam=    10.2
  56     freq=  1358. Q=  0.138 lam=    12.9     freq=  1361. Q=  0.097 lam=     6.4
  57     freq=  1384. Q= -0.015 lam=     0.2     freq=  1381. Q= -0.202 lam=    28.2
  58     freq=  1454. Q=  0.531 lam=   205.1     freq=  1415. Q=  0.219 lam=    34.0
  59     freq=  1462. Q= -0.114 lam=     9.5     freq=  1441. Q= -0.141 lam=    14.3
  60     freq=  1487. Q=  0.243 lam=    43.8     freq=  1463. Q=  0.165 lam=    20.0
  61     freq=  1498. Q= -0.035 lam=     0.9     freq=  1475. Q= -0.057 lam=     2.4
  62     freq=  1526. Q=  0.147 lam=    16.6     freq=  1479. Q=  0.209 lam=    32.4
  63     freq=  1547. Q=  0.940 lam=   684.0     freq=  1548. Q=  1.022 lam=   808.8
  64     freq=  1596. Q=  0.035 lam=     1.0     freq=  1576. Q=  0.289 lam=    66.0
  65     freq=  1636. Q= -0.022 lam=     0.4     freq=  1603. Q= -0.149 lam=    17.8
  66     freq=  3169. Q=  0.014 lam=     0.3     freq=  3133. Q=  0.017 lam=     0.4
  67     freq=  3181. Q=  0.004 lam=     0.0     freq=  3149. Q=  0.002 lam=     0.0
  68     freq=  3192. Q=  0.014 lam=     0.3     freq=  3166. Q=  0.013 lam=     0.3
  69     freq=  3199. Q= -0.022 lam=     0.8     freq=  3175. Q= -0.018 lam=     0.5
  70     freq=  3215. Q= -0.025 lam=     1.0     freq=  3183. Q= -0.022 lam=     0.8
  71     freq=  3232. Q= -0.018 lam=     0.5     freq=  3228. Q= -0.012 lam=     0.2
  72     freq=  3244. Q= -0.013 lam=     0.3     freq=  3241. Q= -0.014 lam=     0.3

 total reorg energy (cm**-1, kcal/mol)=     1428.     1382.      4.08      3.95
 Nber of molecules processed=           2
