 Enter ifcurve (0=recti, 1=orth curvi, 2=apprx curvi, -1 = skip
 And atom ordering flag, 0= never changes, 1= use the first order thenceforth,
  2= deduce it (does read on fail), 3= always read it
 Reading file: 
 ./Phenyls_4_C0S0.log                                                           
                                          
  Entering Gaussian System, Link 0=g16                                          
  
 Gaussian format, type: g94, g98, g03= F F F
  #P Geom=AllCheck Guess=TCheck SCRF=Check GenChk RB3LYP/6-311G(d,p) Fre    
 energy type= B3LYP   
 Original G94 input coords:
  6  0.000000  0.000000 12.308986
  6  0.000000  1.199050 11.601449
  6  0.000000  1.197667 10.210914
  6  0.000000  0.000000  9.474395
  6  0.000000 -1.197667 10.210914
  6  0.000000 -1.199050 11.601449
  6  0.000000  0.000000  7.984547
  6  0.000000 -1.189836  7.238452
  6  0.000000 -1.190160  5.851709
  6  0.000000  0.000000  5.105926
  6  0.000000  1.190160  5.851709
  6  0.000000  1.189836  7.238452
  6  0.000000  0.000000  3.620383
  6  0.000000 -1.190602  2.874778
  6  0.000000 -1.190625  1.488343
  6  0.000000  0.000000  0.742673
  6  0.000000  1.190625  1.488343
  6  0.000000  1.190602  2.874778
  6  0.000000  0.000000 -0.742673
  6  0.000000 -1.190625 -1.488343
  6  0.000000 -1.190602 -2.874778
  6  0.000000  0.000000 -3.620383
  6  0.000000  1.190602 -2.874778
  6  0.000000  1.190625 -1.488343
  6  0.000000  0.000000 -5.105926
  6  0.000000 -1.190160 -5.851709
  6  0.000000 -1.189836 -7.238452
  6  0.000000  0.000000 -7.984547
  6  0.000000  1.189836 -7.238452
  6  0.000000  1.190160 -5.851709
  6  0.000000  0.000000 -9.474395
  6  0.000000 -1.197667-10.210914
  6  0.000000 -1.199050-11.601449
  6  0.000000  0.000000-12.308986
  6  0.000000  1.199050-11.601449
  6  0.000000  1.197667-10.210914
  1  0.000000  0.000000 13.392809
  1  0.000000  2.144326 12.132963
  1  0.000000  2.152762  9.702045
  1  0.000000 -2.152762  9.702045
  1  0.000000 -2.144326 12.132963
  1  0.000000 -2.149139  7.738606
  1  0.000000 -2.148957  5.350350
  1  0.000000  2.148957  5.350350
  1  0.000000  2.149139  7.738606
  1  0.000000 -2.149059  3.376635
  1  0.000000 -2.149133  0.986602
  1  0.000000  2.149133  0.986602
  1  0.000000  2.149059  3.376635
  1  0.000000 -2.149133 -0.986602
  1  0.000000 -2.149059 -3.376635
  1  0.000000  2.149059 -3.376635
  1  0.000000  2.149133 -0.986602
  1  0.000000 -2.148957 -5.350350
  1  0.000000 -2.149139 -7.738606
  1  0.000000  2.149139 -7.738606
  1  0.000000  2.148957 -5.350350
  1  0.000000 -2.152762 -9.702045
  1  0.000000 -2.144326-12.132963
  1  0.000000  0.000000-13.392809
  1  0.000000  2.144326-12.132963
  1  0.000000  2.152762 -9.702045
 nber atoms=          62
  SCF Done:  E(RB3LYP) =  -1387.84279206     A.U. after    1 cycles             
  
          23          40 "  -1387.84279206"
After scan for Atom:   Atom  AN      X      Y      Z        X      Y      Z        X      Y      Z   
After scan for Atom:   Atom  AN      X      Y      Z        X      Y      Z        X      Y      Z   
After scan for Atom:   Atom  AN      X      Y      Z        X      Y      Z        X      Y      Z   
After scan for Atom:   Atom  AN      X      Y      Z        X      Y      Z        X      Y      Z   
After scan for Atom:   Atom  AN      X      Y      Z        X      Y      Z        X      Y      Z   
After scan for Atom:   Atom  AN      X      Y      Z        X      Y      Z        X      Y      Z   
After scan for Atom:   Atom  AN      X      Y      Z        X      Y      Z        X      Y      Z   
After scan for Atom:   Atom  AN      X      Y      Z        X      Y      Z        X      Y      Z   
After scan for Atom:   Atom  AN      X      Y      Z        X      Y      Z        X      Y      Z   
After scan for Atom:   Atom  AN      X      Y      Z        X      Y      Z        X      Y      Z   
After scan for Atom:   Atom  AN      X      Y      Z        X      Y      Z        X      Y      Z   
After scan for Atom:   Atom  AN      X      Y      Z        X      Y      Z        X      Y      Z   
After scan for Atom:   Atom  AN      X      Y      Z        X      Y      Z        X      Y      Z   
After scan for Atom:   Atom  AN      X      Y      Z        X      Y      Z        X      Y      Z   
After scan for Atom:   Atom  AN      X      Y      Z        X      Y      Z        X      Y      Z   
After scan for Atom:   Atom  AN      X      Y      Z        X      Y      Z        X      Y      Z   
After scan for Atom:   Atom  AN      X      Y      Z        X      Y      Z        X      Y      Z   
After scan for Atom:   Atom  AN      X      Y      Z        X      Y      Z        X      Y      Z   
After scan for Atom:   Atom  AN      X      Y      Z        X      Y      Z        X      Y      Z   
After scan for Atom:   Atom  AN      X      Y      Z        X      Y      Z        X      Y      Z   
After scan for Atom:   Atom  AN      X      Y      Z        X      Y      Z        X      Y      Z   
After scan for Atom:   Atom  AN      X      Y      Z        X      Y      Z        X      Y      Z   
After scan for Atom:   Atom  AN      X      Y      Z        X      Y      Z        X      Y      Z   
After scan for Atom:   Atom  AN      X      Y      Z        X      Y      Z        X      Y      Z   
After scan for Atom:   Atom  AN      X      Y      Z        X      Y      Z        X      Y      Z   
After scan for Atom:   Atom  AN      X      Y      Z        X      Y      Z        X      Y      Z   
After scan for Atom:   Atom  AN      X      Y      Z        X      Y      Z        X      Y      Z   
After scan for Atom:   Atom  AN      X      Y      Z        X      Y      Z        X      Y      Z   
After scan for Atom:   Atom  AN      X      Y      Z        X      Y      Z        X      Y      Z   
After scan for Atom:   Atom  AN      X      Y      Z        X      Y      Z        X      Y      Z   
After scan for Atom:   Atom  AN      X      Y      Z        X      Y      Z        X      Y      Z   
After scan for Atom:   Atom  AN      X      Y      Z        X      Y      Z        X      Y      Z   
After scan for Atom:   Atom  AN      X      Y      Z        X      Y      Z        X      Y      Z   
After scan for Atom:   Atom  AN      X      Y      Z        X      Y      Z        X      Y      Z   
After scan for Atom:   Atom  AN      X      Y      Z        X      Y      Z        X      Y      Z   
After scan for Atom:   Atom  AN      X      Y      Z        X      Y      Z        X      Y      Z   
After scan for Atom:   Atom  AN      X      Y      Z        X      Y      Z        X      Y      Z   
After scan for Atom:   Atom  AN      X      Y      Z        X      Y      Z        X      Y      Z   
After scan for Atom:   Atom  AN      X      Y      Z        X      Y      Z        X      Y      Z   
After scan for Atom:   Atom  AN      X      Y      Z        X      Y      Z        X      Y      Z   
After scan for Atom:   Atom  AN      X      Y      Z        X      Y      Z        X      Y      Z   
After scan for Atom:   Atom  AN      X      Y      Z        X      Y      Z        X      Y      Z   
After scan for Atom:   Atom  AN      X      Y      Z        X      Y      Z        X      Y      Z   
After scan for Atom:   Atom  AN      X      Y      Z        X      Y      Z        X      Y      Z   
After scan for Atom:   Atom  AN      X      Y      Z        X      Y      Z        X      Y      Z   
After scan for Atom:   Atom  AN      X      Y      Z        X      Y      Z        X      Y      Z   
After scan for Atom:   Atom  AN      X      Y      Z        X      Y      Z        X      Y      Z   
After scan for Atom:   Atom  AN      X      Y      Z        X      Y      Z        X      Y      Z   
After scan for Atom:   Atom  AN      X      Y      Z        X      Y      Z        X      Y      Z   
After scan for Atom:   Atom  AN      X      Y      Z        X      Y      Z        X      Y      Z   
After scan for Atom:   Atom  AN      X      Y      Z        X      Y      Z        X      Y      Z   
After scan for Atom:   Atom  AN      X      Y      Z        X      Y      Z        X      Y      Z   
After scan for Atom:   Atom  AN      X      Y      Z        X      Y      Z        X      Y      Z   
After scan for Atom:   Atom  AN      X      Y      Z        X      Y      Z        X      Y      Z   
After scan for Atom:   Atom  AN      X      Y      Z        X      Y      Z        X      Y      Z   
After scan for Atom:   Atom  AN      X      Y      Z        X      Y      Z        X      Y      Z   
After scan for Atom:   Atom  AN      X      Y      Z        X      Y      Z        X      Y      Z   
After scan for Atom:   Atom  AN      X      Y      Z        X      Y      Z        X      Y      Z   
After scan for Atom:   Atom  AN      X      Y      Z        X      Y      Z        X      Y      Z   
After scan for Atom:   Atom  AN      X      Y      Z        X      Y      Z        X      Y      Z   
 g94    frequencies=
     0.0    0.0    0.0    0.0    0.0    0.0 -105.4  -96.3  -79.9  -56.7
   -28.4    9.6   26.0   27.1   50.6   70.3   82.9  116.5  127.3  132.4
   157.6  189.6  212.7  229.7  243.6  266.2  321.6  336.5  349.2  376.4
   379.3  385.9  394.4  395.4  405.5  413.2  416.5  433.8  435.7  459.7
   466.7  485.5  488.7  517.8  528.0  551.1  554.5  557.4  626.7  631.4
   631.9  644.8  655.6  663.9  665.8  672.8  694.8  695.5  711.7  724.7
   724.8  729.4  745.3  754.3  778.4  783.5  790.5  796.4  804.3  815.7
   816.3  828.8  831.4  843.1  845.4  846.5  857.0  862.6  919.8  919.8
   932.0  943.7  945.7  951.2  956.0  958.3  964.1  965.8  974.3  974.8
   998.0  998.0 1011.8 1013.1 1014.5 1017.6 1019.6 1021.1 1022.5 1039.1
  1049.2 1059.9 1064.9 1065.4 1066.2 1111.7 1111.7 1150.0 1159.0 1169.4
  1178.9 1188.2 1188.9 1209.6 1211.5 1224.7 1242.6 1247.1 1252.9 1289.3
  1290.0 1290.9 1291.2 1295.4 1303.4 1304.8 1305.2 1314.7 1316.5 1318.3
  1346.0 1350.5 1355.0 1361.7 1370.3 1373.2 1434.8 1437.2 1441.1 1457.7
  1481.7 1484.4 1519.0 1524.0 1537.6 1554.2 1569.2 1576.3 1579.4 1590.5
  1603.5 1612.2 1623.4 1623.5 1632.1 1638.3 1643.5 1650.1 1657.2 1662.0
  3161.0 3161.0 3168.6 3168.6 3178.0 3179.0 3180.0 3181.4 3182.7 3185.2
  3185.2 3187.8 3189.3 3191.2 3193.3 3195.5 3198.8 3199.3 3203.0 3204.3
  3206.6 3208.5 3209.2 3211.1 3211.7 3214.0
 g94    symmetries=
                                                AU     B1     AU     B1
      AU     B3     B2     B2     B3     B3     B2     AG     B2     B3
      B2     B3     B3     B1     B2     B2     B3     AG     B3     B2
      AU     B1     B2     AU     B1     AU     B1     B1     B3     B3
      B2     B3     B2     AG     B3     B2     B2     B3     B1     B3
      B2     B3     B2     AG     B3     B2     B2     B3     B1     B2
      B3     B3     B2     AG     B3     B2     B1     AU     B1     AU
      AG     B1     B3     AU     B1     B2     B3     B2     B2     B3
      AU     B1     B2     B3     AU     B2     B3     B1     AU     B1
      B2     B3     B1     AG     B1     AG     B1     B1     AG     AG
      B1     AG     B1     AG     B1     B3     B2     B3     B2     B3
      B2     B3     B2     B1     AG     B1     AG     AG     B1     B1
      B2     AG     B3     B2     B3     AG     B1     B2     AG     B3
      B3     B2     B2     B3     B3     B2     B3     B2     B2     B3
      B2     B3     B1     AG     B1     AG     B1     B2     AG     B3
      B2     B3     B2     B3     AG     B1     AG     B1     AG     B1
      B1     AG     B3     B2     B1     B3     AG     B2     B1     AG
      B3     B1     B2     AG     B3     B1     B2     AG     B3     B1
      B2     AG     B3     B2     B1     AG
 atomic masses:
 12.0000 12.0000 12.0000 12.0000 12.0000 12.0000 12.0000 12.0000 12.0000 12.0000
 12.0000 12.0000 12.0000 12.0000 12.0000 12.0000 12.0000 12.0000 12.0000 12.0000
 12.0000 12.0000 12.0000 12.0000 12.0000 12.0000 12.0000 12.0000 12.0000 12.0000
 12.0000 12.0000 12.0000 12.0000 12.0000 12.0000  1.0078  1.0078  1.0078  1.0078
  1.0078  1.0078  1.0078  1.0078  1.0078  1.0078  1.0078  1.0078  1.0078  1.0078
  1.0078  1.0078  1.0078  1.0078  1.0078  1.0078  1.0078  1.0078  1.0078  1.0078
  1.0078  1.0078
 looking for force constants in 
 ./Phenyls_4_C0S0.fchk                                                          
  
 Cartesian Force Constants                  R   N=       17391                  
  
 n3=         186       17391
 g94-fc frequencies=
  -105.4  -96.3  -79.9  -56.7  -28.4   -0.0   -0.0    0.0    0.7    0.8
     5.5    9.6   26.0   27.1   50.6   70.3   82.9  116.5  127.3  132.4
   157.6  189.6  212.7  229.7  243.6  266.2  321.6  336.5  349.2  376.4
   379.3  385.9  394.4  395.4  405.5  413.2  416.5  433.8  435.7  459.7
   466.7  485.5  488.7  517.8  528.0  551.1  554.5  557.4  626.7  631.4
   631.9  644.8  655.6  663.9  665.8  672.8  694.8  695.5  711.7  724.8
   724.8  729.4  745.3  754.3  778.4  783.5  790.5  796.5  804.3  815.7
   816.4  828.8  831.5  843.1  845.4  846.5  857.1  862.6  919.8  919.8
   932.0  943.7  945.7  951.2  956.0  958.3  964.1  965.9  974.3  974.8
   998.0  998.0 1011.8 1013.1 1014.5 1017.6 1019.6 1021.2 1022.5 1039.1
  1049.2 1059.9 1064.9 1065.5 1066.2 1111.8 1111.8 1150.1 1159.0 1169.4
  1178.9 1188.3 1188.9 1209.6 1211.5 1224.7 1242.6 1247.1 1253.0 1289.3
  1290.0 1290.9 1291.3 1295.5 1303.5 1304.9 1305.2 1314.7 1316.5 1318.3
  1346.1 1350.5 1355.0 1361.8 1370.3 1373.2 1434.8 1437.3 1441.1 1457.7
  1481.8 1484.5 1519.0 1524.1 1537.6 1554.2 1569.2 1576.4 1579.4 1590.5
  1603.5 1612.2 1623.5 1623.5 1632.1 1638.3 1643.5 1650.1 1657.2 1662.1
  3161.1 3161.1 3168.7 3168.7 3178.1 3179.0 3180.1 3181.5 3182.8 3185.2
  3185.3 3187.8 3189.4 3191.3 3193.3 3195.6 3198.9 3199.4 3203.0 3204.4
  3206.7 3208.6 3209.3 3211.1 3211.7 3214.1
 at 99999: n3=         186
 symm operator            1 :  T  nop=           1
 symm operator            2 :  T  nop=           2
 symm operator            3 :  T  nop=           3
 symm operator            4 :  T  nop=           4
 symm operator            5 :  T  nop=           5
 symm operator            6 :  T  nop=           6
 symm operator            7 :  T  nop=           7
 The point group of the molecule is D2H
 enforcing symm op           1  jsymt=          -1          -1           1
 enforcing symm op           2  jsymt=          -1           1          -1
 enforcing symm op           3  jsymt=           1          -1          -1
 enforcing symm op           4  jsymt=          -1          -1          -1
 enforcing symm op           5  jsymt=           1           1          -1
 enforcing symm op           6  jsymt=           1          -1           1
 enforcing symm op           7  jsymt=          -1           1           1
 cartesian coord symmetries:
 Ag :   31 Au :   12 B1g:   12 B1u:   31 B2g:   19 B2u:   31 B3g:   31 B3u:   19
 Symmetry rotation matrix:
   1.00000   0.00000   0.00000
   0.00000   1.00000   0.00000
   0.00000   0.00000   1.00000

 Projecting out zero-frequency components
 generating redundant internal coords
         300        3600          62
 search for int coords
   1 str   2   1   1.392
   2 str   3   2   1.391
   3 str   4   3   1.406
   4 str   5   4   1.406
   5 str   6   1   1.392
   6 str   6   5   1.391
   7 str   7   4   1.490
   8 str   8   7   1.404
   9 str   9   8   1.387
  10 str  10   9   1.405
  11 str  11  10   1.405
  12 str  12   7   1.404
  13 str  12  11   1.387
  14 str  13  10   1.486
  15 str  14  13   1.405
  16 str  15  14   1.386
  17 str  16  15   1.405
  18 str  17  16   1.405
  19 str  18  13   1.405
  20 str  18  17   1.386
  21 str  19  16   1.485
  22 str  20  19   1.405
  23 str  21  20   1.386
  24 str  22  21   1.405
  25 str  23  22   1.405
  26 str  24  19   1.405
  27 str  24  23   1.386
  28 str  25  22   1.486
  29 str  26  25   1.405
  30 str  27  26   1.387
  31 str  28  27   1.404
  32 str  29  28   1.404
  33 str  30  25   1.405
  34 str  30  29   1.387
  35 str  31  28   1.490
  36 str  32  31   1.406
  37 str  33  32   1.391
  38 str  34  33   1.392
  39 str  35  34   1.392
  40 str  36  31   1.406
  41 str  36  35   1.391
  42 str  37   1   1.084
  43 str  38   2   1.084
  44 str  39   3   1.082
  45 str  40   5   1.082
  46 str  41   6   1.084
  47 str  42   8   1.082
  48 str  43   9   1.082
  49 str  44  11   1.082
  50 str  45  12   1.082
  51 str  46  14   1.082
  52 str  47  15   1.082
  53 str  48  17   1.082
  54 str  49  18   1.082
  55 str  50  20   1.082
  56 str  51  21   1.082
  57 str  52  23   1.082
  58 str  53  24   1.082
  59 str  54  26   1.082
  60 str  55  27   1.082
  61 str  56  29   1.082
  62 str  57  30   1.082
  63 str  58  32   1.082
  64 str  59  33   1.084
  65 str  60  34   1.084
  66 str  61  35   1.084
  67 str  62  36   1.082
 nber stretches=          67
  68 ben   1   2   3
  69 prop tor   1   2   3   4
  70 prop tor   1   2   3  39
  71 ben   1   2  38
  72 ben   1   6   5
  73 ben   1   6  41
  74 ben   2   1   6
  75 prop tor   2   1   6   5
  76 prop tor   2   1   6  41
  77 ben   2   1  37
  78 ben   2   3   4
  79 prop tor   2   3   4   5
  80 prop tor   2   3   4   7
  81 ben   2   3  39
  82 ben   3   2  38
  83 ben   3   4   5
  84 prop tor   3   4   5   6
  85 prop tor   3   4   5  40
  86 ben   3   4   7
  87 prop tor   3   4   7   8
  88 prop tor   3   4   7  12
  89 ben   4   3  39
  90 ben   4   5   6
  91 prop tor   4   5   6   1
  92 prop tor   4   5   6  41
  93 ben   4   5  40
  94 ben   4   7   8
  95 prop tor   4   7   8   9
  96 prop tor   4   7   8  42
  97 ben   4   7  12
  98 prop tor   4   7  12  11
  99 prop tor   4   7  12  45
 100 ben   5   4   7
 101 prop tor   5   4   7   8
 102 prop tor   5   4   7  12
 103 ben   5   6  41
 104 prop tor   6   1   2   3
 105 prop tor   6   1   2  38
 106 ben   6   1  37
 107 ben   6   5  40
 108 prop tor   7   4   5   6
 109 prop tor   7   4   5  40
 110 ben   7   8   9
 111 prop tor   7   8   9  10
 112 prop tor   7   8   9  43
 113 ben   7   8  42
 114 ben   7  12  11
 115 ben   7  12  45
 116 ben   8   7  12
 117 prop tor   8   7  12  11
 118 prop tor   8   7  12  45
 119 ben   8   9  10
 120 prop tor   8   9  10  11
 121 prop tor   8   9  10  13
 122 ben   8   9  43
 123 ben   9   8  42
 124 ben   9  10  11
 125 prop tor   9  10  11  12
 126 prop tor   9  10  11  44
 127 ben   9  10  13
 128 prop tor   9  10  13  14
 129 prop tor   9  10  13  18
 130 ben  10   9  43
 131 ben  10  11  12
 132 prop tor  10  11  12   7
 133 prop tor  10  11  12  45
 134 ben  10  11  44
 135 ben  10  13  14
 136 prop tor  10  13  14  15
 137 prop tor  10  13  14  46
 138 ben  10  13  18
 139 prop tor  10  13  18  17
 140 prop tor  10  13  18  49
 141 ben  11  10  13
 142 prop tor  11  10  13  14
 143 prop tor  11  10  13  18
 144 ben  11  12  45
 145 prop tor  12   7   8   9
 146 prop tor  12   7   8  42
 147 ben  12  11  44
 148 prop tor  13  10  11  12
 149 prop tor  13  10  11  44
 150 ben  13  14  15
 151 prop tor  13  14  15  16
 152 prop tor  13  14  15  47
 153 ben  13  14  46
 154 ben  13  18  17
 155 ben  13  18  49
 156 ben  14  13  18
 157 prop tor  14  13  18  17
 158 prop tor  14  13  18  49
 159 ben  14  15  16
 160 prop tor  14  15  16  17
 161 prop tor  14  15  16  19
 162 ben  14  15  47
 163 ben  15  14  46
 164 ben  15  16  17
 165 prop tor  15  16  17  18
 166 prop tor  15  16  17  48
 167 ben  15  16  19
 168 prop tor  15  16  19  20
 169 prop tor  15  16  19  24
 170 ben  16  15  47
 171 ben  16  17  18
 172 prop tor  16  17  18  13
 173 prop tor  16  17  18  49
 174 ben  16  17  48
 175 ben  16  19  20
 176 prop tor  16  19  20  21
 177 prop tor  16  19  20  50
 178 ben  16  19  24
 179 prop tor  16  19  24  23
 180 prop tor  16  19  24  53
 181 ben  17  16  19
 182 prop tor  17  16  19  20
 183 prop tor  17  16  19  24
 184 ben  17  18  49
 185 prop tor  18  13  14  15
 186 prop tor  18  13  14  46
 187 ben  18  17  48
 188 prop tor  19  16  17  18
 189 prop tor  19  16  17  48
 190 ben  19  20  21
 191 prop tor  19  20  21  22
 192 prop tor  19  20  21  51
 193 ben  19  20  50
 194 ben  19  24  23
 195 ben  19  24  53
 196 ben  20  19  24
 197 prop tor  20  19  24  23
 198 prop tor  20  19  24  53
 199 ben  20  21  22
 200 prop tor  20  21  22  23
 201 prop tor  20  21  22  25
 202 ben  20  21  51
 203 ben  21  20  50
 204 ben  21  22  23
 205 prop tor  21  22  23  24
 206 prop tor  21  22  23  52
 207 ben  21  22  25
 208 prop tor  21  22  25  26
 209 prop tor  21  22  25  30
 210 ben  22  21  51
 211 ben  22  23  24
 212 prop tor  22  23  24  19
 213 prop tor  22  23  24  53
 214 ben  22  23  52
 215 ben  22  25  26
 216 prop tor  22  25  26  27
 217 prop tor  22  25  26  54
 218 ben  22  25  30
 219 prop tor  22  25  30  29
 220 prop tor  22  25  30  57
 221 ben  23  22  25
 222 prop tor  23  22  25  26
 223 prop tor  23  22  25  30
 224 ben  23  24  53
 225 prop tor  24  19  20  21
 226 prop tor  24  19  20  50
 227 ben  24  23  52
 228 prop tor  25  22  23  24
 229 prop tor  25  22  23  52
 230 ben  25  26  27
 231 prop tor  25  26  27  28
 232 prop tor  25  26  27  55
 233 ben  25  26  54
 234 ben  25  30  29
 235 ben  25  30  57
 236 ben  26  25  30
 237 prop tor  26  25  30  29
 238 prop tor  26  25  30  57
 239 ben  26  27  28
 240 prop tor  26  27  28  29
 241 prop tor  26  27  28  31
 242 ben  26  27  55
 243 ben  27  26  54
 244 ben  27  28  29
 245 prop tor  27  28  29  30
 246 prop tor  27  28  29  56
 247 ben  27  28  31
 248 prop tor  27  28  31  32
 249 prop tor  27  28  31  36
 250 ben  28  27  55
 251 ben  28  29  30
 252 prop tor  28  29  30  25
 253 prop tor  28  29  30  57
 254 ben  28  29  56
 255 ben  28  31  32
 256 prop tor  28  31  32  33
 257 prop tor  28  31  32  58
 258 ben  28  31  36
 259 prop tor  28  31  36  35
 260 prop tor  28  31  36  62
 261 ben  29  28  31
 262 prop tor  29  28  31  32
 263 prop tor  29  28  31  36
 264 ben  29  30  57
 265 prop tor  30  25  26  27
 266 prop tor  30  25  26  54
 267 ben  30  29  56
 268 prop tor  31  28  29  30
 269 prop tor  31  28  29  56
 270 ben  31  32  33
 271 prop tor  31  32  33  34
 272 prop tor  31  32  33  59
 273 ben  31  32  58
 274 ben  31  36  35
 275 ben  31  36  62
 276 ben  32  31  36
 277 prop tor  32  31  36  35
 278 prop tor  32  31  36  62
 279 ben  32  33  34
 280 prop tor  32  33  34  35
 281 prop tor  32  33  34  60
 282 ben  32  33  59
 283 ben  33  32  58
 284 ben  33  34  35
 285 prop tor  33  34  35  36
 286 prop tor  33  34  35  61
 287 ben  33  34  60
 288 ben  34  33  59
 289 ben  34  35  36
 290 prop tor  34  35  36  31
 291 prop tor  34  35  36  62
 292 ben  34  35  61
 293 ben  35  34  60
 294 ben  35  36  62
 295 prop tor  36  31  32  33
 296 prop tor  36  31  32  58
 297 ben  36  35  61
 298 prop tor  37   1   2   3
 299 prop tor  37   1   2  38
 300 prop tor  37   1   6   5
 301 prop tor  37   1   6  41
 302 prop tor  38   2   3   4
 303 prop tor  38   2   3  39
 304 prop tor  39   3   4   5
 305 prop tor  39   3   4   7
 306 prop tor  40   5   6   1
 307 prop tor  40   5   6  41
 308 prop tor  42   8   9  10
 309 prop tor  42   8   9  43
 310 prop tor  43   9  10  11
 311 prop tor  43   9  10  13
 312 prop tor  44  11  12   7
 313 prop tor  44  11  12  45
 314 prop tor  46  14  15  16
 315 prop tor  46  14  15  47
 316 prop tor  47  15  16  17
 317 prop tor  47  15  16  19
 318 prop tor  48  17  18  13
 319 prop tor  48  17  18  49
 320 prop tor  50  20  21  22
 321 prop tor  50  20  21  51
 322 prop tor  51  21  22  23
 323 prop tor  51  21  22  25
 324 prop tor  52  23  24  19
 325 prop tor  52  23  24  53
 326 prop tor  54  26  27  28
 327 prop tor  54  26  27  55
 328 prop tor  55  27  28  29
 329 prop tor  55  27  28  31
 330 prop tor  56  29  30  25
 331 prop tor  56  29  30  57
 332 prop tor  58  32  33  34
 333 prop tor  58  32  33  59
 334 prop tor  59  33  34  35
 335 prop tor  59  33  34  60
 336 prop tor  60  34  35  36
 337 prop tor  60  34  35  61
 338 prop tor  61  35  36  31
 339 prop tor  61  35  36  62
 nber bend=             108
 nber lin bend=           0
 nber prop tor=         164
 nber impr tor=           0
 nber tot redund int=         339
 Eigenvalues of G in red int coords
    Gval -0.00000000 -0.00000000 -0.00000000 -0.00000000 -0.00000000 -0.00000000 -0.00000000 -0.00000000
    Gval -0.00000000 -0.00000000 -0.00000000 -0.00000000 -0.00000000 -0.00000000 -0.00000000 -0.00000000
    Gval -0.00000000 -0.00000000 -0.00000000 -0.00000000 -0.00000000 -0.00000000 -0.00000000 -0.00000000
    Gval -0.00000000 -0.00000000 -0.00000000 -0.00000000 -0.00000000 -0.00000000 -0.00000000 -0.00000000
    Gval -0.00000000 -0.00000000 -0.00000000 -0.00000000 -0.00000000 -0.00000000 -0.00000000 -0.00000000
    Gval -0.00000000 -0.00000000 -0.00000000 -0.00000000 -0.00000000 -0.00000000 -0.00000000 -0.00000000
    Gval -0.00000000 -0.00000000 -0.00000000 -0.00000000 -0.00000000 -0.00000000 -0.00000000 -0.00000000
    Gval -0.00000000 -0.00000000 -0.00000000 -0.00000000 -0.00000000 -0.00000000 -0.00000000 -0.00000000
    Gval -0.00000000 -0.00000000 -0.00000000 -0.00000000 -0.00000000 -0.00000000 -0.00000000 -0.00000000
    Gval -0.00000000 -0.00000000 -0.00000000 -0.00000000 -0.00000000  0.00000000  0.00000000  0.00000000
    Gval  0.00000000  0.00000000  0.00000000  0.00000000  0.00000000  0.00000000  0.00000000  0.00000000
    Gval  0.00000000  0.00000000  0.00000000  0.00000000  0.00000000  0.00000000  0.00000000  0.00000000
    Gval  0.00000000  0.00000000  0.00000000  0.00000000  0.00000000  0.00000000  0.00000000  0.00000000
    Gval  0.00000000  0.00000000  0.00000000  0.00000000  0.00000000  0.00000000  0.00000000  0.00000000
    Gval  0.00000000  0.00000000  0.00000000  0.00000000  0.00000000  0.00000000  0.00000000  0.00000000
    Gval  0.00000000  0.00000000  0.00000000  0.00000000  0.00000000  0.00000000  0.00000000  0.00000000
    Gval  0.00000000  0.00000000  0.00000000  0.00000000  0.00000000  0.00000000  0.00000000  0.00000000
    Gval  0.00000000  0.00000000  0.00000000  0.00000000  0.00000000  0.00000000  0.00000000  0.00000000
    Gval  0.00000000  0.00000000  0.00000000  0.00000000  0.00000000  0.00000000  0.00000000  0.00000000
    Gval  0.00000000  0.00000000  0.00000000  0.00000000  0.00000000  0.00000000  0.00000000  0.00000010
    Gval  0.00000038  0.00000070  0.00000093  0.00000233  0.00000289  0.00000362  0.00000540  0.00000569
    Gval  0.00000777  0.00000973  0.00001089  0.00001282  0.00001763  0.00001873  0.00002179  0.00002479
    Gval  0.00002880  0.00002910  0.00003043  0.00003076  0.00004291  0.00004448  0.00004534  0.00004756
    Gval  0.00004958  0.00005058  0.00005103  0.00005805  0.00005806  0.00005864  0.00005874  0.00006198
    Gval  0.00006220  0.00006761  0.00006791  0.00007097  0.00007117  0.00007461  0.00008171  0.00008620
    Gval  0.00009195  0.00009928  0.00010013  0.00010288  0.00010647  0.00011052  0.00011716  0.00011719
    Gval  0.00011834  0.00011945  0.00012050  0.00012265  0.00012356  0.00012530  0.00013027  0.00013676
    Gval  0.00015942  0.00017181  0.00018997  0.00022091  0.00025054  0.00025818  0.00026098  0.00026229
    Gval  0.00027168  0.00027563  0.00028368  0.00029154  0.00029729  0.00030974  0.00035959  0.00036079
    Gval  0.00036201  0.00037292  0.00038245  0.00038933  0.00038992  0.00039457  0.00040300  0.00041735
    Gval  0.00042895  0.00043631  0.00047573  0.00053347  0.00053625  0.00056588  0.00059307  0.00059307
    Gval  0.00059343  0.00059343  0.00059546  0.00059594  0.00059675  0.00059791  0.00059908  0.00059965
    Gval  0.00059971  0.00059980  0.00059988  0.00060405  0.00060405  0.00062283  0.00062307  0.00062329
    Gval  0.00063088  0.00063584  0.00063651  0.00064140  0.00064225  0.00064647  0.00064839  0.00064950
    Gval  0.00065091  0.00065209  0.00066106  0.00066106  0.00071602  0.00083716  0.00094578  0.00103850
    Gval  0.00104120  0.00104120  0.00107709  0.00107892  0.00108112  0.00108286  0.00110563  0.00110906
    Gval  0.00110952  0.00111021  0.00111107  0.00111191  0.00111249  0.00113844  0.00113844  0.00115053
    Gval  0.00115080  0.00115124  0.00115164  0.00116777  0.00116812  0.00116872  0.00116933  0.00116974
    Gval  0.00116979  0.00117300  0.00117300  0.00143039  0.00143060  0.00154634  0.00158988  0.00167017
    Gval  0.00178317  0.00191484  0.00199057  0.00232539  0.00234430  0.00234622  0.00235122  0.00235872
    Gval  0.00236627  0.00237132  0.00248312  0.00263495  0.00275343  0.00314089  0.00314164  0.00352928
    Gval  0.00357662  0.00362508  0.00365950  0.00366129  0.00366677  0.00367520  0.00368328  0.00370696
    Gval  0.00370698  0.00406635  0.00406635
  1.030550492998127E-007  1.030550492998127E-007
  3.806147225573874E-007  1.030550492998127E-007
  6.982979906487106E-007  1.030550492998127E-007
  9.275330730644734E-007  1.030550492998127E-007
  2.329649833169268E-006  1.030550492998127E-007
  2.885834298312117E-006  1.030550492998127E-007
  3.617030140253893E-006  1.030550492998127E-007
  5.398557446813417E-006  1.030550492998127E-007
  5.690535310224480E-006  1.030550492998127E-007
  7.773720995751687E-006  1.030550492998127E-007
  9.734717495514274E-006  1.030550492998127E-007
  1.088664388261231E-005  1.030550492998127E-007
  1.282447137256735E-005  1.030550492998127E-007
  1.762892791967006E-005  1.030550492998127E-007
  1.873136223457842E-005  1.030550492998127E-007
  2.179016171134812E-005  1.030550492998127E-007
  2.478711438617039E-005  1.030550492998127E-007
  2.880081677644481E-005  1.030550492998127E-007
  2.909693424735832E-005  1.030550492998127E-007
  3.043324564413533E-005  1.030550492998127E-007
  3.076100397381973E-005  1.030550492998127E-007
  4.290744379308330E-005  1.030550492998127E-007
  4.448192734130783E-005  1.030550492998127E-007
  4.534022842841578E-005  1.030550492998127E-007
  4.756362889176704E-005  1.030550492998127E-007
  4.958316933572812E-005  1.030550492998127E-007
  5.058231674123326E-005  1.030550492998127E-007
  5.102703635682225E-005  1.030550492998127E-007
  5.805247384746707E-005  1.030550492998127E-007
  5.806085380579621E-005  1.030550492998127E-007
  5.863567039409871E-005  1.030550492998127E-007
  5.873591142082242E-005  1.030550492998127E-007
  6.197525453889688E-005  1.030550492998127E-007
  6.220112423532007E-005  1.030550492998127E-007
  6.760699062096883E-005  1.030550492998127E-007
  6.790650622443544E-005  1.030550492998127E-007
  7.096844045814941E-005  1.030550492998127E-007
  7.117127911986149E-005  1.030550492998127E-007
  7.460500922366856E-005  1.030550492998127E-007
  8.171065252979725E-005  1.030550492998127E-007
  8.619795119379681E-005  1.030550492998127E-007
  9.195245538301818E-005  1.030550492998127E-007
  9.927910094125607E-005  1.030550492998127E-007
  1.001294365980843E-004  1.030550492998127E-007
  1.028785152665864E-004  1.030550492998127E-007
  1.064693533208308E-004  1.030550492998127E-007
  1.105210409332528E-004  1.030550492998127E-007
  1.171636638429303E-004  1.030550492998127E-007
  1.171903067255708E-004  1.030550492998127E-007
  1.183370389201991E-004  1.030550492998127E-007
  1.194482244555305E-004  1.030550492998127E-007
  1.205041315684656E-004  1.030550492998127E-007
  1.226501454403208E-004  1.030550492998127E-007
  1.235575996506277E-004  1.030550492998127E-007
  1.252979117283470E-004  1.030550492998127E-007
  1.302732403313654E-004  1.030550492998127E-007
  1.367569272449301E-004  1.030550492998127E-007
  1.594198008621989E-004  1.030550492998127E-007
  1.718064596210440E-004  1.030550492998127E-007
  1.899726608907472E-004  1.030550492998127E-007
  2.209065099482099E-004  1.030550492998127E-007
  2.505414692884787E-004  1.030550492998127E-007
  2.581757629071894E-004  1.030550492998127E-007
  2.609753964287916E-004  1.030550492998127E-007
  2.622881472815909E-004  1.030550492998127E-007
  2.716813074401401E-004  1.030550492998127E-007
  2.756313219074090E-004  1.030550492998127E-007
  2.836756665075497E-004  1.030550492998127E-007
  2.915402661582063E-004  1.030550492998127E-007
  2.972935527500185E-004  1.030550492998127E-007
  3.097409753206972E-004  1.030550492998127E-007
  3.595943722664076E-004  1.030550492998127E-007
  3.607949339063678E-004  1.030550492998127E-007
  3.620093092858984E-004  1.030550492998127E-007
  3.729185295464534E-004  1.030550492998127E-007
  3.824513870335735E-004  1.030550492998127E-007
  3.893270010761252E-004  1.030550492998127E-007
  3.899173471257969E-004  1.030550492998127E-007
  3.945709548145727E-004  1.030550492998127E-007
  4.029953575138441E-004  1.030550492998127E-007
  4.173477243499108E-004  1.030550492998127E-007
  4.289547879355339E-004  1.030550492998127E-007
  4.363130156009779E-004  1.030550492998127E-007
  4.757310541600800E-004  1.030550492998127E-007
  5.334711821569674E-004  1.030550492998127E-007
  5.362501996187319E-004  1.030550492998127E-007
  5.658848436793461E-004  1.030550492998127E-007
  5.930744730267781E-004  1.030550492998127E-007
  5.930744730267809E-004  1.030550492998127E-007
  5.934259768921917E-004  1.030550492998127E-007
  5.934264222977991E-004  1.030550492998127E-007
  5.954605698841591E-004  1.030550492998127E-007
  5.959356647453921E-004  1.030550492998127E-007
  5.967484442727472E-004  1.030550492998127E-007
  5.979142423793974E-004  1.030550492998127E-007
  5.990767003157369E-004  1.030550492998127E-007
  5.996488077926136E-004  1.030550492998127E-007
  5.997121779604479E-004  1.030550492998127E-007
  5.998002805003068E-004  1.030550492998127E-007
  5.998794836671755E-004  1.030550492998127E-007
  6.040542649283563E-004  1.030550492998127E-007
  6.040542656989049E-004  1.030550492998127E-007
  6.228312696479931E-004  1.030550492998127E-007
  6.230707148038554E-004  1.030550492998127E-007
  6.232856588103237E-004  1.030550492998127E-007
  6.308764416215255E-004  1.030550492998127E-007
  6.358413696415004E-004  1.030550492998127E-007
  6.365127553746335E-004  1.030550492998127E-007
  6.413961996167524E-004  1.030550492998127E-007
  6.422466720812985E-004  1.030550492998127E-007
  6.464684113613060E-004  1.030550492998127E-007
  6.483873372295685E-004  1.030550492998127E-007
  6.495010188978677E-004  1.030550492998127E-007
  6.509106276125219E-004  1.030550492998127E-007
  6.520909584379464E-004  1.030550492998127E-007
  6.610631049302467E-004  1.030550492998127E-007
  6.610633779335890E-004  1.030550492998127E-007
  7.160216359256476E-004  1.030550492998127E-007
  8.371557555175859E-004  1.030550492998127E-007
  9.457781750861120E-004  1.030550492998127E-007
  1.038497893725981E-003  1.030550492998127E-007
  1.041195690305347E-003  1.030550492998127E-007
  1.041195710420944E-003  1.030550492998127E-007
  1.077087877772516E-003  1.030550492998127E-007
  1.078919914031861E-003  1.030550492998127E-007
  1.081123066443553E-003  1.030550492998127E-007
  1.082857693008901E-003  1.030550492998127E-007
  1.105633714885739E-003  1.030550492998127E-007
  1.109063258979730E-003  1.030550492998127E-007
  1.109515650753679E-003  1.030550492998127E-007
  1.110205665905988E-003  1.030550492998127E-007
  1.111067841092830E-003  1.030550492998127E-007
  1.111911267317430E-003  1.030550492998127E-007
  1.112490300330085E-003  1.030550492998127E-007
  1.138443985546157E-003  1.030550492998127E-007
  1.138443996536911E-003  1.030550492998127E-007
  1.150526193170783E-003  1.030550492998127E-007
  1.150801396362894E-003  1.030550492998127E-007
  1.151235707080216E-003  1.030550492998127E-007
  1.151639283377443E-003  1.030550492998127E-007
  1.167772400458474E-003  1.030550492998127E-007
  1.168119002457180E-003  1.030550492998127E-007
  1.168718562333121E-003  1.030550492998127E-007
  1.169326191483707E-003  1.030550492998127E-007
  1.169740021742080E-003  1.030550492998127E-007
  1.169792581037125E-003  1.030550492998127E-007
  1.173002242729072E-003  1.030550492998127E-007
  1.173002242729072E-003  1.030550492998127E-007
  1.430391227132717E-003  1.030550492998127E-007
  1.430603437924090E-003  1.030550492998127E-007
  1.546343865291129E-003  1.030550492998127E-007
  1.589880674751724E-003  1.030550492998127E-007
  1.670173317418255E-003  1.030550492998127E-007
  1.783167219908823E-003  1.030550492998127E-007
  1.914841431853679E-003  1.030550492998127E-007
  1.990574701316771E-003  1.030550492998127E-007
  2.325386855149201E-003  1.030550492998127E-007
  2.344298820905225E-003  1.030550492998127E-007
  2.346218824098102E-003  1.030550492998127E-007
  2.351219107053661E-003  1.030550492998127E-007
  2.358719942046241E-003  1.030550492998127E-007
  2.366267660795170E-003  1.030550492998127E-007
  2.371320850013390E-003  1.030550492998127E-007
  2.483115732488878E-003  1.030550492998127E-007
  2.634949782435200E-003  1.030550492998127E-007
  2.753428384095214E-003  1.030550492998127E-007
  3.140894213456823E-003  1.030550492998127E-007
  3.141638569567057E-003  1.030550492998127E-007
  3.529284819537432E-003  1.030550492998127E-007
  3.576621806197494E-003  1.030550492998127E-007
  3.625075618317648E-003  1.030550492998127E-007
  3.659500845198557E-003  1.030550492998127E-007
  3.661286922086051E-003  1.030550492998127E-007
  3.666771819971779E-003  1.030550492998127E-007
  3.675204091459241E-003  1.030550492998127E-007
  3.683280692619788E-003  1.030550492998127E-007
  3.706960263949476E-003  1.030550492998127E-007
  3.706980107952570E-003  1.030550492998127E-007
  4.066353033110652E-003  1.030550492998127E-007
  4.066353063628848E-003  1.030550492998127E-007
 cut=1d-8, nber non-redundant internal coords=         180
 Check on Eigenvals of non-red overlap matrix:
  0.00000010  0.00000038  0.00000070  0.00000093  0.00000233  0.00000289  0.00000362  0.00000540
  0.00000569  0.00000777  0.00000973  0.00001089  0.00001282  0.00001763  0.00001873  0.00002179
  0.00002479  0.00002880  0.00002910  0.00003043  0.00003076  0.00004291  0.00004448  0.00004534
  0.00004756  0.00004958  0.00005058  0.00005103  0.00005805  0.00005806  0.00005864  0.00005874
  0.00006198  0.00006220  0.00006761  0.00006791  0.00007097  0.00007117  0.00007461  0.00008171
  0.00008620  0.00009195  0.00009928  0.00010013  0.00010288  0.00010647  0.00011052  0.00011716
  0.00011719  0.00011834  0.00011945  0.00012050  0.00012265  0.00012356  0.00012530  0.00013027
  0.00013676  0.00015942  0.00017181  0.00018997  0.00022091  0.00025054  0.00025818  0.00026098
  0.00026229  0.00027168  0.00027563  0.00028368  0.00029154  0.00029729  0.00030974  0.00035959
  0.00036079  0.00036201  0.00037292  0.00038245  0.00038933  0.00038992  0.00039457  0.00040300
  0.00041735  0.00042895  0.00043631  0.00047573  0.00053347  0.00053625  0.00056588  0.00059307
  0.00059307  0.00059343  0.00059343  0.00059546  0.00059594  0.00059675  0.00059791  0.00059908
  0.00059965  0.00059971  0.00059980  0.00059988  0.00060405  0.00060405  0.00062283  0.00062307
  0.00062329  0.00063088  0.00063584  0.00063651  0.00064140  0.00064225  0.00064647  0.00064839
  0.00064950  0.00065091  0.00065209  0.00066106  0.00066106  0.00071602  0.00083716  0.00094578
  0.00103850  0.00104120  0.00104120  0.00107709  0.00107892  0.00108112  0.00108286  0.00110563
  0.00110906  0.00110952  0.00111021  0.00111107  0.00111191  0.00111249  0.00113844  0.00113844
  0.00115053  0.00115080  0.00115124  0.00115164  0.00116777  0.00116812  0.00116872  0.00116933
  0.00116974  0.00116979  0.00117300  0.00117300  0.00143039  0.00143060  0.00154634  0.00158988
  0.00167017  0.00178317  0.00191484  0.00199057  0.00232539  0.00234430  0.00234622  0.00235122
  0.00235872  0.00236627  0.00237132  0.00248312  0.00263495  0.00275343  0.00314089  0.00314164
  0.00352928  0.00357662  0.00362508  0.00365950  0.00366129  0.00366677  0.00367520  0.00368328
  0.00370696  0.00370698  0.00406635  0.00406635
 Checking for correct frequencies
 recalc frequencies=
  -105.4  -96.3  -79.9  -56.7  -28.4   -0.0    0.0    0.0    0.0    0.0
     0.0    9.6   26.0   27.1   50.6   70.3   82.9  116.5  127.3  132.4
   157.6  189.6  212.7  229.7  243.6  266.2  321.6  336.5  349.2  376.4
   379.3  385.9  394.4  395.4  405.5  413.2  416.5  433.8  435.7  459.7
   466.7  485.5  488.7  517.8  528.0  551.1  554.5  557.4  626.7  631.4
   631.9  644.8  655.6  663.9  665.8  672.8  694.8  695.5  711.7  724.8
   724.8  729.4  745.3  754.3  778.4  783.5  790.5  796.5  804.3  815.7
   816.4  828.8  831.5  843.1  845.4  846.5  857.1  862.6  919.8  919.8
   932.0  943.7  945.7  951.2  956.0  958.3  964.1  965.9  974.3  974.8
   998.0  998.0 1011.8 1013.1 1014.5 1017.6 1019.6 1021.2 1022.5 1039.1
  1049.2 1059.9 1064.9 1065.5 1066.2 1111.8 1111.8 1150.1 1159.0 1169.4
  1178.9 1188.3 1188.9 1209.6 1211.5 1224.7 1242.6 1247.1 1253.0 1289.3
  1290.0 1290.9 1291.3 1295.5 1303.5 1304.9 1305.2 1314.7 1316.5 1318.3
  1346.1 1350.5 1355.0 1361.8 1370.3 1373.2 1434.8 1437.3 1441.1 1457.7
  1481.8 1484.5 1519.0 1524.1 1537.6 1554.2 1569.2 1576.4 1579.4 1590.5
  1603.5 1612.2 1623.5 1623.5 1632.1 1638.3 1643.5 1650.1 1657.2 1662.1
  3161.1 3161.1 3168.7 3168.7 3178.1 3179.0 3180.1 3181.5 3182.8 3185.2
  3185.3 3187.8 3189.4 3191.3 3193.3 3195.6 3198.9 3199.4 3203.0 3204.4
  3206.7 3208.6 3209.3 3211.1 3211.7 3214.1
 recalc symmetries=
     Au     B1g    Au     B1g    Au     B1g    B3u    B2g    B2u    B3g
     B1u    B3u    B2g    B2u    B3u    B3g    B2g    Ag     B2u    B3u
     B2g    B3g    B3u    B1u    B2u    B2g    B3u    Ag     B3g    B2g
     Au     B1g    B2u    Au     B1g    Au     B1g    B1u    B3g    B3u
     B2u    B3g    B2g    Ag     B3u    B2g    B2g    B3u    B1u    B3g
     B2u    B3g    B2u    Ag     B3g    B2u    B2g    B3u    B1u    B2g
     B3u    B3u    B2g    Ag     B3u    B2g    B1u    Au     B1g    Au 
     Ag     B1g    B3u    Au     B1g    B2g    B3u    B2g    B2g    B3u
     Au     B1g    B2g    B3u    Au     B2g    B3u    B1g    Au     B1g
     B2g    B3u    B1u    Ag     B1u    Ag     B1u    B1u    Ag     Ag 
     B1u    Ag     B1u    Ag     B1u    B3g    B2u    B3g    B2u    B3g
     B2u    B3g    B2u    B1u    Ag     B1u    Ag     Ag     B1u    B1u
     B2u    Ag     B3g    B2u    B3g    Ag     B1u    B2u    Ag     B3g
     B3g    B2u    B2u    B3g    B3g    B2u    B3g    B2u    B2u    B3g
     B2u    B3g    B1u    Ag     B1u    Ag     B1u    B2u    Ag     B3g
     B2u    B3g    B2u    B3g    Ag     B1u    Ag     B1u    Ag     B1u
     B1u    Ag     B3g    B2u    B1u    B3g    Ag     B2u    B1u    Ag 
     B3g    B1u    B2u    Ag     B3g    B1u    B2u    Ag     B3g    B1u
     B2u    Ag     B3g    B2u    B1u    Ag 
 recalc freqs check OK
 Zero-point lengths:
 24.1425 25.2597 27.7385 32.9361 46.5316 10.0000 10.0000 10.0000 10.0000 10.0000
 10.0000 80.1871 48.6395 47.6475 34.8620 29.5682 27.2210 22.9678 21.9685 21.5423
 19.7471 18.0062 16.9969 16.3587 15.8831 15.1947 13.8245 13.5144 13.2658 12.7788
 12.7292 12.6193 12.4825 12.4669 12.3118 12.1962 12.1471 11.9033 11.8767 11.5626
 11.4754 11.2517 11.2147 10.8948 10.7889 10.5606 10.5277 10.5002  9.9027  9.8663
  9.8620  9.7630  9.6821  9.6214  9.6075  9.5574  9.4049  9.4005  9.2928  9.2087
  9.2085  9.1792  9.0809  9.0268  8.8859  8.8569  8.8174  8.7845  8.7416  8.6803
  8.6767  8.6112  8.5975  8.5379  8.5265  8.5207  8.4682  8.4407  8.1743  8.1743
  8.1207  8.0700  8.0615  8.0381  8.0181  8.0084  7.9843  7.9770  7.9425  7.9402
  7.8475  7.8475  7.7936  7.7889  7.7833  7.7714  7.7639  7.7580  7.7529  7.6906
  7.6536  7.6147  7.5969  7.5950  7.5923  7.4352  7.4351  7.3103  7.2821  7.2495
  7.2202  7.1919  7.1899  7.1280  7.1224  7.0840  7.0327  7.0201  7.0037  6.9042
  6.9024  6.9000  6.8990  6.8878  6.8667  6.8630  6.8620  6.8373  6.8326  6.8278
  6.7572  6.7460  6.7347  6.7181  6.6970  6.6900  6.5448  6.5392  6.5304  6.4932
  6.4403  6.4344  6.3608  6.3503  6.3222  6.2884  6.2582  6.2441  6.2380  6.2163
  6.1910  6.1742  6.1528  6.1527  6.1365  6.1249  6.1152  6.1029  6.0898  6.0809
  4.4094  4.4094  4.4041  4.4041  4.3976  4.3969  4.3962  4.3952  4.3943  4.3926
  4.3926  4.3908  4.3898  4.3885  4.3871  4.3855  4.3833  4.3829  4.3804  4.3795
  4.3779  4.3766  4.3762  4.3749  4.3745  4.3729
 highest evec of mol 1
  0.0000  0.0000 -0.0036
  0.0000 -0.0061 -0.0040
  0.0000 -0.0221  0.0119
  0.0000  0.0000  0.0007
  0.0000  0.0221  0.0119
  0.0000  0.0061 -0.0040
  0.0000  0.0000 -0.0024
  0.0000  0.0433 -0.0242
  0.0000  0.0556  0.0301
  0.0000  0.0000  0.0025
  0.0000 -0.0556  0.0301
  0.0000 -0.0433 -0.0242
  0.0000  0.0000 -0.0036
  0.0000  0.0694 -0.0384
  0.0000  0.0759  0.0415
  0.0000  0.0000  0.0037
  0.0000 -0.0759  0.0415
  0.0000 -0.0694 -0.0384
  0.0000  0.0000 -0.0037
  0.0000  0.0759 -0.0415
  0.0000  0.0694  0.0384
  0.0000  0.0000  0.0036
  0.0000 -0.0694  0.0384
  0.0000 -0.0759 -0.0415
  0.0000  0.0000 -0.0025
  0.0000  0.0556 -0.0301
  0.0000  0.0433  0.0242
  0.0000  0.0000  0.0024
  0.0000 -0.0433  0.0242
  0.0000 -0.0556 -0.0301
  0.0000  0.0000 -0.0007
  0.0000  0.0221 -0.0119
  0.0000  0.0061  0.0040
  0.0000  0.0000  0.0036
  0.0000 -0.0061  0.0040
  0.0000 -0.0221 -0.0119
  0.0000  0.0000  0.0110
  0.0000  0.0192  0.0111
  0.0000  0.0739 -0.0412
  0.0000 -0.0739 -0.0412
  0.0000 -0.0192  0.0111
  0.0000 -0.1432  0.0775
  0.0000 -0.1847 -0.1003
  0.0000  0.1847 -0.1003
  0.0000  0.1432  0.0775
  0.0000 -0.2300  0.1249
  0.0000 -0.2519 -0.1367
  0.0000  0.2519 -0.1367
  0.0000  0.2300  0.1249
  0.0000 -0.2519  0.1367
  0.0000 -0.2300 -0.1249
  0.0000  0.2300 -0.1249
  0.0000  0.2519  0.1367
  0.0000 -0.1847  0.1003
  0.0000 -0.1432 -0.0775
  0.0000  0.1432 -0.0775
  0.0000  0.1847  0.1003
  0.0000 -0.0739  0.0412
  0.0000 -0.0192 -0.0111
  0.0000  0.0000 -0.0110
  0.0000  0.0192 -0.0111
  0.0000  0.0739  0.0412
 generating redundant internal coords
         300        3600          62
 Adding extra bonds for z output only
           6           6           6           6           6           6
           6           6           6           6           6           6
           6           6           6           6           6           6
           6           6           6           6           6           6
           6           6           6           6           6           6
           6           6           6           6           6           6
           1           1           1           1           1           1
           1           1           1           1           1           1
           1           1           1           1           1           1
           1           1           1           1           1           1
           1           1
 search for int coords
   1 str   2   1   1.392
   2 str   3   2   1.391
   3 str   4   3   1.406
   4 str   5   4   1.406
   5 str   6   1   1.392
   6 str   6   5   1.391
   7 str   7   4   1.490
   8 str   8   7   1.404
   9 str   9   8   1.387
  10 str  10   9   1.405
  11 str  11  10   1.405
  12 str  12   7   1.404
  13 str  12  11   1.387
  14 str  13  10   1.486
  15 str  14  13   1.405
  16 str  15  14   1.386
  17 str  16  15   1.405
  18 str  17  16   1.405
  19 str  18  13   1.405
  20 str  18  17   1.386
  21 str  19  16   1.485
  22 str  20  19   1.405
  23 str  21  20   1.386
  24 str  22  21   1.405
  25 str  23  22   1.405
  26 str  24  19   1.405
  27 str  24  23   1.386
  28 str  25  22   1.486
  29 str  26  25   1.405
  30 str  27  26   1.387
  31 str  28  27   1.404
  32 str  29  28   1.404
  33 str  30  25   1.405
  34 str  30  29   1.387
  35 str  31  28   1.490
  36 str  32  31   1.406
  37 str  33  32   1.391
  38 str  34  33   1.392
  39 str  35  34   1.392
  40 str  36  31   1.406
  41 str  36  35   1.391
  42 str  37   1   1.084
  43 str  38   2   1.084
  44 str  39   3   1.082
  45 str  40   5   1.082
  46 str  41   6   1.084
  47 str  42   8   1.082
  48 str  43   9   1.082
  49 str  44  11   1.082
  50 str  45  12   1.082
  51 str  46  14   1.082
  52 str  47  15   1.082
  53 str  48  17   1.082
  54 str  49  18   1.082
  55 str  50  20   1.082
  56 str  51  21   1.082
  57 str  52  23   1.082
  58 str  53  24   1.082
  59 str  54  26   1.082
  60 str  55  27   1.082
  61 str  56  29   1.082
  62 str  57  30   1.082
  63 str  58  32   1.082
  64 str  59  33   1.084
  65 str  60  34   1.084
  66 str  61  35   1.084
  67 str  62  36   1.082
 nber stretches=          67
  68 ben   1   2   3
  69 prop tor   1   2   3   4
  70 prop tor   1   2   3  39
  71 ben   1   2  38
  72 ben   1   6   5
  73 ben   1   6  41
  74 ben   2   1   6
  75 prop tor   2   1   6   5
  76 prop tor   2   1   6  41
  77 ben   2   1  37
  78 ben   2   3   4
  79 prop tor   2   3   4   5
  80 prop tor   2   3   4   7
  81 ben   2   3  39
  82 ben   3   2  38
  83 ben   3   4   5
  84 prop tor   3   4   5   6
  85 prop tor   3   4   5  40
  86 ben   3   4   7
  87 prop tor   3   4   7   8
  88 prop tor   3   4   7  12
  89 ben   4   3  39
  90 ben   4   5   6
  91 prop tor   4   5   6   1
  92 prop tor   4   5   6  41
  93 ben   4   5  40
  94 ben   4   7   8
  95 prop tor   4   7   8   9
  96 prop tor   4   7   8  42
  97 ben   4   7  12
  98 prop tor   4   7  12  11
  99 prop tor   4   7  12  45
 100 ben   5   4   7
 101 prop tor   5   4   7   8
 102 prop tor   5   4   7  12
 103 ben   5   6  41
 104 prop tor   6   1   2   3
 105 prop tor   6   1   2  38
 106 ben   6   1  37
 107 ben   6   5  40
 108 prop tor   7   4   5   6
 109 prop tor   7   4   5  40
 110 ben   7   8   9
 111 prop tor   7   8   9  10
 112 prop tor   7   8   9  43
 113 ben   7   8  42
 114 ben   7  12  11
 115 ben   7  12  45
 116 ben   8   7  12
 117 prop tor   8   7  12  11
 118 prop tor   8   7  12  45
 119 ben   8   9  10
 120 prop tor   8   9  10  11
 121 prop tor   8   9  10  13
 122 ben   8   9  43
 123 ben   9   8  42
 124 ben   9  10  11
 125 prop tor   9  10  11  12
 126 prop tor   9  10  11  44
 127 ben   9  10  13
 128 prop tor   9  10  13  14
 129 prop tor   9  10  13  18
 130 ben  10   9  43
 131 ben  10  11  12
 132 prop tor  10  11  12   7
 133 prop tor  10  11  12  45
 134 ben  10  11  44
 135 ben  10  13  14
 136 prop tor  10  13  14  15
 137 prop tor  10  13  14  46
 138 ben  10  13  18
 139 prop tor  10  13  18  17
 140 prop tor  10  13  18  49
 141 ben  11  10  13
 142 prop tor  11  10  13  14
 143 prop tor  11  10  13  18
 144 ben  11  12  45
 145 prop tor  12   7   8   9
 146 prop tor  12   7   8  42
 147 ben  12  11  44
 148 prop tor  13  10  11  12
 149 prop tor  13  10  11  44
 150 ben  13  14  15
 151 prop tor  13  14  15  16
 152 prop tor  13  14  15  47
 153 ben  13  14  46
 154 ben  13  18  17
 155 ben  13  18  49
 156 ben  14  13  18
 157 prop tor  14  13  18  17
 158 prop tor  14  13  18  49
 159 ben  14  15  16
 160 prop tor  14  15  16  17
 161 prop tor  14  15  16  19
 162 ben  14  15  47
 163 ben  15  14  46
 164 ben  15  16  17
 165 prop tor  15  16  17  18
 166 prop tor  15  16  17  48
 167 ben  15  16  19
 168 prop tor  15  16  19  20
 169 prop tor  15  16  19  24
 170 ben  16  15  47
 171 ben  16  17  18
 172 prop tor  16  17  18  13
 173 prop tor  16  17  18  49
 174 ben  16  17  48
 175 ben  16  19  20
 176 prop tor  16  19  20  21
 177 prop tor  16  19  20  50
 178 ben  16  19  24
 179 prop tor  16  19  24  23
 180 prop tor  16  19  24  53
 181 ben  17  16  19
 182 prop tor  17  16  19  20
 183 prop tor  17  16  19  24
 184 ben  17  18  49
 185 prop tor  18  13  14  15
 186 prop tor  18  13  14  46
 187 ben  18  17  48
 188 prop tor  19  16  17  18
 189 prop tor  19  16  17  48
 190 ben  19  20  21
 191 prop tor  19  20  21  22
 192 prop tor  19  20  21  51
 193 ben  19  20  50
 194 ben  19  24  23
 195 ben  19  24  53
 196 ben  20  19  24
 197 prop tor  20  19  24  23
 198 prop tor  20  19  24  53
 199 ben  20  21  22
 200 prop tor  20  21  22  23
 201 prop tor  20  21  22  25
 202 ben  20  21  51
 203 ben  21  20  50
 204 ben  21  22  23
 205 prop tor  21  22  23  24
 206 prop tor  21  22  23  52
 207 ben  21  22  25
 208 prop tor  21  22  25  26
 209 prop tor  21  22  25  30
 210 ben  22  21  51
 211 ben  22  23  24
 212 prop tor  22  23  24  19
 213 prop tor  22  23  24  53
 214 ben  22  23  52
 215 ben  22  25  26
 216 prop tor  22  25  26  27
 217 prop tor  22  25  26  54
 218 ben  22  25  30
 219 prop tor  22  25  30  29
 220 prop tor  22  25  30  57
 221 ben  23  22  25
 222 prop tor  23  22  25  26
 223 prop tor  23  22  25  30
 224 ben  23  24  53
 225 prop tor  24  19  20  21
 226 prop tor  24  19  20  50
 227 ben  24  23  52
 228 prop tor  25  22  23  24
 229 prop tor  25  22  23  52
 230 ben  25  26  27
 231 prop tor  25  26  27  28
 232 prop tor  25  26  27  55
 233 ben  25  26  54
 234 ben  25  30  29
 235 ben  25  30  57
 236 ben  26  25  30
 237 prop tor  26  25  30  29
 238 prop tor  26  25  30  57
 239 ben  26  27  28
 240 prop tor  26  27  28  29
 241 prop tor  26  27  28  31
 242 ben  26  27  55
 243 ben  27  26  54
 244 ben  27  28  29
 245 prop tor  27  28  29  30
 246 prop tor  27  28  29  56
 247 ben  27  28  31
 248 prop tor  27  28  31  32
 249 prop tor  27  28  31  36
 250 ben  28  27  55
 251 ben  28  29  30
 252 prop tor  28  29  30  25
 253 prop tor  28  29  30  57
 254 ben  28  29  56
 255 ben  28  31  32
 256 prop tor  28  31  32  33
 257 prop tor  28  31  32  58
 258 ben  28  31  36
 259 prop tor  28  31  36  35
 260 prop tor  28  31  36  62
 261 ben  29  28  31
 262 prop tor  29  28  31  32
 263 prop tor  29  28  31  36
 264 ben  29  30  57
 265 prop tor  30  25  26  27
 266 prop tor  30  25  26  54
 267 ben  30  29  56
 268 prop tor  31  28  29  30
 269 prop tor  31  28  29  56
 270 ben  31  32  33
 271 prop tor  31  32  33  34
 272 prop tor  31  32  33  59
 273 ben  31  32  58
 274 ben  31  36  35
 275 ben  31  36  62
 276 ben  32  31  36
 277 prop tor  32  31  36  35
 278 prop tor  32  31  36  62
 279 ben  32  33  34
 280 prop tor  32  33  34  35
 281 prop tor  32  33  34  60
 282 ben  32  33  59
 283 ben  33  32  58
 284 ben  33  34  35
 285 prop tor  33  34  35  36
 286 prop tor  33  34  35  61
 287 ben  33  34  60
 288 ben  34  33  59
 289 ben  34  35  36
 290 prop tor  34  35  36  31
 291 prop tor  34  35  36  62
 292 ben  34  35  61
 293 ben  35  34  60
 294 ben  35  36  62
 295 prop tor  36  31  32  33
 296 prop tor  36  31  32  58
 297 ben  36  35  61
 298 prop tor  37   1   2   3
 299 prop tor  37   1   2  38
 300 prop tor  37   1   6   5
 301 prop tor  37   1   6  41
 302 prop tor  38   2   3   4
 303 prop tor  38   2   3  39
 304 prop tor  39   3   4   5
 305 prop tor  39   3   4   7
 306 prop tor  40   5   6   1
 307 prop tor  40   5   6  41
 308 prop tor  42   8   9  10
 309 prop tor  42   8   9  43
 310 prop tor  43   9  10  11
 311 prop tor  43   9  10  13
 312 prop tor  44  11  12   7
 313 prop tor  44  11  12  45
 314 prop tor  46  14  15  16
 315 prop tor  46  14  15  47
 316 prop tor  47  15  16  17
 317 prop tor  47  15  16  19
 318 prop tor  48  17  18  13
 319 prop tor  48  17  18  49
 320 prop tor  50  20  21  22
 321 prop tor  50  20  21  51
 322 prop tor  51  21  22  23
 323 prop tor  51  21  22  25
 324 prop tor  52  23  24  19
 325 prop tor  52  23  24  53
 326 prop tor  54  26  27  28
 327 prop tor  54  26  27  55
 328 prop tor  55  27  28  29
 329 prop tor  55  27  28  31
 330 prop tor  56  29  30  25
 331 prop tor  56  29  30  57
 332 prop tor  58  32  33  34
 333 prop tor  58  32  33  59
 334 prop tor  59  33  34  35
 335 prop tor  59  33  34  60
 336 prop tor  60  34  35  36
 337 prop tor  60  34  35  61
 338 prop tor  61  35  36  31
 339 prop tor  61  35  36  62
 nber bend=             108
 nber lin bend=           0
 nber prop tor=         164
 nber impr tor=           0
 nber tot redund int=         339
 Reading file: 
 ./Phenyls_4_C-1S0.log                                                          
                                          
  Entering Gaussian System, Link 0=g16                                          
  
 Gaussian format, type: g94, g98, g03= F F F
  #P Geom=AllCheck Guess=TCheck SCRF=Check GenChk UB3LYP/6-311G(d,p) Fre    
 energy type= B3LYP   
 Original G94 input coords:
  6  0.000000  0.000000 12.332627
  6  0.000000  1.197720 11.617239
  6  0.000000  1.198223 10.228529
  6  0.000000  0.000000  9.477760
  6  0.000000 -1.198223 10.228529
  6  0.000000 -1.197720 11.617239
  6  0.000000  0.000000  8.004349
  6  0.000000 -1.191751  7.244673
  6  0.000000 -1.193520  5.863483
  6  0.000000  0.000000  5.098235
  6  0.000000  1.193520  5.863483
  6  0.000000  1.191751  7.244673
  6  0.000000  0.000000  3.638688
  6  0.000000 -1.194248  2.873872
  6  0.000000 -1.194762  1.495005
  6  0.000000  0.000000  0.728149
  6  0.000000  1.194762  1.495005
  6  0.000000  1.194248  2.873872
  6  0.000000  0.000000 -0.728149
  6  0.000000 -1.194762 -1.495005
  6  0.000000 -1.194248 -2.873872
  6  0.000000  0.000000 -3.638688
  6  0.000000  1.194248 -2.873872
  6  0.000000  1.194762 -1.495005
  6  0.000000  0.000000 -5.098235
  6  0.000000 -1.193520 -5.863483
  6  0.000000 -1.191751 -7.244673
  6  0.000000  0.000000 -8.004349
  6  0.000000  1.191751 -7.244673
  6  0.000000  1.193520 -5.863483
  6  0.000000  0.000000 -9.477760
  6  0.000000 -1.198223-10.228529
  6  0.000000 -1.197720-11.617239
  6  0.000000  0.000000-12.332627
  6  0.000000  1.197720-11.617239
  6  0.000000  1.198223-10.228529
  1  0.000000  0.000000 13.416600
  1  0.000000  2.145730 12.146910
  1  0.000000  2.153835  9.720046
  1  0.000000 -2.153835  9.720046
  1  0.000000 -2.145730 12.146910
  1  0.000000 -2.153028  7.743651
  1  0.000000 -2.153330  5.362400
  1  0.000000  2.153330  5.362400
  1  0.000000  2.153028  7.743651
  1  0.000000 -2.155021  3.375104
  1  0.000000 -2.154985  0.993684
  1  0.000000  2.154985  0.993684
  1  0.000000  2.155021  3.375104
  1  0.000000 -2.154985 -0.993684
  1  0.000000 -2.155021 -3.375104
  1  0.000000  2.155021 -3.375104
  1  0.000000  2.154985 -0.993684
  1  0.000000 -2.153330 -5.362400
  1  0.000000 -2.153028 -7.743651
  1  0.000000  2.153028 -7.743651
  1  0.000000  2.153330 -5.362400
  1  0.000000 -2.153835 -9.720046
  1  0.000000 -2.145730-12.146910
  1  0.000000  0.000000-13.416600
  1  0.000000  2.145730-12.146910
  1  0.000000  2.153835 -9.720046
 nber atoms=          62
  SCF Done:  E(UB3LYP) =  -1387.88353209     A.U. after    1 cycles             
  
          23          40 "  -1387.88353209"
After scan for Atom:   Atom  AN      X      Y      Z        X      Y      Z        X      Y      Z   
After scan for Atom:   Atom  AN      X      Y      Z        X      Y      Z        X      Y      Z   
After scan for Atom:   Atom  AN      X      Y      Z        X      Y      Z        X      Y      Z   
After scan for Atom:   Atom  AN      X      Y      Z        X      Y      Z        X      Y      Z   
After scan for Atom:   Atom  AN      X      Y      Z        X      Y      Z        X      Y      Z   
After scan for Atom:   Atom  AN      X      Y      Z        X      Y      Z        X      Y      Z   
After scan for Atom:   Atom  AN      X      Y      Z        X      Y      Z        X      Y      Z   
After scan for Atom:   Atom  AN      X      Y      Z        X      Y      Z        X      Y      Z   
After scan for Atom:   Atom  AN      X      Y      Z        X      Y      Z        X      Y      Z   
After scan for Atom:   Atom  AN      X      Y      Z        X      Y      Z        X      Y      Z   
After scan for Atom:   Atom  AN      X      Y      Z        X      Y      Z        X      Y      Z   
After scan for Atom:   Atom  AN      X      Y      Z        X      Y      Z        X      Y      Z   
After scan for Atom:   Atom  AN      X      Y      Z        X      Y      Z        X      Y      Z   
After scan for Atom:   Atom  AN      X      Y      Z        X      Y      Z        X      Y      Z   
After scan for Atom:   Atom  AN      X      Y      Z        X      Y      Z        X      Y      Z   
After scan for Atom:   Atom  AN      X      Y      Z        X      Y      Z        X      Y      Z   
After scan for Atom:   Atom  AN      X      Y      Z        X      Y      Z        X      Y      Z   
After scan for Atom:   Atom  AN      X      Y      Z        X      Y      Z        X      Y      Z   
After scan for Atom:   Atom  AN      X      Y      Z        X      Y      Z        X      Y      Z   
After scan for Atom:   Atom  AN      X      Y      Z        X      Y      Z        X      Y      Z   
After scan for Atom:   Atom  AN      X      Y      Z        X      Y      Z        X      Y      Z   
After scan for Atom:   Atom  AN      X      Y      Z        X      Y      Z        X      Y      Z   
After scan for Atom:   Atom  AN      X      Y      Z        X      Y      Z        X      Y      Z   
After scan for Atom:   Atom  AN      X      Y      Z        X      Y      Z        X      Y      Z   
After scan for Atom:   Atom  AN      X      Y      Z        X      Y      Z        X      Y      Z   
After scan for Atom:   Atom  AN      X      Y      Z        X      Y      Z        X      Y      Z   
After scan for Atom:   Atom  AN      X      Y      Z        X      Y      Z        X      Y      Z   
After scan for Atom:   Atom  AN      X      Y      Z        X      Y      Z        X      Y      Z   
After scan for Atom:   Atom  AN      X      Y      Z        X      Y      Z        X      Y      Z   
After scan for Atom:   Atom  AN      X      Y      Z        X      Y      Z        X      Y      Z   
After scan for Atom:   Atom  AN      X      Y      Z        X      Y      Z        X      Y      Z   
After scan for Atom:   Atom  AN      X      Y      Z        X      Y      Z        X      Y      Z   
After scan for Atom:   Atom  AN      X      Y      Z        X      Y      Z        X      Y      Z   
After scan for Atom:   Atom  AN      X      Y      Z        X      Y      Z        X      Y      Z   
After scan for Atom:   Atom  AN      X      Y      Z        X      Y      Z        X      Y      Z   
After scan for Atom:   Atom  AN      X      Y      Z        X      Y      Z        X      Y      Z   
After scan for Atom:   Atom  AN      X      Y      Z        X      Y      Z        X      Y      Z   
After scan for Atom:   Atom  AN      X      Y      Z        X      Y      Z        X      Y      Z   
After scan for Atom:   Atom  AN      X      Y      Z        X      Y      Z        X      Y      Z   
After scan for Atom:   Atom  AN      X      Y      Z        X      Y      Z        X      Y      Z   
After scan for Atom:   Atom  AN      X      Y      Z        X      Y      Z        X      Y      Z   
After scan for Atom:   Atom  AN      X      Y      Z        X      Y      Z        X      Y      Z   
After scan for Atom:   Atom  AN      X      Y      Z        X      Y      Z        X      Y      Z   
After scan for Atom:   Atom  AN      X      Y      Z        X      Y      Z        X      Y      Z   
After scan for Atom:   Atom  AN      X      Y      Z        X      Y      Z        X      Y      Z   
After scan for Atom:   Atom  AN      X      Y      Z        X      Y      Z        X      Y      Z   
After scan for Atom:   Atom  AN      X      Y      Z        X      Y      Z        X      Y      Z   
After scan for Atom:   Atom  AN      X      Y      Z        X      Y      Z        X      Y      Z   
After scan for Atom:   Atom  AN      X      Y      Z        X      Y      Z        X      Y      Z   
After scan for Atom:   Atom  AN      X      Y      Z        X      Y      Z        X      Y      Z   
After scan for Atom:   Atom  AN      X      Y      Z        X      Y      Z        X      Y      Z   
After scan for Atom:   Atom  AN      X      Y      Z        X      Y      Z        X      Y      Z   
After scan for Atom:   Atom  AN      X      Y      Z        X      Y      Z        X      Y      Z   
After scan for Atom:   Atom  AN      X      Y      Z        X      Y      Z        X      Y      Z   
After scan for Atom:   Atom  AN      X      Y      Z        X      Y      Z        X      Y      Z   
After scan for Atom:   Atom  AN      X      Y      Z        X      Y      Z        X      Y      Z   
After scan for Atom:   Atom  AN      X      Y      Z        X      Y      Z        X      Y      Z   
After scan for Atom:   Atom  AN      X      Y      Z        X      Y      Z        X      Y      Z   
After scan for Atom:   Atom  AN      X      Y      Z        X      Y      Z        X      Y      Z   
After scan for Atom:   Atom  AN      X      Y      Z        X      Y      Z        X      Y      Z   
 g94    frequencies=
     0.0    0.0    0.0    0.0    0.0    0.0  -83.4  -79.5  -62.5  -42.3
   -19.1    9.3   25.3   26.7   48.9   69.5   78.9  116.5  125.9  129.9
   148.3  187.4  201.5  229.5  240.5  249.9  300.8  336.3  349.3  352.3
   394.9  401.2  401.2  409.1  414.3  419.4  422.7  430.3  433.6  435.1
   465.2  471.3  483.1  503.7  519.2  520.7  532.6  533.9  617.4  630.2
   631.1  641.6  653.1  660.7  663.5  670.1  689.5  689.8  705.8  707.7
   710.7  717.4  733.3  745.9  761.4  766.1  770.5  778.6  779.6  789.3
   800.9  801.7  808.0  819.5  825.3  825.9  826.5  827.1  880.9  880.9
   901.2  917.0  917.3  926.2  932.0  936.1  942.9  943.9  956.2  956.4
   969.5  969.5  996.0 1000.0 1004.3 1005.3 1005.7 1009.5 1011.4 1022.5
  1032.4 1041.7 1045.7 1054.9 1055.7 1104.5 1104.5 1150.1 1152.9 1158.0
  1162.1 1177.6 1177.7 1203.8 1205.3 1218.1 1221.7 1227.3 1244.7 1290.4
  1291.3 1292.2 1297.1 1297.2 1300.8 1302.4 1322.7 1326.1 1333.4 1334.0
  1338.6 1339.0 1347.1 1351.0 1364.9 1367.0 1449.8 1451.9 1461.1 1464.9
  1474.6 1483.2 1501.9 1510.9 1516.3 1523.6 1534.7 1543.9 1553.7 1557.3
  1560.4 1566.3 1595.3 1595.4 1595.4 1613.1 1630.0 1638.1 1650.1 1658.3
  3142.0 3142.1 3148.1 3148.1 3155.9 3156.3 3160.8 3160.8 3166.8 3167.2
  3169.7 3170.2 3175.8 3176.7 3176.8 3179.9 3185.3 3187.4 3188.6 3190.9
  3191.3 3194.0 3196.0 3196.2 3198.7 3199.4
 g94    symmetries=
                                                AU     B1     AU     B1
      AU     B3     B2     B2     B3     B3     B2     AG     B2     B3
      B2     B3     B3     B1     B2     B2     B3     AG     B2     B3
      B2     AU     B1     AU     B1     AU     B1     B3     B1     B3
      B2     B2     B3     B3     AG     B2     B2     B3     B1     B3
      B2     B3     B2     AG     B3     B2     B2     B3     B1     B3
      B2     B3     B2     AG     B3     B2     AU     B1     B1     AU
      B1     AG     B3     B2     AU     B3     B1     B2     B2     B3
      AU     B1     B2     B3     AU     B2     B1     B3     AU     B1
      B2     B3     B1     AG     B1     B1     AG     B1     AG     AG
      B1     AG     B1     B1     AG     B2     B3     B3     B2     B3
      B2     B3     B2     B1     AG     B1     B1     AG     AG     B3
      B2     B2     ?A     ?A     AG     B2     B1     B3     AG     B2
      B3     AG     B2     B3     B3     B2     B2     B3     B3     B2
      B2     B3     B1     AG     B1     B2     AG     B3     B1     B2
      B3     AG     B1     B3     B2     AG     AG     B1     AG     B1
      B1     AG     B3     B2     B1     B3     AG     B2     B1     B3
      AG     B2     B1     AG     B3     B1     B2     AG     B3     B1
      B2     AG     B3     B2     B1     AG
 atomic masses:
 12.0000 12.0000 12.0000 12.0000 12.0000 12.0000 12.0000 12.0000 12.0000 12.0000
 12.0000 12.0000 12.0000 12.0000 12.0000 12.0000 12.0000 12.0000 12.0000 12.0000
 12.0000 12.0000 12.0000 12.0000 12.0000 12.0000 12.0000 12.0000 12.0000 12.0000
 12.0000 12.0000 12.0000 12.0000 12.0000 12.0000  1.0078  1.0078  1.0078  1.0078
  1.0078  1.0078  1.0078  1.0078  1.0078  1.0078  1.0078  1.0078  1.0078  1.0078
  1.0078  1.0078  1.0078  1.0078  1.0078  1.0078  1.0078  1.0078  1.0078  1.0078
  1.0078  1.0078
 looking for force constants in 
 ./Phenyls_4_C-1S0.fchk                                                         
  
 Cartesian Force Constants                  R   N=       17391                  
  
 n3=         186       17391
 g94-fc frequencies=
   -83.4  -79.5  -62.5  -42.3  -19.1   -0.0   -0.0    0.0    0.4    0.6
     6.6    9.3   25.3   26.7   48.9   69.5   78.9  116.5  125.9  129.9
   148.4  187.4  201.5  229.5  240.5  249.9  300.8  336.3  349.3  352.3
   394.9  401.2  401.2  409.1  414.3  419.4  422.8  430.3  433.6  435.2
   465.2  471.3  483.1  503.8  519.2  520.7  532.6  533.9  617.5  630.2
   631.1  641.6  653.1  660.7  663.5  670.1  689.5  689.8  705.8  707.7
   710.7  717.4  733.3  746.0  761.4  766.1  770.5  778.6  779.6  789.3
   800.9  801.8  808.0  819.5  825.3  825.9  826.5  827.1  880.9  880.9
   901.3  917.0  917.3  926.2  932.0  936.1  943.0  943.9  956.2  956.4
   969.5  969.5  996.0 1000.0 1004.4 1005.3 1005.8 1009.5 1011.4 1022.5
  1032.4 1041.8 1045.7 1054.9 1055.7 1104.5 1104.5 1150.1 1152.9 1158.0
  1162.1 1177.6 1177.7 1203.8 1205.3 1218.1 1221.7 1227.3 1244.7 1290.4
  1291.4 1292.2 1297.2 1297.2 1300.8 1302.5 1322.7 1326.1 1333.4 1334.1
  1338.6 1339.1 1347.1 1351.0 1364.9 1367.0 1449.8 1451.9 1461.1 1464.9
  1474.6 1483.3 1501.9 1510.9 1516.3 1523.7 1534.8 1543.9 1553.8 1557.4
  1560.4 1566.4 1595.3 1595.4 1595.5 1613.2 1630.1 1638.1 1650.2 1658.3
  3142.0 3142.2 3148.2 3148.2 3156.0 3156.4 3160.8 3160.9 3166.9 3167.2
  3169.8 3170.2 3175.9 3176.8 3176.9 3179.9 3185.3 3187.5 3188.7 3190.9
  3191.4 3194.1 3196.0 3196.3 3198.8 3199.5
 at 99999: n3=         186
 symm operator            1 :  T  nop=           1
 symm operator            2 :  T  nop=           2
 symm operator            3 :  T  nop=           3
 symm operator            4 :  T  nop=           4
 symm operator            5 :  T  nop=           5
 symm operator            6 :  T  nop=           6
 symm operator            7 :  T  nop=           7
 The point group of the molecule is D2H
 enforcing symm op           1  jsymt=          -1          -1           1
 enforcing symm op           2  jsymt=          -1           1          -1
 enforcing symm op           3  jsymt=           1          -1          -1
 enforcing symm op           4  jsymt=          -1          -1          -1
 enforcing symm op           5  jsymt=           1           1          -1
 enforcing symm op           6  jsymt=           1          -1           1
 enforcing symm op           7  jsymt=          -1           1           1
 cartesian coord symmetries:
 Ag :   31 Au :   12 B1g:   12 B1u:   31 B2g:   19 B2u:   31 B3g:   31 B3u:   19
 Symmetry rotation matrix:
   1.00000   0.00000   0.00000
   0.00000   1.00000   0.00000
   0.00000   0.00000   1.00000

 Projecting out zero-frequency components
 generating redundant internal coords
         300        3600          62
 search for int coords
   1 str   2   1   1.395
   2 str   3   2   1.389
   3 str   4   3   1.414
   4 str   5   4   1.414
   5 str   6   1   1.395
   6 str   6   5   1.389
   7 str   7   4   1.473
   8 str   8   7   1.413
   9 str   9   8   1.381
  10 str  10   9   1.418
  11 str  11  10   1.418
  12 str  12   7   1.413
  13 str  12  11   1.381
  14 str  13  10   1.460
  15 str  14  13   1.418
  16 str  15  14   1.379
  17 str  16  15   1.420
  18 str  17  16   1.420
  19 str  18  13   1.418
  20 str  18  17   1.379
  21 str  19  16   1.456
  22 str  20  19   1.420
  23 str  21  20   1.379
  24 str  22  21   1.418
  25 str  23  22   1.418
  26 str  24  19   1.420
  27 str  24  23   1.379
  28 str  25  22   1.460
  29 str  26  25   1.418
  30 str  27  26   1.381
  31 str  28  27   1.413
  32 str  29  28   1.413
  33 str  30  25   1.418
  34 str  30  29   1.381
  35 str  31  28   1.473
  36 str  32  31   1.414
  37 str  33  32   1.389
  38 str  34  33   1.395
  39 str  35  34   1.395
  40 str  36  31   1.414
  41 str  36  35   1.389
  42 str  37   1   1.084
  43 str  38   2   1.086
  44 str  39   3   1.082
  45 str  40   5   1.082
  46 str  41   6   1.086
  47 str  42   8   1.083
  48 str  43   9   1.083
  49 str  44  11   1.083
  50 str  45  12   1.083
  51 str  46  14   1.084
  52 str  47  15   1.083
  53 str  48  17   1.083
  54 str  49  18   1.084
  55 str  50  20   1.083
  56 str  51  21   1.084
  57 str  52  23   1.084
  58 str  53  24   1.083
  59 str  54  26   1.083
  60 str  55  27   1.083
  61 str  56  29   1.083
  62 str  57  30   1.083
  63 str  58  32   1.082
  64 str  59  33   1.086
  65 str  60  34   1.084
  66 str  61  35   1.086
  67 str  62  36   1.082
 nber stretches=          67
  68 ben   1   2   3
  69 prop tor   1   2   3   4
  70 prop tor   1   2   3  39
  71 ben   1   2  38
  72 ben   1   6   5
  73 ben   1   6  41
  74 ben   2   1   6
  75 prop tor   2   1   6   5
  76 prop tor   2   1   6  41
  77 ben   2   1  37
  78 ben   2   3   4
  79 prop tor   2   3   4   5
  80 prop tor   2   3   4   7
  81 ben   2   3  39
  82 ben   3   2  38
  83 ben   3   4   5
  84 prop tor   3   4   5   6
  85 prop tor   3   4   5  40
  86 ben   3   4   7
  87 prop tor   3   4   7   8
  88 prop tor   3   4   7  12
  89 ben   4   3  39
  90 ben   4   5   6
  91 prop tor   4   5   6   1
  92 prop tor   4   5   6  41
  93 ben   4   5  40
  94 ben   4   7   8
  95 prop tor   4   7   8   9
  96 prop tor   4   7   8  42
  97 ben   4   7  12
  98 prop tor   4   7  12  11
  99 prop tor   4   7  12  45
 100 ben   5   4   7
 101 prop tor   5   4   7   8
 102 prop tor   5   4   7  12
 103 ben   5   6  41
 104 prop tor   6   1   2   3
 105 prop tor   6   1   2  38
 106 ben   6   1  37
 107 ben   6   5  40
 108 prop tor   7   4   5   6
 109 prop tor   7   4   5  40
 110 ben   7   8   9
 111 prop tor   7   8   9  10
 112 prop tor   7   8   9  43
 113 ben   7   8  42
 114 ben   7  12  11
 115 ben   7  12  45
 116 ben   8   7  12
 117 prop tor   8   7  12  11
 118 prop tor   8   7  12  45
 119 ben   8   9  10
 120 prop tor   8   9  10  11
 121 prop tor   8   9  10  13
 122 ben   8   9  43
 123 ben   9   8  42
 124 ben   9  10  11
 125 prop tor   9  10  11  12
 126 prop tor   9  10  11  44
 127 ben   9  10  13
 128 prop tor   9  10  13  14
 129 prop tor   9  10  13  18
 130 ben  10   9  43
 131 ben  10  11  12
 132 prop tor  10  11  12   7
 133 prop tor  10  11  12  45
 134 ben  10  11  44
 135 ben  10  13  14
 136 prop tor  10  13  14  15
 137 prop tor  10  13  14  46
 138 ben  10  13  18
 139 prop tor  10  13  18  17
 140 prop tor  10  13  18  49
 141 ben  11  10  13
 142 prop tor  11  10  13  14
 143 prop tor  11  10  13  18
 144 ben  11  12  45
 145 prop tor  12   7   8   9
 146 prop tor  12   7   8  42
 147 ben  12  11  44
 148 prop tor  13  10  11  12
 149 prop tor  13  10  11  44
 150 ben  13  14  15
 151 prop tor  13  14  15  16
 152 prop tor  13  14  15  47
 153 ben  13  14  46
 154 ben  13  18  17
 155 ben  13  18  49
 156 ben  14  13  18
 157 prop tor  14  13  18  17
 158 prop tor  14  13  18  49
 159 ben  14  15  16
 160 prop tor  14  15  16  17
 161 prop tor  14  15  16  19
 162 ben  14  15  47
 163 ben  15  14  46
 164 ben  15  16  17
 165 prop tor  15  16  17  18
 166 prop tor  15  16  17  48
 167 ben  15  16  19
 168 prop tor  15  16  19  20
 169 prop tor  15  16  19  24
 170 ben  16  15  47
 171 ben  16  17  18
 172 prop tor  16  17  18  13
 173 prop tor  16  17  18  49
 174 ben  16  17  48
 175 ben  16  19  20
 176 prop tor  16  19  20  21
 177 prop tor  16  19  20  50
 178 ben  16  19  24
 179 prop tor  16  19  24  23
 180 prop tor  16  19  24  53
 181 ben  17  16  19
 182 prop tor  17  16  19  20
 183 prop tor  17  16  19  24
 184 ben  17  18  49
 185 prop tor  18  13  14  15
 186 prop tor  18  13  14  46
 187 ben  18  17  48
 188 prop tor  19  16  17  18
 189 prop tor  19  16  17  48
 190 ben  19  20  21
 191 prop tor  19  20  21  22
 192 prop tor  19  20  21  51
 193 ben  19  20  50
 194 ben  19  24  23
 195 ben  19  24  53
 196 ben  20  19  24
 197 prop tor  20  19  24  23
 198 prop tor  20  19  24  53
 199 ben  20  21  22
 200 prop tor  20  21  22  23
 201 prop tor  20  21  22  25
 202 ben  20  21  51
 203 ben  21  20  50
 204 ben  21  22  23
 205 prop tor  21  22  23  24
 206 prop tor  21  22  23  52
 207 ben  21  22  25
 208 prop tor  21  22  25  26
 209 prop tor  21  22  25  30
 210 ben  22  21  51
 211 ben  22  23  24
 212 prop tor  22  23  24  19
 213 prop tor  22  23  24  53
 214 ben  22  23  52
 215 ben  22  25  26
 216 prop tor  22  25  26  27
 217 prop tor  22  25  26  54
 218 ben  22  25  30
 219 prop tor  22  25  30  29
 220 prop tor  22  25  30  57
 221 ben  23  22  25
 222 prop tor  23  22  25  26
 223 prop tor  23  22  25  30
 224 ben  23  24  53
 225 prop tor  24  19  20  21
 226 prop tor  24  19  20  50
 227 ben  24  23  52
 228 prop tor  25  22  23  24
 229 prop tor  25  22  23  52
 230 ben  25  26  27
 231 prop tor  25  26  27  28
 232 prop tor  25  26  27  55
 233 ben  25  26  54
 234 ben  25  30  29
 235 ben  25  30  57
 236 ben  26  25  30
 237 prop tor  26  25  30  29
 238 prop tor  26  25  30  57
 239 ben  26  27  28
 240 prop tor  26  27  28  29
 241 prop tor  26  27  28  31
 242 ben  26  27  55
 243 ben  27  26  54
 244 ben  27  28  29
 245 prop tor  27  28  29  30
 246 prop tor  27  28  29  56
 247 ben  27  28  31
 248 prop tor  27  28  31  32
 249 prop tor  27  28  31  36
 250 ben  28  27  55
 251 ben  28  29  30
 252 prop tor  28  29  30  25
 253 prop tor  28  29  30  57
 254 ben  28  29  56
 255 ben  28  31  32
 256 prop tor  28  31  32  33
 257 prop tor  28  31  32  58
 258 ben  28  31  36
 259 prop tor  28  31  36  35
 260 prop tor  28  31  36  62
 261 ben  29  28  31
 262 prop tor  29  28  31  32
 263 prop tor  29  28  31  36
 264 ben  29  30  57
 265 prop tor  30  25  26  27
 266 prop tor  30  25  26  54
 267 ben  30  29  56
 268 prop tor  31  28  29  30
 269 prop tor  31  28  29  56
 270 ben  31  32  33
 271 prop tor  31  32  33  34
 272 prop tor  31  32  33  59
 273 ben  31  32  58
 274 ben  31  36  35
 275 ben  31  36  62
 276 ben  32  31  36
 277 prop tor  32  31  36  35
 278 prop tor  32  31  36  62
 279 ben  32  33  34
 280 prop tor  32  33  34  35
 281 prop tor  32  33  34  60
 282 ben  32  33  59
 283 ben  33  32  58
 284 ben  33  34  35
 285 prop tor  33  34  35  36
 286 prop tor  33  34  35  61
 287 ben  33  34  60
 288 ben  34  33  59
 289 ben  34  35  36
 290 prop tor  34  35  36  31
 291 prop tor  34  35  36  62
 292 ben  34  35  61
 293 ben  35  34  60
 294 ben  35  36  62
 295 prop tor  36  31  32  33
 296 prop tor  36  31  32  58
 297 ben  36  35  61
 298 prop tor  37   1   2   3
 299 prop tor  37   1   2  38
 300 prop tor  37   1   6   5
 301 prop tor  37   1   6  41
 302 prop tor  38   2   3   4
 303 prop tor  38   2   3  39
 304 prop tor  39   3   4   5
 305 prop tor  39   3   4   7
 306 prop tor  40   5   6   1
 307 prop tor  40   5   6  41
 308 prop tor  42   8   9  10
 309 prop tor  42   8   9  43
 310 prop tor  43   9  10  11
 311 prop tor  43   9  10  13
 312 prop tor  44  11  12   7
 313 prop tor  44  11  12  45
 314 prop tor  46  14  15  16
 315 prop tor  46  14  15  47
 316 prop tor  47  15  16  17
 317 prop tor  47  15  16  19
 318 prop tor  48  17  18  13
 319 prop tor  48  17  18  49
 320 prop tor  50  20  21  22
 321 prop tor  50  20  21  51
 322 prop tor  51  21  22  23
 323 prop tor  51  21  22  25
 324 prop tor  52  23  24  19
 325 prop tor  52  23  24  53
 326 prop tor  54  26  27  28
 327 prop tor  54  26  27  55
 328 prop tor  55  27  28  29
 329 prop tor  55  27  28  31
 330 prop tor  56  29  30  25
 331 prop tor  56  29  30  57
 332 prop tor  58  32  33  34
 333 prop tor  58  32  33  59
 334 prop tor  59  33  34  35
 335 prop tor  59  33  34  60
 336 prop tor  60  34  35  36
 337 prop tor  60  34  35  61
 338 prop tor  61  35  36  31
 339 prop tor  61  35  36  62
 nber bend=             108
 nber lin bend=           0
 nber prop tor=         164
 nber impr tor=           0
 nber tot redund int=         339
 Eigenvalues of G in red int coords
    Gval -0.00000000 -0.00000000 -0.00000000 -0.00000000 -0.00000000 -0.00000000 -0.00000000 -0.00000000
    Gval -0.00000000 -0.00000000 -0.00000000 -0.00000000 -0.00000000 -0.00000000 -0.00000000 -0.00000000
    Gval -0.00000000 -0.00000000 -0.00000000 -0.00000000 -0.00000000 -0.00000000 -0.00000000 -0.00000000
    Gval -0.00000000 -0.00000000 -0.00000000 -0.00000000 -0.00000000 -0.00000000 -0.00000000 -0.00000000
[...]
 nber times 1st assigned=         153           0
 nber times 1st assigned=         154           0
 nber times 1st assigned=         155           0
 nber times 1st assigned=         156           0
 nber times 1st assigned=         157           0
 nber times 1st assigned=         158           0
 nber times 1st assigned=         159           0
 nber times 1st assigned=         160           0
 nber times 1st assigned=         161           0
 nber times 1st assigned=         162           0
 nber times 1st assigned=         163           0
 nber times 1st assigned=         164           0
 nber times 1st assigned=         165           0
 nber times 1st assigned=         166           0
 nber times 1st assigned=         167           0
 nber times 1st assigned=         168           0
 nber times 1st assigned=         169           0
 nber times 1st assigned=         170           0
 nber times 1st assigned=         171           0
 nber times 1st assigned=         172           0
 nber times 1st assigned=         173           0
 nber times 1st assigned=         174           0
 nber times 1st assigned=         175           0
 nber times 1st assigned=         176           0
 nber times 1st assigned=         177           0
 nber times 1st assigned=         178           0
 nber times 1st assigned=         179           0
 nber times 1st assigned=         180           0
 nber times 1st assigned=         181           0
 nber times 1st assigned=         182           0
 nber times 1st assigned=         183           0
 nber times 1st assigned=         184           0
 nber times 1st assigned=         185           0
 nber times 1st assigned=         186           0
 modes represented=   180.034786348690     
 p1=
   -0.    0.   -0.    0.    0.   -0.    0.   -0.   -0.    0.   -0.    0.   -0.   -0.    0.   -0.    0.   10.    0.   -0.
    0.   -0.   -0.   -0.   -0.    0.    0.    2.   -0.   -0.   -0.   -0.   -0.   -0.   -0.    0.    0.    0.    0.    0.
    0.   -0.    0.    1.   -0.    0.   -0.    0.    0.    0.    0.   -0.   -0.   -1.   -0.   -0.    0.    0.   -0.   -0.
    0.   -0.   -0.    1.   -0.    0.   -0.   -0.    0.    0.    0.   -0.    0.    0.   -0.   -0.    0.   -0.   -0.    0.
    0.   -0.    0.    0.   -0.    0.    0.    0.    0.   -0.    0.   -0.    0.    1.    0.    0.    0.    0.    0.   -0.
    0.    0.   -0.   -1.    0.   -0.    0.    0.    0.   -0.    0.    0.   -0.    0.    0.    0.    0.   -5.    0.    0.
    0.   -0.   -0.   -0.    0.   -2.   -0.   -0.    0.   -0.    0.   -0.   -0.    0.    0.   -0.   -0.   -0.   -0.   -0.
    0.    0.    0.    1.   -0.   -0.   -0.   -0.    0.    0.    0.    0.    0.    0.    4.   -0.    0.   -0.    0.   -0.
    0.   -0.    0.    0.   -0.   -0.    0.    0.    0.    0.   -0.   -0.    0.   -0.    0.    0.    0.   -0.    0.    0.
   -0.    0.   -0.    0.    0.    0.
 p2=
    0.    0.   -0.    0.   -0.    0.    0.   -0.   -0.    0.    0.    0.    0.    0.    0.    0.   -0.   10.    0.   -0.
    0.    0.   -0.   -0.    0.   -0.    0.    2.    0.   -0.   -0.   -0.    0.   -0.    0.   -0.   -0.   -0.   -0.    0.
   -0.    0.    0.   -0.   -1.   -0.    0.    0.   -0.    0.    0.   -0.    0.    1.   -0.   -0.   -0.    0.   -0.   -0.
    0.   -0.    0.    1.    0.   -0.   -0.   -0.    0.   -0.   -0.    1.    0.    0.   -0.   -0.   -0.    0.    0.    0.
   -0.   -0.   -0.    0.    0.   -0.   -0.    0.   -0.    0.   -0.   -0.   -0.   -1.    0.   -0.   -0.   -0.    1.   -0.
    0.   -0.    0.   -0.    1.   -0.    0.    0.   -0.    0.    0.    0.    0.    0.    0.    0.    0.    2.   -4.   -0.
   -0.    0.   -0.    0.    1.    0.   -0.   -0.   -3.   -0.   -0.    0.   -0.    0.   -0.    0.   -0.    0.   -0.   -0.
   -0.    0.    0.    1.    0.    0.    0.    0.    0.   -0.   -0.    0.   -0.    0.    0.    2.   -3.    0.   -0.   -0.
    0.   -0.    0.   -0.   -0.    0.   -0.    0.    0.    0.   -0.    0.   -0.    0.   -0.   -0.    0.    0.   -0.    0.
   -0.   -0.   -0.    0.    0.    0.

 Displacement: in terms of nc of 1 THEN of nc of 2

   1 Au  freq=  -105. Q= -0.000 lam=    -0.0 Au  freq=   -83. Q= -0.000 lam=    -0.0
   2 B1g freq=   -96. Q=  0.000 lam=    -0.0 B1g freq=   -80. Q=  0.000 lam=    -0.0
   3 Au  freq=   -80. Q= -0.000 lam=    -0.0 Au  freq=   -63. Q= -0.000 lam=    -0.0
   4 B1g freq=   -57. Q=  0.000 lam=    -0.0 B1g freq=   -42. Q=  0.000 lam=    -0.0
   5 Au  freq=   -28. Q=  0.000 lam=    -0.0 Au  freq=   -19. Q=  0.000 lam=    -0.0
   6 B1g freq=    -0. Q= -0.000 lam=    -0.0 B3u freq=    -0. Q= -0.000 lam=    -0.0
   7 B3u freq=     0. Q=  0.000 lam=     0.0 B1g freq=    -0. Q=  0.000 lam=    -0.0
   8 B2g freq=     0. Q= -0.000 lam=     0.0 B2u freq=    -0. Q= -0.000 lam=    -0.0
   9 B2u freq=     0. Q= -0.000 lam=     0.0 B2g freq=     0. Q= -0.000 lam=     0.0
  10 B3g freq=     0. Q=  0.000 lam=     0.0 B3g freq=     0. Q=  0.000 lam=     0.0
  11 B1u freq=     0. Q= -0.000 lam=     0.0 B1u freq=     0. Q= -0.000 lam=     0.0
  12 B3u freq=    10. Q=  0.000 lam=     0.0 B3u freq=     9. Q=  0.000 lam=     0.0
  13 B2g freq=    26. Q= -0.000 lam=     0.0 B2g freq=    25. Q= -0.000 lam=     0.0
  14 B2u freq=    27. Q= -0.000 lam=     0.0 B2u freq=    27. Q= -0.000 lam=     0.0
  15 B3u freq=    51. Q=  0.000 lam=     0.0 B3u freq=    49. Q=  0.000 lam=     0.0
  16 B3g freq=    70. Q= -0.000 lam=     0.0 B3g freq=    69. Q= -0.000 lam=     0.0
  17 B2g freq=    83. Q=  0.000 lam=     0.0 B2g freq=    79. Q=  0.000 lam=     0.0
  18 Ag  freq=   117. Q=  0.419 lam=    10.2 Ag  freq=   116. Q=  0.438 lam=    11.2
  19 B2u freq=   127. Q=  0.000 lam=     0.0 B2u freq=   126. Q=  0.000 lam=     0.0
  20 B3u freq=   132. Q= -0.000 lam=     0.0 B3u freq=   130. Q= -0.000 lam=     0.0
  21 B2g freq=   158. Q=  0.000 lam=     0.0 B2g freq=   148. Q=  0.000 lam=     0.0
  22 B3g freq=   190. Q= -0.000 lam=     0.0 B3g freq=   187. Q= -0.000 lam=     0.0
  23 B3u freq=   213. Q= -0.000 lam=     0.0 B3u freq=   201. Q= -0.000 lam=     0.0
  24 B1u freq=   230. Q= -0.000 lam=     0.0 B1u freq=   230. Q= -0.000 lam=     0.0
  25 B2u freq=   244. Q= -0.000 lam=     0.0 B2u freq=   241. Q= -0.000 lam=     0.0
  26 B2g freq=   266. Q=  0.000 lam=     0.0 B2g freq=   250. Q=  0.000 lam=     0.0
  27 B3u freq=   322. Q=  0.000 lam=     0.0 B3u freq=   301. Q=  0.000 lam=     0.0
  28 Ag  freq=   337. Q=  0.141 lam=     3.3 Ag  freq=   336. Q=  0.141 lam=     3.3
  29 B3g freq=   349. Q= -0.000 lam=     0.0 B2g freq=   349. Q= -0.000 lam=     0.0
  30 B2g freq=   376. Q= -0.000 lam=     0.0 B3g freq=   352. Q= -0.000 lam=     0.0
  31 Au  freq=   379. Q= -0.000 lam=     0.0 B2u freq=   395. Q= -0.000 lam=     0.0
  32 B1g freq=   386. Q= -0.000 lam=     0.0 Au  freq=   401. Q= -0.000 lam=     0.0
  33 B2u freq=   394. Q= -0.000 lam=     0.0 B1g freq=   401. Q= -0.000 lam=     0.0
  34 Au  freq=   395. Q= -0.000 lam=     0.0 Au  freq=   409. Q= -0.000 lam=     0.0
  35 B1g freq=   405. Q= -0.000 lam=     0.0 B1g freq=   414. Q= -0.000 lam=     0.0
  36 Au  freq=   413. Q=  0.000 lam=     0.0 Au  freq=   419. Q=  0.000 lam=     0.0
  37 B1g freq=   417. Q=  0.000 lam=     0.0 B1g freq=   423. Q=  0.000 lam=     0.0
  38 B1u freq=   434. Q=  0.000 lam=     0.0 B3u freq=   430. Q=  0.000 lam=     0.0
  39 B3g freq=   436. Q=  0.000 lam=     0.0 B1u freq=   434. Q=  0.000 lam=     0.0
  40 B3u freq=   460. Q=  0.000 lam=     0.0 B3g freq=   435. Q=  0.000 lam=     0.0
  41 B2u freq=   467. Q=  0.000 lam=     0.0 B2u freq=   465. Q=  0.000 lam=     0.0
  42 B3g freq=   485. Q= -0.000 lam=     0.0 B2g freq=   471. Q= -0.000 lam=     0.0
  43 B2g freq=   489. Q=  0.000 lam=     0.0 B3g freq=   483. Q=  0.000 lam=     0.0
  44 Ag  freq=   518. Q=  0.073 lam=     1.4 B3u freq=   504. Q=  0.000 lam=     0.0
  45 B3u freq=   528. Q= -0.000 lam=     0.0 Ag  freq=   519. Q= -0.076 lam=     1.5
  46 B2g freq=   551. Q=  0.000 lam=     0.0 B2g freq=   521. Q=  0.000 lam=     0.0
  47 B2g freq=   555. Q= -0.000 lam=     0.0 B2g freq=   533. Q= -0.000 lam=     0.0
  48 B3u freq=   557. Q=  0.000 lam=     0.0 B3u freq=   534. Q=  0.000 lam=     0.0
  49 B1u freq=   627. Q=  0.000 lam=     0.0 B1u freq=   617. Q=  0.000 lam=     0.0
  50 B3g freq=   631. Q=  0.000 lam=     0.0 B3g freq=   630. Q=  0.000 lam=     0.0
  51 B2u freq=   632. Q=  0.000 lam=     0.0 B2u freq=   631. Q=  0.000 lam=     0.0
  52 B3g freq=   645. Q= -0.000 lam=     0.0 B3g freq=   642. Q= -0.000 lam=     0.0
  53 B2u freq=   656. Q= -0.000 lam=     0.0 B2u freq=   653. Q= -0.000 lam=     0.0
  54 Ag  freq=   664. Q= -0.085 lam=     2.4 Ag  freq=   661. Q= -0.081 lam=     2.2
  55 B3g freq=   666. Q= -0.000 lam=     0.0 B3g freq=   663. Q= -0.000 lam=     0.0
  56 B2u freq=   673. Q= -0.000 lam=     0.0 B2u freq=   670. Q= -0.000 lam=     0.0
  57 B2g freq=   695. Q=  0.000 lam=     0.0 B2g freq=   689. Q=  0.000 lam=     0.0
  58 B3u freq=   695. Q=  0.000 lam=     0.0 B3u freq=   690. Q=  0.000 lam=     0.0
  59 B1u freq=   712. Q= -0.000 lam=     0.0 B1u freq=   706. Q= -0.000 lam=     0.0
  60 B2g freq=   725. Q= -0.000 lam=     0.0 B3u freq=   708. Q= -0.000 lam=     0.0
  61 B3u freq=   725. Q=  0.000 lam=     0.0 B2g freq=   711. Q=  0.000 lam=     0.0
  62 B3u freq=   729. Q= -0.000 lam=     0.0 B3u freq=   717. Q= -0.000 lam=     0.0
  63 B2g freq=   745. Q= -0.000 lam=     0.0 B2g freq=   733. Q= -0.000 lam=     0.0
  64 Ag  freq=   754. Q=  0.068 lam=     1.7 Ag  freq=   746. Q=  0.078 lam=     2.3
  65 B3u freq=   778. Q= -0.000 lam=     0.0 B3u freq=   761. Q= -0.000 lam=     0.0
  66 B2g freq=   783. Q=  0.000 lam=     0.0 B2g freq=   766. Q=  0.000 lam=     0.0
  67 B1u freq=   790. Q= -0.000 lam=     0.0 Au  freq=   770. Q= -0.000 lam=     0.0
  68 Au  freq=   796. Q= -0.000 lam=     0.0 B1g freq=   779. Q= -0.000 lam=     0.0
  69 B1g freq=   804. Q=  0.000 lam=     0.0 B1u freq=   780. Q=  0.000 lam=     0.0
  70 Au  freq=   816. Q=  0.000 lam=     0.0 Au  freq=   789. Q=  0.000 lam=     0.0
  71 Ag  freq=   816. Q=  0.034 lam=     0.5 B1g freq=   801. Q=  0.000 lam=     0.0
  72 B1g freq=   829. Q= -0.000 lam=     0.0 Ag  freq=   802. Q= -0.063 lam=     1.6
  73 B3u freq=   831. Q=  0.000 lam=     0.0 B3u freq=   808. Q=  0.000 lam=     0.0
  74 Au  freq=   843. Q=  0.000 lam=     0.0 B2g freq=   819. Q=  0.000 lam=     0.0
  75 B1g freq=   845. Q= -0.000 lam=     0.0 Au  freq=   825. Q= -0.000 lam=     0.0
  76 B2g freq=   847. Q= -0.000 lam=     0.0 B3u freq=   826. Q= -0.000 lam=     0.0
  77 B3u freq=   857. Q=  0.000 lam=     0.0 B1g freq=   826. Q=  0.000 lam=     0.0
  78 B2g freq=   863. Q= -0.000 lam=     0.0 B2g freq=   827. Q= -0.000 lam=     0.0
  79 B2g freq=   920. Q= -0.000 lam=     0.0 B2g freq=   881. Q= -0.000 lam=     0.0
  80 B3u freq=   920. Q=  0.000 lam=     0.0 B3u freq=   881. Q=  0.000 lam=     0.0
  81 Au  freq=   932. Q=  0.000 lam=     0.0 Au  freq=   901. Q=  0.000 lam=     0.0
  82 B1g freq=   944. Q= -0.000 lam=     0.0 B1g freq=   917. Q= -0.000 lam=     0.0
  83 B2g freq=   946. Q=  0.000 lam=     0.0 B2g freq=   917. Q=  0.000 lam=     0.0
  84 B3u freq=   951. Q=  0.000 lam=     0.0 B3u freq=   926. Q=  0.000 lam=     0.0
  85 Au  freq=   956. Q= -0.000 lam=     0.0 Au  freq=   932. Q= -0.000 lam=     0.0
  86 B2g freq=   958. Q=  0.000 lam=     0.0 B2g freq=   936. Q=  0.000 lam=     0.0
  87 B3u freq=   964. Q=  0.000 lam=     0.0 B1g freq=   943. Q=  0.000 lam=     0.0
  88 B1g freq=   966. Q=  0.000 lam=     0.0 B3u freq=   944. Q=  0.000 lam=     0.0
  89 Au  freq=   974. Q=  0.000 lam=     0.0 Au  freq=   956. Q=  0.000 lam=     0.0
  90 B1g freq=   975. Q= -0.000 lam=     0.0 B1g freq=   956. Q= -0.000 lam=     0.0
  91 B2g freq=   998. Q=  0.000 lam=     0.0 B2g freq=   969. Q=  0.000 lam=     0.0
  92 B3u freq=   998. Q= -0.000 lam=     0.0 B3u freq=   970. Q= -0.000 lam=     0.0
  93 B1u freq=  1012. Q=  0.000 lam=     0.0 B1u freq=   996. Q=  0.000 lam=     0.0
  94 Ag  freq=  1013. Q=  0.102 lam=     5.3 Ag  freq=  1000. Q=  0.065 lam=     2.1
  95 B1u freq=  1014. Q=  0.000 lam=     0.0 B1u freq=  1004. Q=  0.000 lam=     0.0
  96 Ag  freq=  1018. Q=  0.040 lam=     0.8 B1u freq=  1005. Q=  0.000 lam=     0.0
  97 B1u freq=  1020. Q=  0.000 lam=     0.0 Ag  freq=  1006. Q=  0.034 lam=     0.6
  98 B1u freq=  1021. Q=  0.000 lam=     0.0 B1u freq=  1009. Q=  0.000 lam=     0.0
  99 Ag  freq=  1022. Q=  0.056 lam=     1.6 Ag  freq=  1011. Q=  0.101 lam=     5.2
 100 Ag  freq=  1039. Q= -0.005 lam=     0.0 Ag  freq=  1022. Q= -0.018 lam=     0.2
 101 B1u freq=  1049. Q=  0.000 lam=     0.0 B1u freq=  1032. Q=  0.000 lam=     0.0
 102 Ag  freq=  1060. Q=  0.021 lam=     0.2 Ag  freq=  1042. Q=  0.024 lam=     0.3
 103 B1u freq=  1065. Q= -0.000 lam=     0.0 B1u freq=  1046. Q= -0.000 lam=     0.0
 104 Ag  freq=  1065. Q= -0.083 lam=     3.7 B1u freq=  1055. Q= -0.000 lam=     0.0
 105 B1u freq=  1066. Q=  0.000 lam=     0.0 Ag  freq=  1056. Q=  0.081 lam=     3.5
 106 B3g freq=  1112. Q= -0.000 lam=     0.0 B2u freq=  1104. Q= -0.000 lam=     0.0
 107 B2u freq=  1112. Q=  0.000 lam=     0.0 B3g freq=  1104. Q=  0.000 lam=     0.0
 108 B3g freq=  1150. Q=  0.000 lam=     0.0 B3g freq=  1150. Q=  0.000 lam=     0.0
 109 B2u freq=  1159. Q=  0.000 lam=     0.0 B2u freq=  1153. Q=  0.000 lam=     0.0
 110 B3g freq=  1169. Q= -0.000 lam=     0.0 B3g freq=  1158. Q= -0.000 lam=     0.0
 111 B2u freq=  1179. Q=  0.000 lam=     0.0 B2u freq=  1162. Q=  0.000 lam=     0.0
 112 B3g freq=  1188. Q=  0.000 lam=     0.0 B3g freq=  1178. Q=  0.000 lam=     0.0
 113 B2u freq=  1189. Q= -0.000 lam=     0.0 B2u freq=  1178. Q= -0.000 lam=     0.0
 114 B1u freq=  1210. Q=  0.000 lam=     0.0 B1u freq=  1204. Q=  0.000 lam=     0.0
 115 Ag  freq=  1212. Q=  0.001 lam=     0.0 Ag  freq=  1205. Q=  0.033 lam=     0.7
 116 B1u freq=  1225. Q=  0.000 lam=     0.0 B1u freq=  1218. Q=  0.000 lam=     0.0
 117 Ag  freq=  1243. Q=  0.037 lam=     0.9 B1u freq=  1222. Q=  0.000 lam=     0.0
 118 Ag  freq=  1247. Q= -0.662 lam=   273.1 Ag  freq=  1227. Q= -0.241 lam=    35.5
 119 B1u freq=  1253. Q=  0.000 lam=     0.0 Ag  freq=  1245. Q=  0.535 lam=   178.1
 120 B1u freq=  1289. Q=  0.000 lam=     0.0 B3g freq=  1290. Q=  0.000 lam=     0.0
 121 B2u freq=  1290. Q=  0.000 lam=     0.0 B2u freq=  1291. Q=  0.000 lam=     0.0
 122 Ag  freq=  1291. Q= -0.071 lam=     3.2 B2u freq=  1292. Q= -0.000 lam=     0.0
 123 B3g freq=  1291. Q= -0.000 lam=     0.0 B3g freq=  1297. Q= -0.000 lam=     0.0
 124 B2u freq=  1295. Q= -0.000 lam=     0.0 B1u freq=  1297. Q= -0.000 lam=     0.0
 125 B3g freq=  1303. Q=  0.000 lam=     0.0 Ag  freq=  1301. Q=  0.111 lam=     8.1
 126 Ag  freq=  1305. Q= -0.328 lam=    70.0 B2u freq=  1302. Q= -0.000 lam=     0.0
 127 B1u freq=  1305. Q= -0.000 lam=     0.0 B1u freq=  1323. Q= -0.000 lam=     0.0
 128 B2u freq=  1315. Q= -0.000 lam=     0.0 B3g freq=  1326. Q= -0.000 lam=     0.0
 129 Ag  freq=  1316. Q=  0.023 lam=     0.3 Ag  freq=  1333. Q=  0.450 lam=   134.8
 130 B3g freq=  1318. Q= -0.000 lam=     0.0 B2u freq=  1334. Q= -0.000 lam=     0.0
 131 B3g freq=  1346. Q=  0.000 lam=     0.0 B3g freq=  1339. Q=  0.000 lam=     0.0
 132 B2u freq=  1350. Q= -0.000 lam=     0.0 Ag  freq=  1339. Q= -0.042 lam=     1.2
 133 B2u freq=  1355. Q= -0.000 lam=     0.0 B2u freq=  1347. Q= -0.000 lam=     0.0
 134 B3g freq=  1362. Q=  0.000 lam=     0.0 B3g freq=  1351. Q=  0.000 lam=     0.0
 135 B3g freq=  1370. Q=  0.000 lam=     0.0 B3g freq=  1365. Q=  0.000 lam=     0.0
 136 B2u freq=  1373. Q= -0.000 lam=     0.0 B2u freq=  1367. Q= -0.000 lam=     0.0
 137 B3g freq=  1435. Q= -0.000 lam=     0.0 B2u freq=  1450. Q= -0.000 lam=     0.0
 138 B2u freq=  1437. Q= -0.000 lam=     0.0 B3g freq=  1452. Q= -0.000 lam=     0.0
 139 B2u freq=  1441. Q= -0.000 lam=     0.0 B3g freq=  1461. Q= -0.000 lam=     0.0
 140 B3g freq=  1458. Q= -0.000 lam=     0.0 B2u freq=  1465. Q= -0.000 lam=     0.0
 141 B2u freq=  1482. Q=  0.000 lam=     0.0 B2u freq=  1475. Q=  0.000 lam=     0.0
 142 B3g freq=  1484. Q=  0.000 lam=     0.0 B3g freq=  1483. Q=  0.000 lam=     0.0
 143 B1u freq=  1519. Q=  0.000 lam=     0.0 B1u freq=  1502. Q=  0.000 lam=     0.0
 144 Ag  freq=  1524. Q=  0.156 lam=    18.6 Ag  freq=  1511. Q=  0.191 lam=    27.7
 145 B1u freq=  1538. Q= -0.000 lam=     0.0 B1u freq=  1516. Q= -0.000 lam=     0.0
 146 Ag  freq=  1554. Q= -0.022 lam=     0.4 B2u freq=  1524. Q= -0.000 lam=     0.0
 147 B1u freq=  1569. Q= -0.000 lam=     0.0 Ag  freq=  1535. Q= -0.000 lam=     0.0
 148 B2u freq=  1576. Q= -0.000 lam=     0.0 B3g freq=  1544. Q= -0.000 lam=     0.0
 149 Ag  freq=  1579. Q=  0.011 lam=     0.1 B1u freq=  1554. Q=  0.000 lam=     0.0
 150 B3g freq=  1590. Q=  0.000 lam=     0.0 B2u freq=  1557. Q=  0.000 lam=     0.0
 151 B2u freq=  1603. Q=  0.000 lam=     0.0 B3g freq=  1560. Q=  0.000 lam=     0.0
 152 B3g freq=  1612. Q=  0.000 lam=     0.0 Ag  freq=  1566. Q=  0.013 lam=     0.1
 153 B2u freq=  1623. Q=  0.000 lam=     0.0 B1u freq=  1595. Q=  0.000 lam=     0.0
 154 B3g freq=  1624. Q=  0.000 lam=     0.0 B3g freq=  1595. Q=  0.000 lam=     0.0
 155 Ag  freq=  1632. Q=  0.697 lam=   396.5 B2u freq=  1595. Q=  0.000 lam=     0.0
 156 B1u freq=  1638. Q= -0.000 lam=     0.0 Ag  freq=  1613. Q= -0.404 lam=   131.6
 157 Ag  freq=  1643. Q=  0.028 lam=     0.6 Ag  freq=  1630. Q=  0.519 lam=   219.5
 158 B1u freq=  1650. Q= -0.000 lam=     0.0 B1u freq=  1638. Q= -0.000 lam=     0.0
 159 Ag  freq=  1657. Q=  0.035 lam=     1.0 Ag  freq=  1650. Q=  0.072 lam=     4.3
 160 B1u freq=  1662. Q= -0.000 lam=     0.0 B1u freq=  1658. Q= -0.000 lam=     0.0
 161 B1u freq=  3161. Q=  0.000 lam=     0.0 B1u freq=  3142. Q=  0.000 lam=     0.0
 162 Ag  freq=  3161. Q= -0.023 lam=     0.8 Ag  freq=  3142. Q= -0.023 lam=     0.9
 163 B3g freq=  3169. Q=  0.000 lam=     0.0 B3g freq=  3148. Q=  0.000 lam=     0.0
 164 B2u freq=  3169. Q=  0.000 lam=     0.0 B2u freq=  3148. Q=  0.000 lam=     0.0
 165 B1u freq=  3178. Q= -0.000 lam=     0.0 B1u freq=  3156. Q= -0.000 lam=     0.0
 166 B3g freq=  3179. Q= -0.000 lam=     0.0 B3g freq=  3156. Q= -0.000 lam=     0.0
 167 Ag  freq=  3180. Q=  0.014 lam=     0.3 Ag  freq=  3161. Q=  0.014 lam=     0.3
 168 B2u freq=  3181. Q=  0.000 lam=     0.0 B2u freq=  3161. Q=  0.000 lam=     0.0
 169 B1u freq=  3183. Q=  0.000 lam=     0.0 B1u freq=  3167. Q=  0.000 lam=     0.0
 170 Ag  freq=  3185. Q=  0.003 lam=     0.0 B3g freq=  3167. Q=  0.000 lam=     0.0
 171 B3g freq=  3185. Q= -0.000 lam=     0.0 Ag  freq=  3170. Q= -0.002 lam=     0.0
 172 B1u freq=  3188. Q= -0.000 lam=     0.0 B2u freq=  3170. Q= -0.000 lam=     0.0
 173 B2u freq=  3189. Q=  0.000 lam=     0.0 B1u freq=  3176. Q=  0.000 lam=     0.0
 174 Ag  freq=  3191. Q= -0.009 lam=     0.1 Ag  freq=  3177. Q= -0.008 lam=     0.1
 175 B3g freq=  3193. Q=  0.000 lam=     0.0 B3g freq=  3177. Q=  0.000 lam=     0.0
 176 B1u freq=  3196. Q=  0.000 lam=     0.0 B1u freq=  3180. Q=  0.000 lam=     0.0
 177 B2u freq=  3199. Q=  0.000 lam=     0.0 B2u freq=  3185. Q=  0.000 lam=     0.0
 178 Ag  freq=  3199. Q= -0.004 lam=     0.0 Ag  freq=  3187. Q= -0.006 lam=     0.1
 179 B3g freq=  3203. Q=  0.000 lam=     0.0 B3g freq=  3189. Q=  0.000 lam=     0.0
 180 B1u freq=  3204. Q=  0.000 lam=     0.0 B1u freq=  3191. Q=  0.000 lam=     0.0
 181 B2u freq=  3207. Q= -0.000 lam=     0.0 B2u freq=  3191. Q= -0.000 lam=     0.0
 182 Ag  freq=  3209. Q=  0.001 lam=     0.0 Ag  freq=  3194. Q=  0.017 lam=     0.5
 183 B3g freq=  3209. Q= -0.000 lam=     0.0 B3g freq=  3196. Q= -0.000 lam=     0.0
 184 B2u freq=  3211. Q=  0.000 lam=     0.0 B2u freq=  3196. Q=  0.000 lam=     0.0
 185 B1u freq=  3212. Q=  0.000 lam=     0.0 B1u freq=  3199. Q=  0.000 lam=     0.0
 186 Ag  freq=  3214. Q=  0.031 lam=     1.6 Ag  freq=  3199. Q=  0.025 lam=     1.0

 total reorg energy (cm**-1, kcal/mol)=      799.      778.      2.28      2.22
 Nber of molecules processed=           2
