 Enter ifcurve (0=recti, 1=orth curvi, 2=apprx curvi, -1 = skip
 And atom ordering flag, 0= never changes, 1= use the first order thenceforth,
  2= deduce it (does read on fail), 3= always read it
 Reading file: 
 ./Non-cov-phenyl-N_3_C0S0.log                                                  
                                          
  Entering Gaussian System, Link 0=g16                                          
  
 Gaussian format, type: g94, g98, g03= F F F
  #P Geom=AllCheck Guess=TCheck SCRF=Check GenChk RB3LYP/6-311G(d,p) Fre    
 energy type= B3LYP   
 Original G94 input coords:
  6  7.567728  0.000000  0.000000
  6  6.862042 -1.200570  0.000000
  6  5.471631 -1.200142  0.000000
  6  4.740102  0.000000  0.000000
  6  3.256015  0.000000  0.000000
  6  2.484644  1.172910  0.000000
  7  1.157748  1.185635  0.000000
  6  0.527750  0.000000  0.000000
  6 -0.952057  0.000000  0.000000
  6 -1.665400  1.207653  0.000000
  6 -3.051862  1.207501  0.000000
  6 -3.764864  0.000000  0.000000
  6 -5.247330  0.000000  0.000000
  7 -5.869523  1.191504  0.000000
  6 -7.199965  1.179548  0.000000
  6 -7.937199  0.000000  0.000000
  6 -7.199965 -1.179548  0.000000
  7 -5.869523 -1.191504  0.000000
  6 -3.051862 -1.207501  0.000000
  6 -1.665400 -1.207653  0.000000
  7  1.157748 -1.185635  0.000000
  6  2.484644 -1.172910  0.000000
  6  5.471631  1.200142  0.000000
  6  6.862042  1.200570  0.000000
  1  8.651721  0.000000  0.000000
  1  7.394711 -2.145051  0.000000
  1  4.959308 -2.153025  0.000000
  1  2.953556  2.151769  0.000000
  1 -1.113593  2.137975  0.000000
  1 -3.603971  2.137668  0.000000
  1 -7.690762  2.149523  0.000000
  1 -9.018993  0.000000  0.000000
  1 -7.690762 -2.149523  0.000000
  1 -3.603971 -2.137668  0.000000
  1 -1.113593 -2.137975  0.000000
  1  2.953556 -2.151769  0.000000
  1  4.959308  2.153025  0.000000
  1  7.394711  2.145051  0.000000
 nber atoms=          38
 Original standard coords:
  6  0.000000  0.000000 -7.793529
  6  0.000000  1.200570 -7.087842
  6  0.000000  1.200142 -5.697431
  6  0.000000  0.000000 -4.965902
  6  0.000000  0.000000 -3.481816
  6  0.000000 -1.172910 -2.710444
  7  0.000000 -1.185635 -1.383549
  6  0.000000  0.000000 -0.753550
  6  0.000000  0.000000  0.726256
  6  0.000000 -1.207653  1.439600
  6  0.000000 -1.207501  2.826062
  6  0.000000  0.000000  3.539063
  6  0.000000  0.000000  5.021530
  7  0.000000 -1.191504  5.643722
  6  0.000000 -1.179548  6.974165
  6  0.000000  0.000000  7.711398
  6  0.000000  1.179548  6.974165
  7  0.000000  1.191504  5.643722
  6  0.000000  1.207501  2.826062
  6  0.000000  1.207653  1.439600
  7  0.000000  1.185635 -1.383549
  6  0.000000  1.172910 -2.710444
  6  0.000000 -1.200142 -5.697431
  6  0.000000 -1.200570 -7.087842
  1  0.000000  0.000000 -8.877522
  1  0.000000  2.145051 -7.620511
  1  0.000000  2.153025 -5.185108
  1  0.000000 -2.151769 -3.179357
  1  0.000000 -2.137975  0.887793
  1  0.000000 -2.137668  3.378171
  1  0.000000 -2.149523  7.464962
  1  0.000000  0.000000  8.793193
  1  0.000000  2.149523  7.464962
  1  0.000000  2.137668  3.378171
  1  0.000000  2.137975  0.887793
  1  0.000000  2.151769 -3.179357
  1  0.000000 -2.153025 -5.185108
  1  0.000000 -2.145051 -7.620511
  SCF Done:  E(RB3LYP) =  -989.811856142     A.U. after    1 cycles             
  
          23          40 "  -989.811856142"
After scan for Atom:   Atom  AN      X      Y      Z        X      Y      Z        X      Y      Z   
After scan for Atom:   Atom  AN      X      Y      Z        X      Y      Z        X      Y      Z   
After scan for Atom:   Atom  AN      X      Y      Z        X      Y      Z        X      Y      Z   
After scan for Atom:   Atom  AN      X      Y      Z        X      Y      Z        X      Y      Z   
After scan for Atom:   Atom  AN      X      Y      Z        X      Y      Z        X      Y      Z   
After scan for Atom:   Atom  AN      X      Y      Z        X      Y      Z        X      Y      Z   
After scan for Atom:   Atom  AN      X      Y      Z        X      Y      Z        X      Y      Z   
After scan for Atom:   Atom  AN      X      Y      Z        X      Y      Z        X      Y      Z   
After scan for Atom:   Atom  AN      X      Y      Z        X      Y      Z        X      Y      Z   
After scan for Atom:   Atom  AN      X      Y      Z        X      Y      Z        X      Y      Z   
After scan for Atom:   Atom  AN      X      Y      Z        X      Y      Z        X      Y      Z   
After scan for Atom:   Atom  AN      X      Y      Z        X      Y      Z        X      Y      Z   
After scan for Atom:   Atom  AN      X      Y      Z        X      Y      Z        X      Y      Z   
After scan for Atom:   Atom  AN      X      Y      Z        X      Y      Z        X      Y      Z   
After scan for Atom:   Atom  AN      X      Y      Z        X      Y      Z        X      Y      Z   
After scan for Atom:   Atom  AN      X      Y      Z        X      Y      Z        X      Y      Z   
After scan for Atom:   Atom  AN      X      Y      Z        X      Y      Z        X      Y      Z   
After scan for Atom:   Atom  AN      X      Y      Z        X      Y      Z        X      Y      Z   
After scan for Atom:   Atom  AN      X      Y      Z        X      Y      Z        X      Y      Z   
After scan for Atom:   Atom  AN      X      Y      Z        X      Y      Z        X      Y      Z   
After scan for Atom:   Atom  AN      X      Y      Z        X      Y      Z        X      Y      Z   
After scan for Atom:   Atom  AN      X      Y      Z        X      Y      Z        X      Y      Z   
After scan for Atom:   Atom  AN      X      Y      Z        X      Y      Z        X      Y      Z   
After scan for Atom:   Atom  AN      X      Y      Z        X      Y      Z        X      Y      Z   
After scan for Atom:   Atom  AN      X      Y      Z        X      Y      Z        X      Y      Z   
After scan for Atom:   Atom  AN      X      Y      Z        X      Y      Z        X      Y      Z   
After scan for Atom:   Atom  AN      X      Y      Z        X      Y      Z        X      Y      Z   
After scan for Atom:   Atom  AN      X      Y      Z        X      Y      Z        X      Y      Z   
After scan for Atom:   Atom  AN      X      Y      Z        X      Y      Z        X      Y      Z   
After scan for Atom:   Atom  AN      X      Y      Z        X      Y      Z        X      Y      Z   
After scan for Atom:   Atom  AN      X      Y      Z        X      Y      Z        X      Y      Z   
After scan for Atom:   Atom  AN      X      Y      Z        X      Y      Z        X      Y      Z   
After scan for Atom:   Atom  AN      X      Y      Z        X      Y      Z        X      Y      Z   
After scan for Atom:   Atom  AN      X      Y      Z        X      Y      Z        X      Y      Z   
After scan for Atom:   Atom  AN      X      Y      Z        X      Y      Z        X      Y      Z   
After scan for Atom:   Atom  AN      X      Y      Z        X      Y      Z        X      Y      Z   
 g94    frequencies=
     0.0    0.0    0.0    0.0    0.0    0.0  -74.4   19.9   33.7   52.9
    58.3   66.1  119.8  134.1  162.2  173.4  211.3  256.9  336.8  349.4
   378.2  390.4  409.3  414.3  420.9  442.8  444.6  482.9  506.8  514.5
   562.1  590.0  631.9  640.8  656.4  657.7  671.1  700.2  713.3  750.7
   779.8  784.6  814.0  816.4  826.2  840.9  849.1  875.7  905.0  925.8
   961.5  970.0  986.8 1001.4 1003.4 1005.7 1009.2 1012.9 1018.7 1018.9
  1020.0 1033.5 1054.4 1064.2 1071.0 1100.1 1110.6 1112.2 1113.1 1128.4
  1186.4 1194.3 1219.7 1222.6 1237.5 1274.9 1288.4 1303.0 1313.8 1332.3
  1344.0 1351.1 1366.0 1371.5 1409.9 1435.1 1448.3 1468.2 1471.7 1483.6
  1538.0 1541.9 1564.2 1589.2 1614.8 1614.9 1619.0 1621.7 1646.4 1652.5
  3143.1 3145.0 3156.6 3157.7 3164.0 3172.6 3186.6 3201.1 3201.9 3202.8
  3203.3 3206.5 3214.8 3216.4
 g94    symmetries=
                                                A2     B1     A2     B2
      B1     A2     B1     B2     B1     A1     B2     B1     A1     B1
      B2     A2     A2     A2     A2     B1     B2     A1     B2     B1
      B1     B1     B2     B2     B2     A1     B2     B1     A1     B1
      B1     A1     B1     B1     A1     A2     B1     A2     B1     B1
      B1     A2     A2     A2     B1     B1     A1     A1     A2     B1
      A1     A1     A1     A1     A1     A1     B2     A1     B2     B2
      B2     A1     A1     B2     B2     B2     B2     A1     B2     B2
      A1     B2     A1     B2     B2     B2     A1     B2     A1     B2
      A1     A1     B2     B2     B2     A1     A1     B2     A1     A1
      A1     B2     B2     A1     A1     B2     A1     B2     A1     B2
      A1     A1     B2     A1
 atomic masses:
 12.0000 12.0000 12.0000 12.0000 12.0000 12.0000 14.0031 12.0000 12.0000 12.0000
 12.0000 12.0000 12.0000 14.0031 12.0000 12.0000 12.0000 14.0031 12.0000 12.0000
 14.0031 12.0000 12.0000 12.0000  1.0078  1.0078  1.0078  1.0078  1.0078  1.0078
  1.0078  1.0078  1.0078  1.0078  1.0078  1.0078  1.0078  1.0078
 looking for force constants in 
 ./Non-cov-phenyl-N_3_C0S0.fchk                                                 
  
 Cartesian Force Constants                  R   N=        6555                  
  
 n3=         114        6555
 g94-fc frequencies=
   -74.4   -2.1   -1.8   -0.0   -0.0    0.0    2.1   19.9   33.7   52.9
    58.3   66.1  119.8  134.1  162.3  173.4  211.3  256.9  336.8  349.4
   378.2  390.4  409.3  414.3  420.9  442.8  444.6  482.9  506.8  514.5
   562.1  590.0  632.0  640.8  656.5  657.7  671.2  700.2  713.3  750.7
   779.8  784.6  814.0  816.4  826.2  841.0  849.1  875.7  905.0  925.8
   961.5  970.0  986.8 1001.5 1003.4 1005.7 1009.2 1012.9 1018.7 1018.9
  1020.0 1033.5 1054.4 1064.2 1071.0 1100.1 1110.7 1112.2 1113.1 1128.5
  1186.4 1194.3 1219.7 1222.6 1237.5 1274.9 1288.5 1303.0 1313.8 1332.3
  1344.0 1351.1 1366.1 1371.6 1410.0 1435.1 1448.3 1468.2 1471.7 1483.7
  1538.0 1542.0 1564.2 1589.3 1614.8 1615.0 1619.0 1621.8 1646.5 1652.6
  3143.2 3145.0 3156.7 3157.8 3164.0 3172.7 3186.7 3201.2 3201.9 3202.8
  3203.3 3206.5 3214.9 3216.5
 at 99999: n3=         114
 symm operator            1 :  T  nop=           1
 symm operator            2 :  F  nop=           1
 symm operator            3 :  F  nop=           1
 symm operator            4 :  F  nop=           1
 symm operator            5 :  F  nop=           1
 symm operator            6 :  T  nop=           2
 symm operator            7 :  T  nop=           3
 The point group of the molecule is C2V
 enforcing symm op           1  jsymt=          -1          -1           1
 enforcing symm op           6  jsymt=           1          -1           1
 enforcing symm op           7  jsymt=          -1           1           1
 cartesian coord symmetries:
 A1 :   38 A2 :   14 B1 :   24 B2 :   38
 Symmetry rotation matrix:
   1.00000   0.00000   0.00000
   0.00000   1.00000   0.00000
   0.00000   0.00000   1.00000

 Projecting out zero-frequency components
 generating redundant internal coords
         300        3600          38
 search for int coords
   1 str   2   1   1.393
   2 str   3   2   1.390
   3 str   4   3   1.406
   4 str   5   4   1.484
   5 str   6   5   1.404
   6 str   7   6   1.327
   7 str   8   7   1.343
   8 str   9   8   1.480
   9 str  10   9   1.403
  10 str  11  10   1.386
  11 str  12  11   1.402
  12 str  13  12   1.482
  13 str  14  13   1.344
  14 str  15  14   1.330
  15 str  16  15   1.391
  16 str  17  16   1.391
  17 str  18  13   1.344
  18 str  18  17   1.330
  19 str  19  12   1.402
  20 str  20   9   1.403
  21 str  20  19   1.386
  22 str  21   8   1.343
  23 str  22   5   1.404
  24 str  22  21   1.327
  25 str  23   4   1.406
  26 str  24   1   1.393
  27 str  24  23   1.390
  28 str  25   1   1.084
  29 str  26   2   1.084
  30 str  27   3   1.082
  31 str  28   6   1.085
  32 str  29  10   1.082
  33 str  30  11   1.082
  34 str  31  15   1.087
  35 str  32  16   1.082
  36 str  33  17   1.087
  37 str  34  19   1.082
  38 str  35  20   1.082
  39 str  36  22   1.085
  40 str  37  23   1.082
  41 str  38  24   1.084
 nber stretches=          41
  42 ben   1   2   3
  43 prop tor   1   2   3   4
  44 prop tor   1   2   3  27
  45 ben   1   2  26
  46 ben   1  24  23
  47 ben   1  24  38
  48 ben   2   1  24
  49 prop tor   2   1  24  23
  50 prop tor   2   1  24  38
  51 ben   2   1  25
  52 ben   2   3   4
  53 prop tor   2   3   4   5
  54 prop tor   2   3   4  23
  55 ben   2   3  27
  56 ben   3   2  26
  57 ben   3   4   5
  58 prop tor   3   4   5   6
  59 prop tor   3   4   5  22
  60 ben   3   4  23
  61 prop tor   3   4  23  24
  62 prop tor   3   4  23  37
  63 ben   4   3  27
  64 ben   4   5   6
  65 prop tor   4   5   6   7
  66 prop tor   4   5   6  28
  67 ben   4   5  22
  68 prop tor   4   5  22  21
  69 prop tor   4   5  22  36
  70 ben   4  23  24
  71 prop tor   4  23  24   1
  72 prop tor   4  23  24  38
  73 ben   4  23  37
  74 ben   5   4  23
  75 prop tor   5   4  23  24
  76 prop tor   5   4  23  37
  77 ben   5   6   7
  78 prop tor   5   6   7   8
  79 ben   5   6  28
  80 ben   5  22  21
  81 ben   5  22  36
  82 ben   6   5  22
  83 prop tor   6   5  22  21
  84 prop tor   6   5  22  36
  85 ben   6   7   8
  86 prop tor   6   7   8   9
  87 prop tor   6   7   8  21
  88 ben   7   6  28
  89 ben   7   8   9
  90 prop tor   7   8   9  10
  91 prop tor   7   8   9  20
  92 ben   7   8  21
  93 prop tor   7   8  21  22
  94 ben   8   9  10
  95 prop tor   8   9  10  11
  96 prop tor   8   9  10  29
  97 ben   8   9  20
  98 prop tor   8   9  20  19
  99 prop tor   8   9  20  35
 100 ben   8  21  22
 101 prop tor   8  21  22   5
 102 prop tor   8  21  22  36
 103 ben   9   8  21
 104 prop tor   9   8  21  22
 105 ben   9  10  11
 106 prop tor   9  10  11  12
 107 prop tor   9  10  11  30
 108 ben   9  10  29
 109 ben   9  20  19
 110 ben   9  20  35
 111 ben  10   9  20
 112 prop tor  10   9  20  19
 113 prop tor  10   9  20  35
 114 ben  10  11  12
 115 prop tor  10  11  12  13
 116 prop tor  10  11  12  19
 117 ben  10  11  30
 118 ben  11  10  29
 119 ben  11  12  13
 120 prop tor  11  12  13  14
 121 prop tor  11  12  13  18
 122 ben  11  12  19
 123 prop tor  11  12  19  20
 124 prop tor  11  12  19  34
 125 ben  12  11  30
 126 ben  12  13  14
 127 prop tor  12  13  14  15
 128 ben  12  13  18
 129 prop tor  12  13  18  17
 130 ben  12  19  20
 131 prop tor  12  19  20   9
 132 prop tor  12  19  20  35
 133 ben  12  19  34
 134 ben  13  12  19
 135 prop tor  13  12  19  20
 136 prop tor  13  12  19  34
 137 ben  13  14  15
 138 prop tor  13  14  15  16
 139 prop tor  13  14  15  31
 140 ben  13  18  17
 141 ben  14  13  18
 142 prop tor  14  13  18  17
 143 ben  14  15  16
 144 prop tor  14  15  16  17
 145 prop tor  14  15  16  32
 146 ben  14  15  31
 147 ben  15  16  17
 148 prop tor  15  16  17  18
 149 prop tor  15  16  17  33
 150 ben  15  16  32
 151 ben  16  15  31
 152 ben  16  17  18
 153 prop tor  16  17  18  13
 154 ben  16  17  33
 155 ben  17  16  32
 156 prop tor  18  13  14  15
 157 ben  18  17  33
 158 prop tor  19  12  13  14
 159 prop tor  19  12  13  18
 160 ben  19  20  35
 161 prop tor  20   9  10  11
 162 prop tor  20   9  10  29
 163 ben  20  19  34
 164 prop tor  21   8   9  10
 165 prop tor  21   8   9  20
 166 ben  21  22  36
 167 prop tor  22   5   6   7
 168 prop tor  22   5   6  28
 169 prop tor  23   4   5   6
 170 prop tor  23   4   5  22
 171 ben  23  24  38
 172 prop tor  24   1   2   3
 173 prop tor  24   1   2  26
 174 ben  24   1  25
 175 ben  24  23  37
 176 prop tor  25   1   2   3
 177 prop tor  25   1   2  26
 178 prop tor  25   1  24  23
 179 prop tor  25   1  24  38
 180 prop tor  26   2   3   4
 181 prop tor  26   2   3  27
 182 prop tor  27   3   4   5
 183 prop tor  27   3   4  23
 184 prop tor  28   6   7   8
 185 prop tor  29  10  11  12
 186 prop tor  29  10  11  30
 187 prop tor  30  11  12  13
 188 prop tor  30  11  12  19
 189 prop tor  31  15  16  17
 190 prop tor  31  15  16  32
 191 prop tor  32  16  17  18
 192 prop tor  32  16  17  33
 193 prop tor  33  17  18  13
 194 prop tor  34  19  20   9
 195 prop tor  34  19  20  35
 196 prop tor  37  23  24   1
 197 prop tor  37  23  24  38
 nber bend=              64
 nber lin bend=           0
 nber prop tor=          92
 nber impr tor=           0
 nber tot redund int=         197
 Eigenvalues of G in red int coords
    Gval -0.00000000 -0.00000000 -0.00000000 -0.00000000 -0.00000000 -0.00000000 -0.00000000 -0.00000000
    Gval -0.00000000 -0.00000000 -0.00000000 -0.00000000 -0.00000000 -0.00000000 -0.00000000 -0.00000000
    Gval -0.00000000 -0.00000000 -0.00000000 -0.00000000 -0.00000000 -0.00000000 -0.00000000 -0.00000000
    Gval -0.00000000 -0.00000000 -0.00000000 -0.00000000 -0.00000000 -0.00000000 -0.00000000 -0.00000000
    Gval -0.00000000 -0.00000000 -0.00000000 -0.00000000 -0.00000000 -0.00000000 -0.00000000 -0.00000000
    Gval -0.00000000 -0.00000000 -0.00000000 -0.00000000 -0.00000000 -0.00000000 -0.00000000 -0.00000000
    Gval  0.00000000  0.00000000  0.00000000  0.00000000  0.00000000  0.00000000  0.00000000  0.00000000
    Gval  0.00000000  0.00000000  0.00000000  0.00000000  0.00000000  0.00000000  0.00000000  0.00000000
    Gval  0.00000000  0.00000000  0.00000000  0.00000000  0.00000000  0.00000000  0.00000000  0.00000000
    Gval  0.00000000  0.00000000  0.00000000  0.00000000  0.00000000  0.00000000  0.00000000  0.00000000
    Gval  0.00000000  0.00000000  0.00000000  0.00000000  0.00000000  0.00000000  0.00000000  0.00000000
    Gval  0.00000000  0.00000049  0.00000168  0.00000205  0.00000303  0.00000769  0.00000853  0.00001274
    Gval  0.00001375  0.00001542  0.00001981  0.00002818  0.00002998  0.00004216  0.00004502  0.00004608
    Gval  0.00004788  0.00004929  0.00005020  0.00005609  0.00005613  0.00005724  0.00005827  0.00006701
    Gval  0.00006856  0.00007774  0.00008441  0.00008823  0.00010032  0.00010200  0.00010589  0.00011532
    Gval  0.00011692  0.00011777  0.00012093  0.00012245  0.00012684  0.00013285  0.00017142  0.00020928
    Gval  0.00022819  0.00025215  0.00026523  0.00027354  0.00027712  0.00029297  0.00031467  0.00035176
    Gval  0.00036125  0.00037745  0.00037969  0.00038957  0.00039228  0.00041562  0.00042938  0.00050676
    Gval  0.00053043  0.00056563  0.00059307  0.00059350  0.00059365  0.00059798  0.00059806  0.00060053
    Gval  0.00060364  0.00060409  0.00060428  0.00061665  0.00062625  0.00062877  0.00063582  0.00064171
    Gval  0.00064989  0.00066095  0.00070507  0.00092137  0.00104130  0.00105088  0.00106093  0.00107764
    Gval  0.00110373  0.00111043  0.00111099  0.00112693  0.00112886  0.00113913  0.00115759  0.00117045
    Gval  0.00117282  0.00117543  0.00117570  0.00140349  0.00142939  0.00145392  0.00151765  0.00176127
    Gval  0.00181389  0.00226287  0.00227073  0.00233755  0.00235460  0.00243750  0.00247848  0.00315948
    Gval  0.00366937  0.00371455  0.00373977  0.00378181  0.00406604
  4.892829324492240E-007  4.892829324492240E-007
  1.680322602680852E-006  4.892829324492240E-007
  2.051143260701791E-006  4.892829324492240E-007
  3.032889472472572E-006  4.892829324492240E-007
  7.693669709618935E-006  4.892829324492240E-007
  8.533842998854969E-006  4.892829324492240E-007
  1.273996529736847E-005  4.892829324492240E-007
  1.374674612912493E-005  4.892829324492240E-007
  1.542485323690862E-005  4.892829324492240E-007
  1.981128985167111E-005  4.892829324492240E-007
  2.818265640032384E-005  4.892829324492240E-007
  2.998189077279798E-005  4.892829324492240E-007
  4.215749218691213E-005  4.892829324492240E-007
  4.502419883693601E-005  4.892829324492240E-007
  4.608020812016653E-005  4.892829324492240E-007
  4.788275777966260E-005  4.892829324492240E-007
  4.928766595911318E-005  4.892829324492240E-007
  5.020321359587218E-005  4.892829324492240E-007
  5.608527197143217E-005  4.892829324492240E-007
  5.613075147548388E-005  4.892829324492240E-007
  5.724162081759323E-005  4.892829324492240E-007
  5.826759927285874E-005  4.892829324492240E-007
  6.701102129671529E-005  4.892829324492240E-007
  6.855521640358312E-005  4.892829324492240E-007
  7.773718989587729E-005  4.892829324492240E-007
  8.440985100026941E-005  4.892829324492240E-007
  8.823393683077563E-005  4.892829324492240E-007
  1.003230872845769E-004  4.892829324492240E-007
  1.019973836059746E-004  4.892829324492240E-007
  1.058857996828081E-004  4.892829324492240E-007
  1.153232575678071E-004  4.892829324492240E-007
  1.169189658766082E-004  4.892829324492240E-007
  1.177663473434209E-004  4.892829324492240E-007
  1.209290937942000E-004  4.892829324492240E-007
  1.224474700137426E-004  4.892829324492240E-007
  1.268364575778207E-004  4.892829324492240E-007
  1.328495839445441E-004  4.892829324492240E-007
  1.714171497992360E-004  4.892829324492240E-007
  2.092765546196353E-004  4.892829324492240E-007
  2.281916608577874E-004  4.892829324492240E-007
  2.521497242232887E-004  4.892829324492240E-007
  2.652330096612006E-004  4.892829324492240E-007
  2.735369134837343E-004  4.892829324492240E-007
  2.771209207756383E-004  4.892829324492240E-007
  2.929683142758009E-004  4.892829324492240E-007
  3.146675598830943E-004  4.892829324492240E-007
  3.517577339638136E-004  4.892829324492240E-007
  3.612528529726039E-004  4.892829324492240E-007
  3.774464233060299E-004  4.892829324492240E-007
  3.796890035731858E-004  4.892829324492240E-007
  3.895722618497112E-004  4.892829324492240E-007
  3.922840250394714E-004  4.892829324492240E-007
  4.156174416724941E-004  4.892829324492240E-007
  4.293844548093411E-004  4.892829324492240E-007
  5.067600555512575E-004  4.892829324492240E-007
  5.304263295626997E-004  4.892829324492240E-007
  5.656325583197949E-004  4.892829324492240E-007
  5.930715515537828E-004  4.892829324492240E-007
  5.935027303588769E-004  4.892829324492240E-007
  5.936457611075805E-004  4.892829324492240E-007
  5.979812742028012E-004  4.892829324492240E-007
  5.980578222844303E-004  4.892829324492240E-007
  6.005324098128473E-004  4.892829324492240E-007
  6.036380840791479E-004  4.892829324492240E-007
  6.040895232318107E-004  4.892829324492240E-007
  6.042752266115118E-004  4.892829324492240E-007
  6.166528589519782E-004  4.892829324492240E-007
  6.262536199132272E-004  4.892829324492240E-007
  6.287707756753135E-004  4.892829324492240E-007
  6.358176370235703E-004  4.892829324492240E-007
  6.417131674472119E-004  4.892829324492240E-007
  6.498857255230773E-004  4.892829324492240E-007
  6.609543799160832E-004  4.892829324492240E-007
  7.050694124252065E-004  4.892829324492240E-007
  9.213656823146495E-004  4.892829324492240E-007
  1.041302275595802E-003  4.892829324492240E-007
  1.050880432450648E-003  4.892829324492240E-007
  1.060931499731767E-003  4.892829324492240E-007
  1.077636889220662E-003  4.892829324492240E-007
  1.103728459448566E-003  4.892829324492240E-007
  1.110426256264256E-003  4.892829324492240E-007
  1.110988442927220E-003  4.892829324492240E-007
  1.126932944290529E-003  4.892829324492240E-007
  1.128859780267604E-003  4.892829324492240E-007
  1.139132128074283E-003  4.892829324492240E-007
  1.157585531039886E-003  4.892829324492240E-007
  1.170449484613776E-003  4.892829324492240E-007
  1.172815929429720E-003  4.892829324492240E-007
  1.175433461924992E-003  4.892829324492240E-007
  1.175704423472661E-003  4.892829324492240E-007
  1.403490643949628E-003  4.892829324492240E-007
  1.429387334592331E-003  4.892829324492240E-007
  1.453922856236643E-003  4.892829324492240E-007
  1.517653453217775E-003  4.892829324492240E-007
  1.761265725053609E-003  4.892829324492240E-007
  1.813886208318215E-003  4.892829324492240E-007
  2.262874433076711E-003  4.892829324492240E-007
  2.270734073721523E-003  4.892829324492240E-007
  2.337548138203475E-003  4.892829324492240E-007
  2.354597422975164E-003  4.892829324492240E-007
  2.437501597481569E-003  4.892829324492240E-007
  2.478477054865495E-003  4.892829324492240E-007
  3.159475403292570E-003  4.892829324492240E-007
  3.669365653567556E-003  4.892829324492240E-007
  3.714545219634502E-003  4.892829324492240E-007
  3.739774430072458E-003  4.892829324492240E-007
  3.781811200840404E-003  4.892829324492240E-007
  4.066039274525201E-003  4.892829324492240E-007
 cut=1d-8, nber non-redundant internal coords=         108
 Check on Eigenvals of non-red overlap matrix:
  0.00000049  0.00000168  0.00000205  0.00000303  0.00000769  0.00000853  0.00001274  0.00001375
  0.00001542  0.00001981  0.00002818  0.00002998  0.00004216  0.00004502  0.00004608  0.00004788
  0.00004929  0.00005020  0.00005609  0.00005613  0.00005724  0.00005827  0.00006701  0.00006856
  0.00007774  0.00008441  0.00008823  0.00010032  0.00010200  0.00010589  0.00011532  0.00011692
  0.00011777  0.00012093  0.00012245  0.00012684  0.00013285  0.00017142  0.00020928  0.00022819
  0.00025215  0.00026523  0.00027354  0.00027712  0.00029297  0.00031467  0.00035176  0.00036125
  0.00037745  0.00037969  0.00038957  0.00039228  0.00041562  0.00042938  0.00050676  0.00053043
  0.00056563  0.00059307  0.00059350  0.00059365  0.00059798  0.00059806  0.00060053  0.00060364
  0.00060409  0.00060428  0.00061665  0.00062625  0.00062877  0.00063582  0.00064171  0.00064989
  0.00066095  0.00070507  0.00092137  0.00104130  0.00105088  0.00106093  0.00107764  0.00110373
  0.00111043  0.00111099  0.00112693  0.00112886  0.00113913  0.00115759  0.00117045  0.00117282
  0.00117543  0.00117570  0.00140349  0.00142939  0.00145392  0.00151765  0.00176127  0.00181389
  0.00226287  0.00227073  0.00233755  0.00235460  0.00243750  0.00247848  0.00315948  0.00366937
  0.00371455  0.00373977  0.00378181  0.00406604
 Checking for correct frequencies
 recalc frequencies=
   -74.4   -0.0    0.0    0.0    0.0    0.0    0.0   19.9   33.7   52.9
    58.3   66.1  119.8  134.1  162.3  173.4  211.3  256.9  336.8  349.4
   378.2  390.4  409.3  414.3  420.9  442.8  444.6  482.9  506.8  514.5
   562.1  590.0  632.0  640.8  656.5  657.7  671.2  700.2  713.3  750.7
   779.8  784.6  814.0  816.4  826.2  841.0  849.1  875.7  905.0  925.8
   961.5  970.0  986.8 1001.5 1003.4 1005.7 1009.2 1012.9 1018.7 1018.9
  1020.0 1033.5 1054.4 1064.2 1071.0 1100.1 1110.7 1112.2 1113.1 1128.5
  1186.4 1194.3 1219.7 1222.6 1237.5 1274.9 1288.5 1303.0 1313.8 1332.3
  1344.0 1351.1 1366.1 1371.6 1410.0 1435.1 1448.3 1468.2 1471.7 1483.7
  1538.0 1542.0 1564.2 1589.3 1614.8 1615.0 1619.0 1621.8 1646.5 1652.6
  3143.2 3145.0 3156.7 3157.8 3164.0 3172.7 3186.7 3201.2 3201.9 3202.8
  3203.3 3206.5 3214.9 3216.5
 recalc symmetries=
     A2     A2     B1     B1     B2     A1     B2     B1     A2     B2 
     B1     A2     B1     B2     B1     A1     B2     B1     A1     B1 
     B2     A2     A2     A2     A2     B1     B2     A1     B2     B1 
     B1     B1     B2     B2     B2     A1     B2     B1     A1     B1 
     B1     A1     B1     B1     A1     A2     B1     A2     B1     B1 
     B1     A2     A2     A2     B1     B1     A1     A1     A2     B1 
     A1     A1     A1     A1     A1     A1     B2     A1     B2     B2 
     B2     A1     A1     B2     B2     B2     B2     A1     B2     B2 
     A1     B2     A1     B2     B2     B2     A1     B2     A1     B2 
     A1     A1     B2     B2     B2     A1     A1     B2     A1     A1 
     A1     B2     B2     A1     A1     B2     A1     B2     A1     B2 
     A1     A1     B2     A1 
 recalc freqs check OK
 Zero-point lengths:
 28.7322 10.0000 10.0000 10.0000 10.0000 10.0000 10.0000 55.5997 42.7086 34.0804
 32.4735 30.5011 22.6479 21.4078 19.4627 18.8247 17.0562 15.4675 13.5092 13.2620
 12.7481 12.5471 12.2533 12.1797 12.0836 11.7806 11.7570 11.2814 11.0127 10.9296
 10.4567 10.2065  9.8617  9.7936  9.6759  9.6669  9.5694  9.3686  9.2822  9.0484
  8.8776  8.8507  8.6892  8.6766  8.6247  8.5488  8.5077  8.3775  8.2409  8.1479
  7.9950  7.9599  7.8917  7.8339  7.8262  7.8173  7.8038  7.7894  7.7672  7.7667
  7.7624  7.7116  7.6346  7.5995  7.5752  7.4745  7.4388  7.4337  7.4307  7.3799
  7.1974  7.1735  7.0985  7.0900  7.0472  6.9431  6.9065  6.8678  6.8396  6.7918
  6.7623  6.7446  6.7075  6.6940  6.6022  6.5442  6.5142  6.4699  6.4623  6.4362
  6.3215  6.3134  6.2683  6.2187  6.1693  6.1690  6.1612  6.1560  6.1097  6.0984
  4.4219  4.4206  4.4125  4.4117  4.4073  4.4013  4.3917  4.3817  4.3812  4.3805
  4.3802  4.3780  4.3723  4.3712
 highest evec of mol 1
  0.0000  0.0000  0.0001
  0.0000 -0.0002  0.0001
  0.0000  0.0000 -0.0000
  0.0000  0.0000  0.0001
  0.0000  0.0000 -0.0000
  0.0000 -0.0007 -0.0002
  0.0000 -0.0008  0.0003
  0.0000  0.0000  0.0014
  0.0000  0.0000  0.0068
  0.0000  0.1252  0.0778
  0.0000  0.1244 -0.0774
  0.0000  0.0000 -0.0068
  0.0000  0.0000 -0.0014
  0.0000 -0.0008 -0.0003
  0.0000 -0.0009  0.0002
  0.0000  0.0000  0.0026
  0.0000  0.0009  0.0002
  0.0000  0.0008 -0.0003
  0.0000 -0.1244 -0.0774
  0.0000 -0.1252  0.0778
  0.0000  0.0008  0.0003
  0.0000  0.0007 -0.0002
  0.0000 -0.0000 -0.0000
  0.0000  0.0002  0.0001
  0.0000  0.0000 -0.0004
  0.0000  0.0005 -0.0003
  0.0000 -0.0002 -0.0001
  0.0000  0.0016  0.0007
  0.0000 -0.4136 -0.2422
  0.0000 -0.4111  0.2409
  0.0000  0.0021 -0.0010
  0.0000  0.0000 -0.0083
  0.0000 -0.0021 -0.0010
  0.0000  0.4111  0.2409
  0.0000  0.4136 -0.2422
  0.0000 -0.0016  0.0007
  0.0000  0.0002 -0.0001
  0.0000 -0.0005 -0.0003
 generating redundant internal coords
         300        3600          38
 Adding extra bonds for z output only
           6           6           6           6           6           6
           7           6           6           6           6           6
           6           7           6           6           6           7
           6           6           7           6           6           6
           1           1           1           1           1           1
           1           1           1           1           1           1
           1           1
 search for int coords
   1 str   2   1   1.393
   2 str   3   2   1.390
   3 str   4   3   1.406
   4 str   5   4   1.484
   5 str   6   5   1.404
   6 str   7   6   1.327
   7 str   8   7   1.343
   8 str   9   8   1.480
   9 str  10   9   1.403
  10 str  11  10   1.386
  11 str  12  11   1.402
  12 str  13  12   1.482
  13 str  14  13   1.344
  14 str  15  14   1.330
  15 str  16  15   1.391
  16 str  17  16   1.391
  17 str  18  13   1.344
  18 str  18  17   1.330
  19 str  19  12   1.402
  20 str  20   9   1.403
  21 str  20  19   1.386
  22 str  21   8   1.343
  23 str  22   5   1.404
  24 str  22  21   1.327
  25 str  23   4   1.406
  26 str  24   1   1.393
  27 str  24  23   1.390
  28 str  25   1   1.084
  29 str  26   2   1.084
  30 str  27   3   1.082
  31 str  28   6   1.085
  32 str  29  10   1.082
  33 str  30  11   1.082
  34 str  31  15   1.087
  35 str  32  16   1.082
  36 str  33  17   1.087
  37 str  34  19   1.082
  38 str  35  20   1.082
  39 str  36  22   1.085
  40 str  37  23   1.082
  41 str  38  24   1.084
 nber stretches=          41
  42 ben   1   2   3
  43 prop tor   1   2   3   4
  44 prop tor   1   2   3  27
  45 ben   1   2  26
  46 ben   1  24  23
  47 ben   1  24  38
  48 ben   2   1  24
  49 prop tor   2   1  24  23
  50 prop tor   2   1  24  38
  51 ben   2   1  25
  52 ben   2   3   4
  53 prop tor   2   3   4   5
  54 prop tor   2   3   4  23
  55 ben   2   3  27
  56 ben   3   2  26
  57 ben   3   4   5
  58 prop tor   3   4   5   6
  59 prop tor   3   4   5  22
  60 ben   3   4  23
  61 prop tor   3   4  23  24
  62 prop tor   3   4  23  37
  63 ben   4   3  27
  64 ben   4   5   6
  65 prop tor   4   5   6   7
  66 prop tor   4   5   6  28
  67 ben   4   5  22
  68 prop tor   4   5  22  21
  69 prop tor   4   5  22  36
  70 ben   4  23  24
  71 prop tor   4  23  24   1
  72 prop tor   4  23  24  38
  73 ben   4  23  37
  74 ben   5   4  23
  75 prop tor   5   4  23  24
  76 prop tor   5   4  23  37
  77 ben   5   6   7
  78 prop tor   5   6   7   8
  79 ben   5   6  28
  80 ben   5  22  21
  81 ben   5  22  36
  82 ben   6   5  22
  83 prop tor   6   5  22  21
  84 prop tor   6   5  22  36
  85 ben   6   7   8
  86 prop tor   6   7   8   9
  87 prop tor   6   7   8  21
  88 ben   7   6  28
  89 ben   7   8   9
  90 prop tor   7   8   9  10
  91 prop tor   7   8   9  20
  92 ben   7   8  21
  93 prop tor   7   8  21  22
  94 ben   8   9  10
  95 prop tor   8   9  10  11
  96 prop tor   8   9  10  29
  97 ben   8   9  20
  98 prop tor   8   9  20  19
  99 prop tor   8   9  20  35
 100 ben   8  21  22
 101 prop tor   8  21  22   5
 102 prop tor   8  21  22  36
 103 ben   9   8  21
 104 prop tor   9   8  21  22
 105 ben   9  10  11
 106 prop tor   9  10  11  12
 107 prop tor   9  10  11  30
 108 ben   9  10  29
 109 ben   9  20  19
 110 ben   9  20  35
 111 ben  10   9  20
 112 prop tor  10   9  20  19
 113 prop tor  10   9  20  35
 114 ben  10  11  12
 115 prop tor  10  11  12  13
 116 prop tor  10  11  12  19
 117 ben  10  11  30
 118 ben  11  10  29
 119 ben  11  12  13
 120 prop tor  11  12  13  14
 121 prop tor  11  12  13  18
 122 ben  11  12  19
 123 prop tor  11  12  19  20
 124 prop tor  11  12  19  34
 125 ben  12  11  30
 126 ben  12  13  14
 127 prop tor  12  13  14  15
 128 ben  12  13  18
 129 prop tor  12  13  18  17
 130 ben  12  19  20
 131 prop tor  12  19  20   9
 132 prop tor  12  19  20  35
 133 ben  12  19  34
 134 ben  13  12  19
 135 prop tor  13  12  19  20
 136 prop tor  13  12  19  34
 137 ben  13  14  15
 138 prop tor  13  14  15  16
 139 prop tor  13  14  15  31
 140 ben  13  18  17
 141 ben  14  13  18
 142 prop tor  14  13  18  17
 143 ben  14  15  16
 144 prop tor  14  15  16  17
 145 prop tor  14  15  16  32
 146 ben  14  15  31
 147 ben  15  16  17
 148 prop tor  15  16  17  18
 149 prop tor  15  16  17  33
 150 ben  15  16  32
 151 ben  16  15  31
 152 ben  16  17  18
 153 prop tor  16  17  18  13
 154 ben  16  17  33
 155 ben  17  16  32
 156 prop tor  18  13  14  15
 157 ben  18  17  33
 158 prop tor  19  12  13  14
 159 prop tor  19  12  13  18
 160 ben  19  20  35
 161 prop tor  20   9  10  11
 162 prop tor  20   9  10  29
 163 ben  20  19  34
 164 prop tor  21   8   9  10
 165 prop tor  21   8   9  20
 166 ben  21  22  36
 167 prop tor  22   5   6   7
 168 prop tor  22   5   6  28
 169 prop tor  23   4   5   6
 170 prop tor  23   4   5  22
 171 ben  23  24  38
 172 prop tor  24   1   2   3
 173 prop tor  24   1   2  26
 174 ben  24   1  25
 175 ben  24  23  37
 176 prop tor  25   1   2   3
 177 prop tor  25   1   2  26
 178 prop tor  25   1  24  23
 179 prop tor  25   1  24  38
 180 prop tor  26   2   3   4
 181 prop tor  26   2   3  27
 182 prop tor  27   3   4   5
 183 prop tor  27   3   4  23
 184 prop tor  28   6   7   8
 185 prop tor  29  10  11  12
 186 prop tor  29  10  11  30
 187 prop tor  30  11  12  13
 188 prop tor  30  11  12  19
 189 prop tor  31  15  16  17
 190 prop tor  31  15  16  32
 191 prop tor  32  16  17  18
 192 prop tor  32  16  17  33
 193 prop tor  33  17  18  13
 194 prop tor  34  19  20   9
 195 prop tor  34  19  20  35
 196 prop tor  37  23  24   1
 197 prop tor  37  23  24  38
 nber bend=              64
 nber lin bend=           0
 nber prop tor=          92
 nber impr tor=           0
 nber tot redund int=         197
 Reading file: 
 ./Non-cov-phenyl-N_3_C0S1.log                                                  
                                          
  Entering Gaussian System, Link 0=g16                                          
  
 Gaussian format, type: g94, g98, g03= F F F
  #P Geom=AllCheck Guess=TCheck SCRF=Check GenChk RB3LYP TD(FC,Read)/6-3    
 energy type= TD      
 Original G94 input coords:
  6  7.538662  0.000000  0.000000
  6  6.830307 -1.206901  0.000000
  6  5.447778 -1.212408  0.000000
  6  4.698775  0.000000  0.000000
  6  3.253674  0.000000  0.000000
  6  2.465398  1.193626  0.000000
  7  1.157916  1.209442  0.000000
  6  0.505771  0.000000  0.000000
  6 -0.922662  0.000000  0.000000
  6 -1.659426  1.226895  0.000000
  6 -3.030175  1.222885  0.000000
  6 -3.759128  0.000000  0.000000
  6 -5.212087  0.000000  0.000000
  7 -5.844698  1.202905  0.000000
  6 -7.168499  1.185014  0.000000
  6 -7.909620  0.000000  0.000000
  6 -7.168499 -1.185014  0.000000
  7 -5.844698 -1.202905  0.000000
  6 -3.030175 -1.222885  0.000000
  6 -1.659426 -1.226895  0.000000
  7  1.157916 -1.209442  0.000000
  6  2.465398 -1.193626  0.000000
  6  5.447778  1.212408  0.000000
  6  6.830307  1.206901  0.000000
  1  8.622508  0.000000  0.000000
  1  7.367685 -2.148766  0.000000
  1  4.935277 -2.164407  0.000000
  1  2.944051  2.168717  0.000000
  1 -1.103595  2.154697  0.000000
  1 -3.589662  2.148354  0.000000
  1 -7.664585  2.153068  0.000000
  1 -8.991435  0.000000  0.000000
  1 -7.664585 -2.153068  0.000000
  1 -3.589662 -2.148354  0.000000
  1 -1.103595 -2.154697  0.000000
  1  2.944051 -2.168717  0.000000
  1  4.935277  2.164407  0.000000
  1  7.367685  2.148766  0.000000
 nber atoms=          38
 Original standard coords:
  6  0.000000  0.000000 -7.763480
  6  0.000000  1.206901 -7.055126
  6  0.000000  1.212408 -5.672596
  6  0.000000  0.000000 -4.923594
  6  0.000000  0.000000 -3.478493
  6  0.000000 -1.193626 -2.690217
  7  0.000000 -1.209442 -1.382735
  6  0.000000  0.000000 -0.730590
  6  0.000000  0.000000  0.697843
  6  0.000000 -1.226895  1.434608
  6  0.000000 -1.222885  2.805357
  6  0.000000  0.000000  3.534309
  6  0.000000  0.000000  4.987268
  7  0.000000 -1.202905  5.619879
  6  0.000000 -1.185014  6.943680
  6  0.000000  0.000000  7.684801
  6  0.000000  1.185014  6.943680
  7  0.000000  1.202905  5.619879
  6  0.000000  1.222885  2.805357
  6  0.000000  1.226895  1.434608
  7  0.000000  1.209442 -1.382735
  6  0.000000  1.193626 -2.690217
  6  0.000000 -1.212408 -5.672596
  6  0.000000 -1.206901 -7.055126
  1  0.000000  0.000000 -8.847327
  1  0.000000  2.148766 -7.592504
  1  0.000000  2.164407 -5.160096
  1  0.000000 -2.168717 -3.168870
  1  0.000000 -2.154697  0.878776
  1  0.000000 -2.148354  3.364844
  1  0.000000 -2.153068  7.439766
  1  0.000000  0.000000  8.766617
  1  0.000000  2.153068  7.439766
  1  0.000000  2.148354  3.364844
  1  0.000000  2.154697  0.878776
  1  0.000000  2.168717 -3.168870
  1  0.000000 -2.164407 -5.160096
  1  0.000000 -2.148766 -7.592504
  Total Energy, E(TD-HF/TD-DFT) =  -989.686722584                               
  
          32          49 "  -989.686722584"
After scan for Atom:   Atom  AN      X      Y      Z        X      Y      Z        X      Y      Z   
After scan for Atom:   Atom  AN      X      Y      Z        X      Y      Z        X      Y      Z   
After scan for Atom:   Atom  AN      X      Y      Z        X      Y      Z        X      Y      Z   
After scan for Atom:   Atom  AN      X      Y      Z        X      Y      Z        X      Y      Z   
After scan for Atom:   Atom  AN      X      Y      Z        X      Y      Z        X      Y      Z   
After scan for Atom:   Atom  AN      X      Y      Z        X      Y      Z        X      Y      Z   
After scan for Atom:   Atom  AN      X      Y      Z        X      Y      Z        X      Y      Z   
After scan for Atom:   Atom  AN      X      Y      Z        X      Y      Z        X      Y      Z   
After scan for Atom:   Atom  AN      X      Y      Z        X      Y      Z        X      Y      Z   
After scan for Atom:   Atom  AN      X      Y      Z        X      Y      Z        X      Y      Z   
After scan for Atom:   Atom  AN      X      Y      Z        X      Y      Z        X      Y      Z   
After scan for Atom:   Atom  AN      X      Y      Z        X      Y      Z        X      Y      Z   
After scan for Atom:   Atom  AN      X      Y      Z        X      Y      Z        X      Y      Z   
After scan for Atom:   Atom  AN      X      Y      Z        X      Y      Z        X      Y      Z   
After scan for Atom:   Atom  AN      X      Y      Z        X      Y      Z        X      Y      Z   
After scan for Atom:   Atom  AN      X      Y      Z        X      Y      Z        X      Y      Z   
After scan for Atom:   Atom  AN      X      Y      Z        X      Y      Z        X      Y      Z   
After scan for Atom:   Atom  AN      X      Y      Z        X      Y      Z        X      Y      Z   
After scan for Atom:   Atom  AN      X      Y      Z        X      Y      Z        X      Y      Z   
After scan for Atom:   Atom  AN      X      Y      Z        X      Y      Z        X      Y      Z   
After scan for Atom:   Atom  AN      X      Y      Z        X      Y      Z        X      Y      Z   
After scan for Atom:   Atom  AN      X      Y      Z        X      Y      Z        X      Y      Z   
After scan for Atom:   Atom  AN      X      Y      Z        X      Y      Z        X      Y      Z   
After scan for Atom:   Atom  AN      X      Y      Z        X      Y      Z        X      Y      Z   
After scan for Atom:   Atom  AN      X      Y      Z        X      Y      Z        X      Y      Z   
After scan for Atom:   Atom  AN      X      Y      Z        X      Y      Z        X      Y      Z   
After scan for Atom:   Atom  AN      X      Y      Z        X      Y      Z        X      Y      Z   
After scan for Atom:   Atom  AN      X      Y      Z        X      Y      Z        X      Y      Z   
After scan for Atom:   Atom  AN      X      Y      Z        X      Y      Z        X      Y      Z   
After scan for Atom:   Atom  AN      X      Y      Z        X      Y      Z        X      Y      Z   
After scan for Atom:   Atom  AN      X      Y      Z        X      Y      Z        X      Y      Z   
After scan for Atom:   Atom  AN      X      Y      Z        X      Y      Z        X      Y      Z   
After scan for Atom:   Atom  AN      X      Y      Z        X      Y      Z        X      Y      Z   
After scan for Atom:   Atom  AN      X      Y      Z        X      Y      Z        X      Y      Z   
After scan for Atom:   Atom  AN      X      Y      Z        X      Y      Z        X      Y      Z   
After scan for Atom:   Atom  AN      X      Y      Z        X      Y      Z        X      Y      Z   
 g94    frequencies=
     0.0    0.0    0.0    0.0    0.0    0.0  -47.9   14.6   49.1   53.4
    54.2   98.1  107.1  134.5  136.4  174.3  208.0  219.4  294.7  336.5
   381.5  391.6  393.8  399.4  414.3  417.8  442.9  465.2  487.2  501.4
   517.5  559.0  615.0  621.0  639.2  648.9  657.4  670.5  700.6  727.6
   728.2  749.2  772.4  783.0  793.6  794.9  815.7  824.4  861.6  878.4
   904.8  940.4  973.7  977.0  985.1  987.4  987.8  994.9 1000.6 1006.5
  1010.2 1011.6 1014.5 1041.8 1048.8 1062.0 1089.5 1103.0 1110.7 1123.9
  1181.1 1187.5 1194.1 1218.0 1236.1 1263.6 1282.9 1313.2 1331.7 1339.6
  1352.1 1362.6 1366.6 1408.9 1418.3 1430.4 1433.4 1441.0 1463.1 1484.9
  1488.4 1493.8 1504.3 1524.6 1532.5 1565.9 1590.0 1615.8 1632.9 1670.5
  3133.1 3134.2 3145.2 3147.1 3165.7 3173.2 3189.2 3204.3 3204.4 3204.9
  3208.8 3210.5 3217.6 3219.2
 g94    symmetries=
                                                A2     B1     B1     B2
      A2     A2     B1     B2     B1     A1     B2     B1     B1     A1
      B2     A2     B1     A2     A2     A2     B2     B1     A1     B2
      B1     B1     B2     B2     A1     B2     B2     B1     A1     A2
      B1     A1     B1     B1     B1     A1     A2     B1     A2     B1
      B1     B1     A2     A1     B1     A2     A1     B1     A1     A1
      A1     A2     B1     A1     A1     A1     A1     B2     B2     B2
      B2     B2     A1     A1     B2     B2     B2     B2     B2     A1
      B2     B2     A1     A1     B2     A1     B2     A1     B2     B2
      B2     B2     A1     A1     B2     B2     A1     A1     A1     A1
      A1     B2     B2     A1     A1     B2     A1     A1     B2     A1
      B2     A1     B2     A1
 atomic masses:
 12.0000 12.0000 12.0000 12.0000 12.0000 12.0000 14.0031 12.0000 12.0000 12.0000
 12.0000 12.0000 12.0000 14.0031 12.0000 12.0000 12.0000 14.0031 12.0000 12.0000
 14.0031 12.0000 12.0000 12.0000  1.0078  1.0078  1.0078  1.0078  1.0078  1.0078
  1.0078  1.0078  1.0078  1.0078  1.0078  1.0078  1.0078  1.0078
 looking for force constants in 
 ./Non-cov-phenyl-N_3_C0S1.fchk                                                 
  
 Cartesian Force Constants                  R   N=        6555                  
  
 n3=         114        6555
 g94-fc frequencies=
   -47.9   -1.7   -1.6   -0.0   -0.0    0.0    1.3   14.6   49.1   53.4
    54.2   98.1  107.1  134.5  136.4  174.3  208.0  219.4  294.7  336.5
   381.5  391.6  393.8  399.4  414.3  417.9  442.9  465.2  487.2  501.4
   517.5  559.0  615.0  621.0  639.2  648.9  657.4  670.5  700.6  727.6
   728.3  749.2  772.4  783.0  793.6  795.0  815.7  824.4  861.6  878.4
   904.8  940.4  973.7  977.0  985.1  987.4  987.8  994.9 1000.7 1006.5
  1010.2 1011.6 1014.6 1041.8 1048.8 1062.0 1089.5 1103.1 1110.7 1123.9
  1181.1 1187.5 1194.1 1218.0 1236.1 1263.6 1282.9 1313.3 1331.7 1339.6
  1352.1 1362.7 1366.6 1409.0 1418.3 1430.4 1433.4 1441.1 1463.2 1484.9
  1488.5 1493.9 1504.3 1524.7 1532.5 1566.0 1590.0 1615.8 1632.9 1670.6
  3133.2 3134.2 3145.2 3147.2 3165.8 3173.3 3189.3 3204.4 3204.4 3205.0
  3208.8 3210.6 3217.7 3219.2
 at 99999: n3=         114
 symm operator            1 :  T  nop=           1
 symm operator            2 :  F  nop=           1
 symm operator            3 :  F  nop=           1
 symm operator            4 :  F  nop=           1
 symm operator            5 :  F  nop=           1
 symm operator            6 :  T  nop=           2
 symm operator            7 :  T  nop=           3
 The point group of the molecule is C2V
 enforcing symm op           1  jsymt=          -1          -1           1
 enforcing symm op           6  jsymt=           1          -1           1
 enforcing symm op           7  jsymt=          -1           1           1
 cartesian coord symmetries:
 A1 :   38 A2 :   14 B1 :   24 B2 :   38
 Symmetry rotation matrix:
   1.00000   0.00000   0.00000
   0.00000   1.00000   0.00000
   0.00000   0.00000   1.00000

 Projecting out zero-frequency components
 generating redundant internal coords
         300        3600          38
 search for int coords
   1 str   2   1   1.399
   2 str   3   2   1.383
   3 str   4   3   1.425
   4 str   5   4   1.445
   5 str   6   5   1.430
   6 str   7   6   1.308
   7 str   8   7   1.374
   8 str   9   8   1.428
   9 str  10   9   1.431
  10 str  11  10   1.371
  11 str  12  11   1.424
  12 str  13  12   1.453
  13 str  14  13   1.359
  14 str  15  14   1.324
  15 str  16  15   1.398
  16 str  17  16   1.398
  17 str  18  13   1.359
  18 str  18  17   1.324
  19 str  19  12   1.424
  20 str  20   9   1.431
  21 str  20  19   1.371
  22 str  21   8   1.374
  23 str  22   5   1.430
  24 str  22  21   1.308
  25 str  23   4   1.425
  26 str  24   1   1.399
  27 str  24  23   1.383
  28 str  25   1   1.084
  29 str  26   2   1.084
  30 str  27   3   1.081
  31 str  28   6   1.086
  32 str  29  10   1.082
  33 str  30  11   1.081
  34 str  31  15   1.088
  35 str  32  16   1.082
  36 str  33  17   1.088
  37 str  34  19   1.081
  38 str  35  20   1.082
  39 str  36  22   1.086
  40 str  37  23   1.081
  41 str  38  24   1.084
 nber stretches=          41
  42 ben   1   2   3
  43 prop tor   1   2   3   4
  44 prop tor   1   2   3  27
  45 ben   1   2  26
  46 ben   1  24  23
  47 ben   1  24  38
  48 ben   2   1  24
  49 prop tor   2   1  24  23
  50 prop tor   2   1  24  38
  51 ben   2   1  25
  52 ben   2   3   4
  53 prop tor   2   3   4   5
  54 prop tor   2   3   4  23
  55 ben   2   3  27
  56 ben   3   2  26
  57 ben   3   4   5
  58 prop tor   3   4   5   6
  59 prop tor   3   4   5  22
  60 ben   3   4  23
  61 prop tor   3   4  23  24
  62 prop tor   3   4  23  37
  63 ben   4   3  27
  64 ben   4   5   6
  65 prop tor   4   5   6   7
  66 prop tor   4   5   6  28
  67 ben   4   5  22
  68 prop tor   4   5  22  21
  69 prop tor   4   5  22  36
  70 ben   4  23  24
  71 prop tor   4  23  24   1
  72 prop tor   4  23  24  38
  73 ben   4  23  37
  74 ben   5   4  23
  75 prop tor   5   4  23  24
  76 prop tor   5   4  23  37
  77 ben   5   6   7
  78 prop tor   5   6   7   8
  79 ben   5   6  28
  80 ben   5  22  21
  81 ben   5  22  36
  82 ben   6   5  22
  83 prop tor   6   5  22  21
  84 prop tor   6   5  22  36
  85 ben   6   7   8
  86 prop tor   6   7   8   9
  87 prop tor   6   7   8  21
  88 ben   7   6  28
  89 ben   7   8   9
  90 prop tor   7   8   9  10
  91 prop tor   7   8   9  20
  92 ben   7   8  21
  93 prop tor   7   8  21  22
  94 ben   8   9  10
  95 prop tor   8   9  10  11
  96 prop tor   8   9  10  29
  97 ben   8   9  20
  98 prop tor   8   9  20  19
  99 prop tor   8   9  20  35
 100 ben   8  21  22
 101 prop tor   8  21  22   5
 102 prop tor   8  21  22  36
 103 ben   9   8  21
 104 prop tor   9   8  21  22
 105 ben   9  10  11
 106 prop tor   9  10  11  12
 107 prop tor   9  10  11  30
 108 ben   9  10  29
 109 ben   9  20  19
 110 ben   9  20  35
 111 ben  10   9  20
 112 prop tor  10   9  20  19
 113 prop tor  10   9  20  35
 114 ben  10  11  12
 115 prop tor  10  11  12  13
 116 prop tor  10  11  12  19
 117 ben  10  11  30
 118 ben  11  10  29
 119 ben  11  12  13
 120 prop tor  11  12  13  14
 121 prop tor  11  12  13  18
 122 ben  11  12  19
 123 prop tor  11  12  19  20
 124 prop tor  11  12  19  34
 125 ben  12  11  30
 126 ben  12  13  14
 127 prop tor  12  13  14  15
 128 ben  12  13  18
 129 prop tor  12  13  18  17
 130 ben  12  19  20
 131 prop tor  12  19  20   9
 132 prop tor  12  19  20  35
 133 ben  12  19  34
 134 ben  13  12  19
 135 prop tor  13  12  19  20
 136 prop tor  13  12  19  34
 137 ben  13  14  15
 138 prop tor  13  14  15  16
 139 prop tor  13  14  15  31
 140 ben  13  18  17
 141 ben  14  13  18
 142 prop tor  14  13  18  17
 143 ben  14  15  16
 144 prop tor  14  15  16  17
 145 prop tor  14  15  16  32
 146 ben  14  15  31
 147 ben  15  16  17
 148 prop tor  15  16  17  18
 149 prop tor  15  16  17  33
 150 ben  15  16  32
 151 ben  16  15  31
 152 ben  16  17  18
 153 prop tor  16  17  18  13
 154 ben  16  17  33
 155 ben  17  16  32
 156 prop tor  18  13  14  15
 157 ben  18  17  33
 158 prop tor  19  12  13  14
 159 prop tor  19  12  13  18
 160 ben  19  20  35
 161 prop tor  20   9  10  11
 162 prop tor  20   9  10  29
 163 ben  20  19  34
 164 prop tor  21   8   9  10
 165 prop tor  21   8   9  20
 166 ben  21  22  36
 167 prop tor  22   5   6   7
 168 prop tor  22   5   6  28
 169 prop tor  23   4   5   6
 170 prop tor  23   4   5  22
 171 ben  23  24  38
 172 prop tor  24   1   2   3
 173 prop tor  24   1   2  26
 174 ben  24   1  25
 175 ben  24  23  37
 176 prop tor  25   1   2   3
 177 prop tor  25   1   2  26
 178 prop tor  25   1  24  23
 179 prop tor  25   1  24  38
 180 prop tor  26   2   3   4
 181 prop tor  26   2   3  27
 182 prop tor  27   3   4   5
 183 prop tor  27   3   4  23
 184 prop tor  28   6   7   8
 185 prop tor  29  10  11  12
 186 prop tor  29  10  11  30
 187 prop tor  30  11  12  13
 188 prop tor  30  11  12  19
 189 prop tor  31  15  16  17
 190 prop tor  31  15  16  32
 191 prop tor  32  16  17  18
 192 prop tor  32  16  17  33
 193 prop tor  33  17  18  13
 194 prop tor  34  19  20   9
 195 prop tor  34  19  20  35
 196 prop tor  37  23  24   1
 197 prop tor  37  23  24  38
 nber bend=              64
 nber lin bend=           0
 nber prop tor=          92
 nber impr tor=           0
 nber tot redund int=         197
 Eigenvalues of G in red int coords
    Gval -0.00000000 -0.00000000 -0.00000000 -0.00000000 -0.00000000 -0.00000000 -0.00000000 -0.00000000
    Gval -0.00000000 -0.00000000 -0.00000000 -0.00000000 -0.00000000 -0.00000000 -0.00000000 -0.00000000
    Gval -0.00000000 -0.00000000 -0.00000000 -0.00000000 -0.00000000 -0.00000000 -0.00000000 -0.00000000
    Gval -0.00000000 -0.00000000 -0.00000000 -0.00000000 -0.00000000 -0.00000000 -0.00000000 -0.00000000
    Gval -0.00000000 -0.00000000 -0.00000000 -0.00000000 -0.00000000 -0.00000000  0.00000000  0.00000000
    Gval  0.00000000  0.00000000  0.00000000  0.00000000  0.00000000  0.00000000  0.00000000  0.00000000
    Gval  0.00000000  0.00000000  0.00000000  0.00000000  0.00000000  0.00000000  0.00000000  0.00000000
    Gval  0.00000000  0.00000000  0.00000000  0.00000000  0.00000000  0.00000000  0.00000000  0.00000000
    Gval  0.00000000  0.00000000  0.00000000  0.00000000  0.00000000  0.00000000  0.00000000  0.00000000
    Gval  0.00000000  0.00000000  0.00000000  0.00000000  0.00000000  0.00000000  0.00000000  0.00000000
    Gval  0.00000000  0.00000000  0.00000000  0.00000000  0.00000000  0.00000000  0.00000000  0.00000000
    Gval  0.00000000  0.00000049  0.00000171  0.00000204  0.00000305  0.00000765  0.00000849  0.00001263
    Gval  0.00001395  0.00001533  0.00002008  0.00002803  0.00002961  0.00004216  0.00004498  0.00004528
    Gval  0.00004775  0.00004918  0.00005070  0.00005592  0.00005600  0.00005723  0.00005809  0.00006687
    Gval  0.00006890  0.00007766  0.00008223  0.00008903  0.00010057  0.00010356  0.00010617  0.00011497
    Gval  0.00011672  0.00011839  0.00012081  0.00012162  0.00012805  0.00013196  0.00017385  0.00021049
    Gval  0.00023039  0.00025293  0.00026130  0.00026818  0.00027718  0.00028817  0.00030820  0.00034766
    Gval  0.00035622  0.00037466  0.00038414  0.00038626  0.00039810  0.00042176  0.00043654  0.00051131
    Gval  0.00053392  0.00056949  0.00058444  0.00059306  0.00059352  0.00059362  0.00059801  0.00060026
    Gval  0.00060379  0.00060436  0.00060789  0.00061660  0.00062554  0.00062920  0.00063602  0.00064150
    Gval  0.00064803  0.00066001  0.00071322  0.00091853  0.00104126  0.00105198  0.00106058  0.00107581
    Gval  0.00110194  0.00110630  0.00110927  0.00112350  0.00112677  0.00114051  0.00115984  0.00117117
    Gval  0.00117191  0.00117353  0.00117655  0.00139837  0.00142013  0.00144124  0.00149631  0.00174851
    Gval  0.00180136  0.00224403  0.00224899  0.00231654  0.00234367  0.00242538  0.00246946  0.00316298
    Gval  0.00367829  0.00371478  0.00372771  0.00378517  0.00405873
  4.928184823726423E-007  4.928184823726423E-007
  1.708401243156278E-006  4.928184823726423E-007
  2.037239835227510E-006  4.928184823726423E-007
  3.046297692422116E-006  4.928184823726423E-007
  7.653799816809904E-006  4.928184823726423E-007
  8.489996111717245E-006  4.928184823726423E-007
  1.263035905796154E-005  4.928184823726423E-007
  1.395152862418767E-005  4.928184823726423E-007
  1.532900799113974E-005  4.928184823726423E-007
  2.007783090347405E-005  4.928184823726423E-007
  2.803376657347292E-005  4.928184823726423E-007
  2.961235815103657E-005  4.928184823726423E-007
  4.216221390959409E-005  4.928184823726423E-007
  4.498408074704786E-005  4.928184823726423E-007
  4.527536249047072E-005  4.928184823726423E-007
  4.775491150679407E-005  4.928184823726423E-007
  4.918238550654824E-005  4.928184823726423E-007
  5.070488270559783E-005  4.928184823726423E-007
  5.592473221613426E-005  4.928184823726423E-007
  5.600017149306560E-005  4.928184823726423E-007
  5.723194592680150E-005  4.928184823726423E-007
  5.809377981836442E-005  4.928184823726423E-007
  6.686660058262470E-005  4.928184823726423E-007
  6.890467413524119E-005  4.928184823726423E-007
  7.766437311209647E-005  4.928184823726423E-007
  8.222726596538673E-005  4.928184823726423E-007
  8.903201999649635E-005  4.928184823726423E-007
  1.005709129482710E-004  4.928184823726423E-007
  1.035592682933385E-004  4.928184823726423E-007
  1.061696619569656E-004  4.928184823726423E-007
  1.149664761400144E-004  4.928184823726423E-007
  1.167211019497101E-004  4.928184823726423E-007
  1.183944266047637E-004  4.928184823726423E-007
  1.208053365925354E-004  4.928184823726423E-007
  1.216184080624435E-004  4.928184823726423E-007
  1.280517774700079E-004  4.928184823726423E-007
  1.319574905271359E-004  4.928184823726423E-007
  1.738477406828021E-004  4.928184823726423E-007
  2.104891492794499E-004  4.928184823726423E-007
  2.303863837734985E-004  4.928184823726423E-007
  2.529253332566272E-004  4.928184823726423E-007
  2.613010635700906E-004  4.928184823726423E-007
  2.681797830302011E-004  4.928184823726423E-007
  2.771786267707225E-004  4.928184823726423E-007
  2.881741054635973E-004  4.928184823726423E-007
  3.082007753808598E-004  4.928184823726423E-007
  3.476588938868365E-004  4.928184823726423E-007
  3.562232138676930E-004  4.928184823726423E-007
  3.746595988048446E-004  4.928184823726423E-007
  3.841422993315137E-004  4.928184823726423E-007
  3.862630500625549E-004  4.928184823726423E-007
  3.980990406266467E-004  4.928184823726423E-007
  4.217552126854953E-004  4.928184823726423E-007
  4.365355841591309E-004  4.928184823726423E-007
  5.113103292630785E-004  4.928184823726423E-007
  5.339152654913852E-004  4.928184823726423E-007
  5.694891490735560E-004  4.928184823726423E-007
  5.844426989363732E-004  4.928184823726423E-007
  5.930551376207967E-004  4.928184823726423E-007
  5.935181981715344E-004  4.928184823726423E-007
  5.936172977649346E-004  4.928184823726423E-007
  5.980060904752102E-004  4.928184823726423E-007
  6.002609819078442E-004  4.928184823726423E-007
  6.037925700332643E-004  4.928184823726423E-007
  6.043570512602723E-004  4.928184823726423E-007
  6.078894385710644E-004  4.928184823726423E-007
  6.166023823581891E-004  4.928184823726423E-007
  6.255380849559089E-004  4.928184823726423E-007
  6.292011027460199E-004  4.928184823726423E-007
  6.360209079210218E-004  4.928184823726423E-007
  6.414981717581229E-004  4.928184823726423E-007
  6.480348668449933E-004  4.928184823726423E-007
  6.600090536221440E-004  4.928184823726423E-007
  7.132161935933076E-004  4.928184823726423E-007
  9.185260262583330E-004  4.928184823726423E-007
  1.041255794729077E-003  4.928184823726423E-007
  1.051983030618856E-003  4.928184823726423E-007
  1.060575034315614E-003  4.928184823726423E-007
  1.075808165088654E-003  4.928184823726423E-007
  1.101942642853858E-003  4.928184823726423E-007
  1.106303453783536E-003  4.928184823726423E-007
  1.109268630977880E-003  4.928184823726423E-007
  1.123503682129856E-003  4.928184823726423E-007
  1.126765005133126E-003  4.928184823726423E-007
  1.140506217294944E-003  4.928184823726423E-007
  1.159843359779884E-003  4.928184823726423E-007
  1.171165084464985E-003  4.928184823726423E-007
  1.171912380038678E-003  4.928184823726423E-007
  1.173531275565514E-003  4.928184823726423E-007
  1.176546572085871E-003  4.928184823726423E-007
  1.398368894297953E-003  4.928184823726423E-007
  1.420129472400027E-003  4.928184823726423E-007
  1.441239045876003E-003  4.928184823726423E-007
  1.496310869593064E-003  4.928184823726423E-007
  1.748511740192251E-003  4.928184823726423E-007
  1.801358404950068E-003  4.928184823726423E-007
  2.244032637450460E-003  4.928184823726423E-007
  2.248987245064104E-003  4.928184823726423E-007
  2.316543438359942E-003  4.928184823726423E-007
  2.343666563065438E-003  4.928184823726423E-007
  2.425383356665642E-003  4.928184823726423E-007
  2.469457125390252E-003  4.928184823726423E-007
  3.162975749001841E-003  4.928184823726423E-007
  3.678294589432451E-003  4.928184823726423E-007
  3.714777345147391E-003  4.928184823726423E-007
  3.727707773313461E-003  4.928184823726423E-007
  3.785169011231113E-003  4.928184823726423E-007
  4.058725976785410E-003  4.928184823726423E-007
 cut=1d-8, nber non-redundant internal coords=         108
 Check on Eigenvals of non-red overlap matrix:
  0.00000049  0.00000171  0.00000204  0.00000305  0.00000765  0.00000849  0.00001263  0.00001395
  0.00001533  0.00002008  0.00002803  0.00002961  0.00004216  0.00004498  0.00004528  0.00004775
  0.00004918  0.00005070  0.00005592  0.00005600  0.00005723  0.00005809  0.00006687  0.00006890
  0.00007766  0.00008223  0.00008903  0.00010057  0.00010356  0.00010617  0.00011497  0.00011672
  0.00011839  0.00012081  0.00012162  0.00012805  0.00013196  0.00017385  0.00021049  0.00023039
  0.00025293  0.00026130  0.00026818  0.00027718  0.00028817  0.00030820  0.00034766  0.00035622
  0.00037466  0.00038414  0.00038626  0.00039810  0.00042176  0.00043654  0.00051131  0.00053392
  0.00056949  0.00058444  0.00059306  0.00059352  0.00059362  0.00059801  0.00060026  0.00060379
  0.00060436  0.00060789  0.00061660  0.00062554  0.00062920  0.00063602  0.00064150  0.00064803
  0.00066001  0.00071322  0.00091853  0.00104126  0.00105198  0.00106058  0.00107581  0.00110194
  0.00110630  0.00110927  0.00112350  0.00112677  0.00114051  0.00115984  0.00117117  0.00117191
  0.00117353  0.00117655  0.00139837  0.00142013  0.00144124  0.00149631  0.00174851  0.00180136
  0.00224403  0.00224899  0.00231654  0.00234367  0.00242538  0.00246946  0.00316298  0.00367829
  0.00371478  0.00372771  0.00378517  0.00405873
 Checking for correct frequencies
 recalc frequencies=
   -47.9   -0.0   -0.0   -0.0    0.0    0.0    0.0   14.6   49.1   53.4
    54.2   98.1  107.1  134.5  136.4  174.3  208.0  219.4  294.7  336.5
   381.5  391.6  393.8  399.4  414.3  417.9  442.9  465.2  487.2  501.4
   517.5  559.0  615.0  621.0  639.2  648.9  657.4  670.5  700.6  727.6
   728.3  749.2  772.4  783.0  793.6  795.0  815.7  824.4  861.6  878.4
   904.8  940.4  973.7  977.0  985.1  987.4  987.8  994.9 1000.7 1006.5
  1010.2 1011.6 1014.6 1041.8 1048.8 1062.0 1089.5 1103.1 1110.7 1123.9
  1181.1 1187.5 1194.1 1218.0 1236.1 1263.6 1282.9 1313.3 1331.7 1339.6
  1352.1 1362.7 1366.6 1409.0 1418.3 1430.4 1433.4 1441.1 1463.2 1484.9
  1488.5 1493.9 1504.3 1524.7 1532.5 1566.0 1590.0 1615.8 1632.9 1670.6
  3133.2 3134.2 3145.2 3147.2 3165.8 3173.3 3189.3 3204.4 3204.4 3205.0
  3208.8 3210.6 3217.7 3219.2
 recalc symmetries=
     A2     A1     B2     B1     A2     B1     B2     B1     B1     B2 
     A2     A2     B1     B2     B1     A1     B2     B1     B1     A1 
     B2     A2     B1     A2     A2     A2     B2     B1     A1     B2 
     B1     B1     B2     B2     A1     B2     B2     B1     A1     A2 
     B1     A1     B1     B1     B1     A1     A2     B1     A2     B1 
     B1     B1     A2     A1     B1     A2     A1     B1     A1     A1 
     A1     A2     B1     A1     A1     A1     A1     B2     B2     B2 
     B2     B2     A1     A1     B2     B2     B2     B2     B2     A1 
     B2     B2     A1     A1     B2     A1     B2     A1     B2     B2 
     B2     B2     A1     A1     B2     B2     A1     A1     A1     A1 
     A1     B2     B2     A1     A1     B2     A1     A1     B2     A1 
     B2     A1     B2     A1 
 recalc freqs check OK
 Zero-point lengths:
 35.8133 10.0000 10.0000 10.0000 10.0000 10.0000 10.0000 64.9903 35.3910 33.9289
 33.6795 25.0281 23.9529 21.3764 21.2233 18.7763 17.1881 16.7363 14.4411 13.5137
 12.6918 12.5274 12.4922 12.4054 12.1792 12.1278 11.7795 11.4936 11.2313 11.0715
 10.8978 10.4852  9.9966  9.9481  9.8056  9.7319  9.6690  9.5737  9.3659  9.1908
  9.1865  9.0571  8.9200  8.8595  8.8003  8.7927  8.6802  8.6341  8.4457  8.3648
  8.2416  8.0841  7.9447  7.9312  7.8986  7.8893  7.8879  7.8598  7.8370  7.8141
  7.7999  7.7946  7.7832  7.6808  7.6550  7.6073  7.5106  7.4645  7.4387  7.3948
  7.2135  7.1942  7.1742  7.1034  7.0512  6.9742  6.9215  6.8410  6.7935  6.7734
  6.7420  6.7159  6.7061  6.6046  6.5828  6.5549  6.5480  6.5306  6.4811  6.4335
  6.4258  6.4141  6.3919  6.3490  6.3327  6.2648  6.2172  6.1673  6.1349  6.0655
  4.4290  4.4282  4.4205  4.4191  4.4061  4.4009  4.3899  4.3795  4.3794  4.3791
  4.3765  4.3753  4.3704  4.3694
 highest evec of mol 2
  0.0000  0.0000  0.0011
  0.0000 -0.0013  0.0005
  0.0000 -0.0027 -0.0011
  0.0000  0.0000 -0.0007
  0.0000  0.0000  0.0006
  0.0000 -0.0003 -0.0007
  0.0000 -0.0003  0.0011
  0.0000  0.0000 -0.0002
  0.0000  0.0000  0.0062
  0.0000  0.1179  0.0773
  0.0000  0.1287 -0.0837
  0.0000  0.0000 -0.0059
  0.0000  0.0000 -0.0010
  0.0000 -0.0007 -0.0005
  0.0000 -0.0009  0.0003
  0.0000  0.0000  0.0016
  0.0000  0.0009  0.0003
  0.0000  0.0007 -0.0005
  0.0000 -0.1287 -0.0837
  0.0000 -0.1179  0.0773
  0.0000  0.0003  0.0011
  0.0000  0.0003 -0.0007
  0.0000  0.0027 -0.0011
  0.0000  0.0013  0.0005
  0.0000  0.0000 -0.0033
  0.0000  0.0036 -0.0021
  0.0000  0.0080  0.0044
  0.0000  0.0011  0.0005
  0.0000 -0.3925 -0.2323
  0.0000 -0.4282  0.2550
  0.0000  0.0019 -0.0009
  0.0000  0.0000 -0.0051
  0.0000 -0.0019 -0.0009
  0.0000  0.4282  0.2550
  0.0000  0.3925 -0.2323
  0.0000 -0.0011  0.0005
  0.0000 -0.0080  0.0044
  0.0000 -0.0036 -0.0021
 Enter nber and list of atoms to keep of mol #2
 keep list:          38           1           2           3           4
           5           6           7           8           9          10
          11          12          13          14          15          16
          17          18          19          20          21          22
          23          24          25          26          27          28
          29          30          31          32          33          34
          35          36          37          38
 reordering atoms
           1  -7.82138219265282     
           2  -7.11302819265282     
           3  -5.73049819265282     
           4  -4.98149619265282     
           5  -3.53639519265282     
           6  -2.74811919265282     
           7  -1.44063719265282     
           8 -0.788492192652818     
           9  0.639940807347182     
          10   1.37670580734718     
          11   2.74745480734718     
          12   3.47640680734718     
          13   4.92936580734718     
          14   5.56197680734718     
          15   6.88577780734718     
          16   7.62689880734718     
          17   6.88577780734718     
          18   5.56197680734718     
          19   2.74745480734718     
          20   1.37670580734718     
          21  -1.44063719265282     
          22  -2.74811919265282     
          23  -5.73049819265282     
          24  -7.11302819265282     
          25  -8.90522919265282     
          26  -7.65040619265282     
          27  -5.21799819265282     
          28  -3.22677219265282     
          29  0.820873807347182     
          30   3.30694180734718     
          31   7.38186380734718     
          32   8.70871480734718     
          33   7.38186380734718     
          34   3.30694180734718     
          35  0.820873807347182     
          36  -3.22677219265282     
          37  -5.21799819265282     
          38  -7.65040619265282     
           1           1
           2           2
           3           3
           4           4
           5           5
           6           6
           7           7
           8           8
           9           9
          10          10
          11          11
          12          12
          13          13
          14          14
          15          15
          16          16
          17          17
          18          18
          19          19
          20          20
          21          21
          22          22
          23          23
          24          24
          25          25
          26          26
          27          27
          28          28
          29          29
          30          30
          31          31
          32          32
          33          33
          34          34
          35          35
          36          36
          37          37
          38          38
 initial cartes coords mol 1
   6   0.00000   0.00000  -7.85167
   6   0.00000  -1.20057  -7.14598
   6   0.00000  -1.20014  -5.75557
   6   0.00000   0.00000  -5.02404
   6   0.00000   0.00000  -3.53996
   6   0.00000   1.17291  -2.76859
   7   0.00000   1.18563  -1.44169
   6   0.00000   0.00000  -0.81169
   6   0.00000   0.00000   0.66811
   6   0.00000   1.20765   1.38146
   6   0.00000   1.20750   2.76792
   6   0.00000   0.00000   3.48092
   6   0.00000   0.00000   4.96339
   7   0.00000   1.19150   5.58558
   6   0.00000   1.17955   6.91602
   6   0.00000   0.00000   7.65326
   6   0.00000  -1.17955   6.91602
   7   0.00000  -1.19150   5.58558
   6   0.00000  -1.20750   2.76792
   6   0.00000  -1.20765   1.38146
   7   0.00000  -1.18563  -1.44169
   6   0.00000  -1.17291  -2.76859
   6   0.00000   1.20014  -5.75557
   6   0.00000   1.20057  -7.14598
   1   0.00000   0.00000  -8.93566
   1   0.00000  -2.14505  -7.67865
   1   0.00000  -2.15302  -5.24325
   1   0.00000   2.15177  -3.23750
   1   0.00000   2.13797   0.82965
   1   0.00000   2.13767   3.32003
   1   0.00000   2.14952   7.40682
   1   0.00000   0.00000   8.73505
   1   0.00000  -2.14952   7.40682
   1   0.00000  -2.13767   3.32003
   1   0.00000  -2.13797   0.82965
   1   0.00000  -2.15177  -3.23750
   1   0.00000   2.15302  -5.24325
   1   0.00000   2.14505  -7.67865
 initial cartes coords mol 2
   6   0.00000  -0.00000  -7.82138
   6   0.00000  -1.20690  -7.11303
   6   0.00000  -1.21241  -5.73050
   6   0.00000  -0.00000  -4.98150
   6   0.00000  -0.00000  -3.53640
   6   0.00000   1.19363  -2.74812
   7   0.00000   1.20944  -1.44064
   6   0.00000  -0.00000  -0.78849
   6   0.00000  -0.00000   0.63994
   6   0.00000   1.22690   1.37671
   6   0.00000   1.22288   2.74745
   6   0.00000  -0.00000   3.47641
   6   0.00000  -0.00000   4.92937
   7   0.00000   1.20290   5.56198
   6   0.00000   1.18501   6.88578
   6   0.00000  -0.00000   7.62690
   6   0.00000  -1.18501   6.88578
   7   0.00000  -1.20290   5.56198
   6   0.00000  -1.22288   2.74745
   6   0.00000  -1.22690   1.37671
   7   0.00000  -1.20944  -1.44064
   6   0.00000  -1.19363  -2.74812
   6   0.00000   1.21241  -5.73050
   6   0.00000   1.20690  -7.11303
   1   0.00000  -0.00000  -8.90523
   1   0.00000  -2.14877  -7.65041
   1   0.00000  -2.16441  -5.21800
   1   0.00000   2.16872  -3.22677
   1   0.00000   2.15470   0.82087
   1   0.00000   2.14835   3.30694
   1   0.00000   2.15307   7.38186
   1   0.00000  -0.00000   8.70871
   1   0.00000  -2.15307   7.38186
   1   0.00000  -2.14835   3.30694
   1   0.00000  -2.15470   0.82087
   1   0.00000  -2.16872  -3.22677
   1   0.00000   2.16441  -5.21800
   1   0.00000   2.14877  -7.65041
 loop 1 0
 mod cartes coords mol 2
   6   0.00000  -0.00000  -7.82138
   6   0.00000  -1.20690  -7.11303
   6   0.00000  -1.21241  -5.73050
   6   0.00000  -0.00000  -4.98150
   6   0.00000  -0.00000  -3.53640
   6   0.00000   1.19363  -2.74812
   7   0.00000   1.20944  -1.44064
   6   0.00000  -0.00000  -0.78849
   6   0.00000  -0.00000   0.63994
   6   0.00000   1.22690   1.37671
   6   0.00000   1.22288   2.74745
   6   0.00000  -0.00000   3.47641
   6   0.00000  -0.00000   4.92937
   7   0.00000   1.20290   5.56198
   6   0.00000   1.18501   6.88578
   6   0.00000  -0.00000   7.62690
   6   0.00000  -1.18501   6.88578
   7   0.00000  -1.20290   5.56198
   6   0.00000  -1.22288   2.74745
   6   0.00000  -1.22690   1.37671
   7   0.00000  -1.20944  -1.44064
   6   0.00000  -1.19363  -2.74812
   6   0.00000   1.21241  -5.73050
   6   0.00000   1.20690  -7.11303
   1   0.00000  -0.00000  -8.90523
   1   0.00000  -2.14877  -7.65041
   1   0.00000  -2.16441  -5.21800
   1   0.00000   2.16872  -3.22677
   1   0.00000   2.15470   0.82087
   1   0.00000   2.14835   3.30694
   1   0.00000   2.15307   7.38186
   1   0.00000  -0.00000   8.70871
   1   0.00000  -2.15307   7.38186
   1   0.00000  -2.14835   3.30694
   1   0.00000  -2.15470   0.82087
   1   0.00000  -2.16872  -3.22677
   1   0.00000   2.16441  -5.21800
   1   0.00000   2.14877  -7.65041
 read in order, maxerr=  0.04 for atom   4
 final axis swaps:           1           1           1
 final xyz swap pattern=           1
 reorder list:
   1   2   3   4   5   6   7   8   9  10  11  12  13  14  15  16  17  18  19  20
  21  22  23  24  25  26  27  28  29  30  31  32  33  34  35  36  37  38
 axis signs=           1           1           1
  6     0.000000 -0.000000 -7.821382     0.000000  0.000000 -7.851672
  6     0.000000 -1.206901 -7.113028     0.000000 -1.200570 -7.145985
  6     0.000000 -1.212408 -5.730498     0.000000 -1.200142 -5.755574
  6     0.000000 -0.000000 -4.981496     0.000000  0.000000 -5.024045
  6     0.000000 -0.000000 -3.536395     0.000000  0.000000 -3.539959
  6     0.000000  1.193626 -2.748119     0.000000  1.172910 -2.768587
  7     0.000000  1.209442 -1.440637     0.000000  1.185635 -1.441692
  6     0.000000 -0.000000 -0.788492     0.000000  0.000000 -0.811693
  6     0.000000 -0.000000  0.639941     0.000000  0.000000  0.668113
  6     0.000000  1.226895  1.376706     0.000000  1.207653  1.381457
  6     0.000000  1.222885  2.747455     0.000000  1.207501  2.767919
  6     0.000000 -0.000000  3.476407     0.000000  0.000000  3.480920
  6     0.000000 -0.000000  4.929366     0.000000  0.000000  4.963387
  7     0.000000  1.202905  5.561977     0.000000  1.191504  5.585579
  6     0.000000  1.185014  6.885778     0.000000  1.179548  6.916022
  6     0.000000 -0.000000  7.626899     0.000000  0.000000  7.653255
  6     0.000000 -1.185014  6.885778     0.000000 -1.179548  6.916022
  7     0.000000 -1.202905  5.561977     0.000000 -1.191504  5.585579
  6     0.000000 -1.222885  2.747455     0.000000 -1.207501  2.767919
  6     0.000000 -1.226895  1.376706     0.000000 -1.207653  1.381457
  7     0.000000 -1.209442 -1.440637     0.000000 -1.185635 -1.441692
  6     0.000000 -1.193626 -2.748119     0.000000 -1.172910 -2.768587
  6     0.000000  1.212408 -5.730498     0.000000  1.200142 -5.755574
  6     0.000000  1.206901 -7.113028     0.000000  1.200570 -7.145985
  1     0.000000 -0.000000 -8.905229     0.000000  0.000000 -8.935665
  1     0.000000 -2.148766 -7.650406     0.000000 -2.145051 -7.678654
  1     0.000000 -2.164407 -5.217998     0.000000 -2.153025 -5.243251
  1     0.000000  2.168717 -3.226772     0.000000  2.151769 -3.237500
  1     0.000000  2.154697  0.820874     0.000000  2.137975  0.829650
  1     0.000000  2.148354  3.306942     0.000000  2.137668  3.320028
  1     0.000000  2.153068  7.381864     0.000000  2.149523  7.406819
  1     0.000000 -0.000000  8.708715     0.000000  0.000000  8.735050
  1     0.000000 -2.153068  7.381864     0.000000 -2.149523  7.406819
  1     0.000000 -2.148354  3.306942     0.000000 -2.137668  3.320028
  1     0.000000 -2.154697  0.820874     0.000000 -2.137975  0.829650
  1     0.000000 -2.168717 -3.226772     0.000000 -2.151769 -3.237500
  1     0.000000  2.164407 -5.217998     0.000000  2.153025 -5.243251
  1     0.000000  2.148766 -7.650406     0.000000  2.145051 -7.678654
 generating redundant internal coords
         300        3600          38
 Adding extra bonds for z output only
           6           6           6           6           6           6
           7           6           6           6           6           6
           6           7           6           6           6           7
           6           6           7           6           6           6
           1           1           1           1           1           1
           1           1           1           1           1           1
           1           1
 search for int coords
   1 str   2   1   1.399
   2 str   3   2   1.383
   3 str   4   3   1.425
   4 str   5   4   1.445
   5 str   6   5   1.430
   6 str   7   6   1.308
   7 str   8   7   1.374
   8 str   9   8   1.428
   9 str  10   9   1.431
  10 str  11  10   1.371
  11 str  12  11   1.424
  12 str  13  12   1.453
  13 str  14  13   1.359
  14 str  15  14   1.324
  15 str  16  15   1.398
  16 str  17  16   1.398
  17 str  18  13   1.359
  18 str  18  17   1.324
  19 str  19  12   1.424
  20 str  20   9   1.431
  21 str  20  19   1.371
  22 str  21   8   1.374
  23 str  22   5   1.430
  24 str  22  21   1.308
  25 str  23   4   1.425
  26 str  24   1   1.399
  27 str  24  23   1.383
  28 str  25   1   1.084
  29 str  26   2   1.084
  30 str  27   3   1.081
  31 str  28   6   1.086
  32 str  29  10   1.082
  33 str  30  11   1.081
  34 str  31  15   1.088
  35 str  32  16   1.082
  36 str  33  17   1.088
  37 str  34  19   1.081
  38 str  35  20   1.082
  39 str  36  22   1.086
  40 str  37  23   1.081
  41 str  38  24   1.084
 nber stretches=          41
  42 ben   1   2   3
  43 prop tor   1   2   3   4
  44 prop tor   1   2   3  27
  45 ben   1   2  26
  46 ben   1  24  23
  47 ben   1  24  38
  48 ben   2   1  24
  49 prop tor   2   1  24  23
  50 prop tor   2   1  24  38
  51 ben   2   1  25
  52 ben   2   3   4
  53 prop tor   2   3   4   5
  54 prop tor   2   3   4  23
  55 ben   2   3  27
  56 ben   3   2  26
  57 ben   3   4   5
  58 prop tor   3   4   5   6
  59 prop tor   3   4   5  22
  60 ben   3   4  23
  61 prop tor   3   4  23  24
  62 prop tor   3   4  23  37
  63 ben   4   3  27
  64 ben   4   5   6
  65 prop tor   4   5   6   7
  66 prop tor   4   5   6  28
  67 ben   4   5  22
  68 prop tor   4   5  22  21
  69 prop tor   4   5  22  36
  70 ben   4  23  24
  71 prop tor   4  23  24   1
  72 prop tor   4  23  24  38
  73 ben   4  23  37
  74 ben   5   4  23
  75 prop tor   5   4  23  24
  76 prop tor   5   4  23  37
  77 ben   5   6   7
  78 prop tor   5   6   7   8
  79 ben   5   6  28
  80 ben   5  22  21
  81 ben   5  22  36
  82 ben   6   5  22
  83 prop tor   6   5  22  21
  84 prop tor   6   5  22  36
  85 ben   6   7   8
  86 prop tor   6   7   8   9
  87 prop tor   6   7   8  21
  88 ben   7   6  28
  89 ben   7   8   9
  90 prop tor   7   8   9  10
  91 prop tor   7   8   9  20
  92 ben   7   8  21
  93 prop tor   7   8  21  22
  94 ben   8   9  10
  95 prop tor   8   9  10  11
  96 prop tor   8   9  10  29
  97 ben   8   9  20
  98 prop tor   8   9  20  19
  99 prop tor   8   9  20  35
 100 ben   8  21  22
 101 prop tor   8  21  22   5
 102 prop tor   8  21  22  36
 103 ben   9   8  21
 104 prop tor   9   8  21  22
 105 ben   9  10  11
 106 prop tor   9  10  11  12
 107 prop tor   9  10  11  30
 108 ben   9  10  29
 109 ben   9  20  19
 110 ben   9  20  35
 111 ben  10   9  20
 112 prop tor  10   9  20  19
 113 prop tor  10   9  20  35
 114 ben  10  11  12
 115 prop tor  10  11  12  13
 116 prop tor  10  11  12  19
 117 ben  10  11  30
 118 ben  11  10  29
 119 ben  11  12  13
 120 prop tor  11  12  13  14
 121 prop tor  11  12  13  18
 122 ben  11  12  19
 123 prop tor  11  12  19  20
 124 prop tor  11  12  19  34
 125 ben  12  11  30
 126 ben  12  13  14
 127 prop tor  12  13  14  15
 128 ben  12  13  18
 129 prop tor  12  13  18  17
 130 ben  12  19  20
 131 prop tor  12  19  20   9
 132 prop tor  12  19  20  35
 133 ben  12  19  34
 134 ben  13  12  19
 135 prop tor  13  12  19  20
 136 prop tor  13  12  19  34
 137 ben  13  14  15
 138 prop tor  13  14  15  16
 139 prop tor  13  14  15  31
 140 ben  13  18  17
 141 ben  14  13  18
 142 prop tor  14  13  18  17
 143 ben  14  15  16
 144 prop tor  14  15  16  17
 145 prop tor  14  15  16  32
 146 ben  14  15  31
 147 ben  15  16  17
 148 prop tor  15  16  17  18
 149 prop tor  15  16  17  33
 150 ben  15  16  32
 151 ben  16  15  31
 152 ben  16  17  18
 153 prop tor  16  17  18  13
 154 ben  16  17  33
 155 ben  17  16  32
 156 prop tor  18  13  14  15
 157 ben  18  17  33
 158 prop tor  19  12  13  14
 159 prop tor  19  12  13  18
 160 ben  19  20  35
 161 prop tor  20   9  10  11
 162 prop tor  20   9  10  29
 163 ben  20  19  34
 164 prop tor  21   8   9  10
 165 prop tor  21   8   9  20
 166 ben  21  22  36
 167 prop tor  22   5   6   7
 168 prop tor  22   5   6  28
 169 prop tor  23   4   5   6
 170 prop tor  23   4   5  22
 171 ben  23  24  38
 172 prop tor  24   1   2   3
 173 prop tor  24   1   2  26
 174 ben  24   1  25
 175 ben  24  23  37
 176 prop tor  25   1   2   3
 177 prop tor  25   1   2  26
 178 prop tor  25   1  24  23
 179 prop tor  25   1  24  38
 180 prop tor  26   2   3   4
 181 prop tor  26   2   3  27
 182 prop tor  27   3   4   5
 183 prop tor  27   3   4  23
 184 prop tor  28   6   7   8
 185 prop tor  29  10  11  12
 186 prop tor  29  10  11  30
 187 prop tor  30  11  12  13
 188 prop tor  30  11  12  19
[...]
  85 B2   1410.  0.3374    11.4    99.3  79 B2   1332.
                 0.4818    23.2          87 B2   1433.
                 0.5254    27.6          89 B2   1463.
                -0.3791    14.4          92 B2   1494.
  86 B2   1435.  0.3328    11.1    99.2  85 B2   1418.
                 0.5480    30.0          89 B2   1463.
                 0.5963    35.6          91 B2   1488.
  87 A1   1448. -0.3723    13.9    99.8  84 A1   1409.
                -0.8922    79.6          86 A1   1430.
  88 B2   1468. -0.4993    24.9    99.7  87 B2   1433.
                 0.4897    24.0          89 B2   1463.
                -0.5012    25.1          91 B2   1488.
                 0.4045    16.4          92 B2   1494.
  89 A1   1472. -0.9725    94.6    99.8  88 A1   1441.
  90 B2   1484.  0.8524    72.7    99.7  90 B2   1485.
  91 A1   1538. -0.9351    87.4    99.8  93 A1   1504.
  92 A1   1542. -0.9695    94.0   100.0  94 A1   1525.
  93 B2   1564. -0.3635    13.2   100.2  76 B2   1264.
                -0.4999    25.0          85 B2   1418.
                -0.3502    12.3          87 B2   1433.
                 0.4072    16.6          91 B2   1488.
  94 B2   1589. -0.3464    12.0   100.1  87 B2   1433.
                -0.5007    25.1          92 B2   1494.
                -0.7011    49.2          95 B2   1533.
  95 B2   1615. -0.3760    14.1   100.3  87 B2   1433.
                -0.5252    27.6          92 B2   1494.
                 0.6623    43.9          95 B2   1533.
  96 A1   1615.  0.5108    26.1    99.8  97 A1   1590.
                -0.6937    48.1          98 A1   1616.
                -0.4080    16.6         100 A1   1671.
  97 A1   1619.  0.6937    48.1    99.6  97 A1   1590.
                 0.4291    18.4          99 A1   1633.
                 0.5135    26.4         100 A1   1671.
  98 B2   1622. -0.9335    87.1   100.1  96 B2   1566.
  99 A1   1646. -0.3430    11.8    99.8  97 A1   1590.
                -0.5302    28.1          98 A1   1616.
                 0.7599    57.7          99 A1   1633.
 100 A1   1653.  0.4699    22.1    99.6  98 A1   1616.
                 0.3855    14.9          99 A1   1633.
                -0.7424    55.1         100 A1   1671.
 101 A1   3143.  0.9997    99.9   100.0 101 A1   3133.
 102 B2   3145.  1.0000   100.0   100.0 102 B2   3134.
 103 B2   3157.  0.9937    98.8   100.0 103 B2   3145.
 104 A1   3158. -0.9725    94.6   100.0 104 A1   3147.
 105 A1   3164.  0.9722    94.5   100.0 105 A1   3166.
 106 B2   3173. -0.9949    99.0   100.0 106 B2   3173.
 107 A1   3187.  0.9920    98.4   100.0 107 A1   3189.
 108 B2   3201. -0.9961    99.2   100.0 111 B2   3209.
 109 A1   3202.  0.9599    92.1   100.0 108 A1   3204.
 110 B2   3203.  0.9974    99.5   100.0 109 B2   3204.
 111 A1   3203.  0.9911    98.2   100.0 112 A1   3211.
 112 A1   3206.  0.9619    92.5   100.0 110 A1   3205.
 113 B2   3215. -0.9983    99.7   100.0 113 B2   3218.
 114 A1   3216.  0.9987    99.7   100.0 114 A1   3219.
 nber times 1st assigned=           1           0
 nber times 1st assigned=           2           0
 nber times 1st assigned=           3           0
 nber times 1st assigned=           4           0
 nber times 1st assigned=           5           0
 nber times 1st assigned=           6           0
 nber times 1st assigned=           7           0
 nber times 1st assigned=           8           0
 nber times 1st assigned=           9           0
 nber times 1st assigned=          10           0
 nber times 1st assigned=          11           0
 nber times 1st assigned=          12           0
 nber times 1st assigned=          13           0
 nber times 1st assigned=          14           0
 nber times 1st assigned=          15           0
 nber times 1st assigned=          16           0
 nber times 1st assigned=          17           0
 nber times 1st assigned=          18           0
 nber times 1st assigned=          19           0
 nber times 1st assigned=          20           0
 nber times 1st assigned=          21           0
 nber times 1st assigned=          22           0
 nber times 1st assigned=          23           0
 nber times 1st assigned=          24           0
 nber times 1st assigned=          25           0
 nber times 1st assigned=          26           0
 nber times 1st assigned=          27           0
 nber times 1st assigned=          28           0
 nber times 1st assigned=          29           0
 nber times 1st assigned=          30           0
 nber times 1st assigned=          31           0
 nber times 1st assigned=          32           0
 nber times 1st assigned=          33           0
 nber times 1st assigned=          34           0
 nber times 1st assigned=          35           0
 nber times 1st assigned=          36           0
 nber times 1st assigned=          37           0
 nber times 1st assigned=          38           0
 nber times 1st assigned=          39           0
 nber times 1st assigned=          40           0
 nber times 1st assigned=          41           0
 nber times 1st assigned=          42           0
 nber times 1st assigned=          43           0
 nber times 1st assigned=          44           0
 nber times 1st assigned=          45           0
 nber times 1st assigned=          46           0
 nber times 1st assigned=          47           0
 nber times 1st assigned=          48           0
 nber times 1st assigned=          49           0
 nber times 1st assigned=          50           0
 nber times 1st assigned=          51           0
 nber times 1st assigned=          52           0
 nber times 1st assigned=          53           0
 nber times 1st assigned=          54           0
 nber times 1st assigned=          55           0
 nber times 1st assigned=          56           0
 nber times 1st assigned=          57           0
 nber times 1st assigned=          58           0
 nber times 1st assigned=          59           0
 nber times 1st assigned=          60           0
 nber times 1st assigned=          61           0
 nber times 1st assigned=          62           0
 nber times 1st assigned=          63           0
 nber times 1st assigned=          64           0
 nber times 1st assigned=          65           0
 nber times 1st assigned=          66           0
 nber times 1st assigned=          67           0
 nber times 1st assigned=          68           0
 nber times 1st assigned=          69           0
 nber times 1st assigned=          70           0
 nber times 1st assigned=          71           0
 nber times 1st assigned=          72           0
 nber times 1st assigned=          73           0
 nber times 1st assigned=          74           0
 nber times 1st assigned=          75           0
 nber times 1st assigned=          76           0
 nber times 1st assigned=          77           0
 nber times 1st assigned=          78           0
 nber times 1st assigned=          79           0
 nber times 1st assigned=          80           0
 nber times 1st assigned=          81           0
 nber times 1st assigned=          82           0
 nber times 1st assigned=          83           0
 nber times 1st assigned=          84           0
 nber times 1st assigned=          85           0
 nber times 1st assigned=          86           0
 nber times 1st assigned=          87           0
 nber times 1st assigned=          88           0
 nber times 1st assigned=          89           0
 nber times 1st assigned=          90           0
 nber times 1st assigned=          91           0
 nber times 1st assigned=          92           0
 nber times 1st assigned=          93           0
 nber times 1st assigned=          94           0
 nber times 1st assigned=          95           0
 nber times 1st assigned=          96           0
 nber times 1st assigned=          97           0
 nber times 1st assigned=          98           0
 nber times 1st assigned=          99           0
 nber times 1st assigned=         100           0
 nber times 1st assigned=         101           0
 nber times 1st assigned=         102           0
 nber times 1st assigned=         103           0
 nber times 1st assigned=         104           0
 nber times 1st assigned=         105           0
 nber times 1st assigned=         106           0
 nber times 1st assigned=         107           0
 nber times 1st assigned=         108           0
 nber times 1st assigned=         109           0
 nber times 1st assigned=         110           0
 nber times 1st assigned=         111           0
 nber times 1st assigned=         112           0
 nber times 1st assigned=         113           0
 nber times 1st assigned=         114           0
 modes represented=   107.942476666409     
 p1=
   -0.    0.    0.   -0.   -0.   -0.    0.    0.   -0.    0.   -0.   -0.   -0.    0.   -0.  -17.    0.   -0.   -1.   -0.
   -0.    0.   -0.    0.   -0.    0.    0.    0.   -0.    0.   -0.    0.    0.   -0.    0.   -1.   -0.    0.   -1.   -0.
    0.    0.   -0.   -0.    6.   -0.   -0.    0.   -0.    0.    0.    0.   -0.   -0.   -0.    0.    1.   -1.   -0.   -0.
   -2.   -1.    0.   -0.    1.   -1.    0.    1.   -0.   -0.   -0.   -3.   -1.    0.   -0.   -0.    0.   -4.   -0.    0.
    1.   -0.   -2.    0.   -0.    0.    1.   -0.    4.    0.   -1.    0.    0.   -0.    0.   -4.    4.    0.   -0.   -2.
    0.   -0.   -0.    0.   -0.    0.   -0.   -0.    0.    0.    0.    0.    0.   -0.
 p2=
   -0.   -0.   -0.    0.    0.    0.   -0.    0.    0.   -0.    0.    0.    0.   -0.    0.   17.   -0.    0.    0.    2.
   -0.   -0.    0.   -0.    0.   -0.    0.   -0.   -0.    0.    0.    0.    0.    0.    1.   -0.    0.   -0.   -0.    0.
    0.    2.   -0.   -0.   -0.   -6.   -0.   -0.    0.   -0.    0.   -0.    0.   -0.   -0.   -0.    1.    0.   -1.   -0.
   -1.    0.    0.   -1.   -2.   -0.    1.   -0.   -0.    0.    0.    0.   -2.   -1.    0.   -0.   -0.   -0.    0.   -3.
    0.   -0.    1.   -2.    0.    3.   -0.    3.   -0.    0.   -0.    0.   -2.   -0.    0.   -0.   -0.   -2.   -1.   -6.
   -0.    0.    0.    0.    0.   -0.   -0.   -0.   -0.   -0.   -0.   -0.    0.    0.

 Displacement: in terms of nc of 1 THEN of nc of 2

   1 A2  freq=   -74. Q= -0.000 lam=    -0.0 A2  freq=   -48. Q= -0.000 lam=    -0.0
   2 A2  freq=    -0. Q=  0.000 lam=    -0.0 A1  freq=    -0. Q=  0.000 lam=    -0.0
   3 B1  freq=     0. Q=  0.000 lam=     0.0 B2  freq=    -0. Q=  0.000 lam=    -0.0
   4 B1  freq=     0. Q= -0.000 lam=     0.0 B1  freq=    -0. Q= -0.000 lam=    -0.0
   5 B2  freq=     0. Q= -0.000 lam=     0.0 A2  freq=     0. Q= -0.000 lam=     0.0
   6 A1  freq=     0. Q= -0.000 lam=     0.0 B1  freq=     0. Q= -0.000 lam=     0.0
   7 B2  freq=     0. Q=  0.000 lam=     0.0 B2  freq=     0. Q=  0.000 lam=     0.0
   8 B1  freq=    20. Q=  0.000 lam=     0.0 B1  freq=    15. Q=  0.000 lam=     0.0
   9 A2  freq=    34. Q= -0.000 lam=     0.0 B1  freq=    49. Q= -0.000 lam=     0.0
  10 B2  freq=    53. Q=  0.000 lam=     0.0 B2  freq=    53. Q=  0.000 lam=     0.0
  11 B1  freq=    58. Q= -0.000 lam=     0.0 A2  freq=    54. Q= -0.000 lam=     0.0
  12 A2  freq=    66. Q= -0.000 lam=     0.0 A2  freq=    98. Q= -0.000 lam=     0.0
  13 B1  freq=   120. Q= -0.000 lam=     0.0 B1  freq=   107. Q= -0.000 lam=     0.0
  14 B2  freq=   134. Q=  0.000 lam=     0.0 B2  freq=   134. Q=  0.000 lam=     0.0
  15 B1  freq=   162. Q= -0.000 lam=     0.0 B1  freq=   136. Q= -0.000 lam=     0.0
  16 A1  freq=   173. Q= -0.908 lam=    71.5 A1  freq=   174. Q= -0.891 lam=    69.2
  17 B2  freq=   211. Q=  0.000 lam=     0.0 B2  freq=   208. Q=  0.000 lam=     0.0
  18 B1  freq=   257. Q= -0.000 lam=     0.0 B1  freq=   219. Q= -0.000 lam=     0.0
  19 A1  freq=   337. Q= -0.109 lam=     2.0 B1  freq=   295. Q= -0.000 lam=     0.0
  20 B1  freq=   349. Q= -0.000 lam=     0.0 A1  freq=   337. Q= -0.112 lam=     2.1
  21 B2  freq=   378. Q= -0.000 lam=     0.0 B2  freq=   382. Q= -0.000 lam=     0.0
  22 A2  freq=   390. Q=  0.000 lam=     0.0 A2  freq=   392. Q=  0.000 lam=     0.0
  23 A2  freq=   409. Q= -0.000 lam=     0.0 B1  freq=   394. Q= -0.000 lam=     0.0
  24 A2  freq=   414. Q=  0.000 lam=     0.0 A2  freq=   399. Q=  0.000 lam=     0.0
  25 A2  freq=   421. Q= -0.000 lam=     0.0 A2  freq=   414. Q= -0.000 lam=     0.0
  26 B1  freq=   443. Q=  0.000 lam=     0.0 A2  freq=   418. Q=  0.000 lam=     0.0
  27 B2  freq=   445. Q=  0.000 lam=     0.0 B2  freq=   443. Q=  0.000 lam=     0.0
  28 A1  freq=   483. Q=  0.021 lam=     0.1 B1  freq=   465. Q=  0.000 lam=     0.0
  29 B2  freq=   507. Q= -0.000 lam=     0.0 A1  freq=   487. Q= -0.021 lam=     0.1
  30 B1  freq=   514. Q=  0.000 lam=     0.0 B2  freq=   501. Q=  0.000 lam=     0.0
  31 B1  freq=   562. Q= -0.000 lam=     0.0 B1  freq=   517. Q= -0.000 lam=     0.0
  32 B1  freq=   590. Q=  0.000 lam=     0.0 B1  freq=   559. Q=  0.000 lam=     0.0
  33 B2  freq=   632. Q=  0.000 lam=     0.0 B2  freq=   615. Q=  0.000 lam=     0.0
  34 B2  freq=   641. Q= -0.000 lam=     0.0 B2  freq=   621. Q= -0.000 lam=     0.0
  35 B2  freq=   656. Q=  0.000 lam=     0.0 A1  freq=   639. Q=  0.112 lam=     4.0
  36 A1  freq=   658. Q= -0.086 lam=     2.4 B2  freq=   649. Q= -0.000 lam=     0.0
  37 B2  freq=   671. Q= -0.000 lam=     0.0 B2  freq=   657. Q= -0.000 lam=     0.0
  38 B1  freq=   700. Q=  0.000 lam=     0.0 B1  freq=   671. Q=  0.000 lam=     0.0
  39 A1  freq=   713. Q= -0.069 lam=     1.7 A1  freq=   701. Q= -0.028 lam=     0.3
  40 B1  freq=   751. Q= -0.000 lam=     0.0 A2  freq=   728. Q= -0.000 lam=     0.0
  41 B1  freq=   780. Q=  0.000 lam=     0.0 B1  freq=   728. Q=  0.000 lam=     0.0
  42 A1  freq=   785. Q=  0.038 lam=     0.6 A1  freq=   749. Q=  0.170 lam=    10.8
  43 B1  freq=   814. Q= -0.000 lam=     0.0 B1  freq=   772. Q= -0.000 lam=     0.0
  44 B1  freq=   816. Q= -0.000 lam=     0.0 B1  freq=   783. Q= -0.000 lam=     0.0
  45 A1  freq=   826. Q=  0.693 lam=   198.2 B1  freq=   794. Q=  0.000 lam=     0.0
  46 A2  freq=   841. Q= -0.000 lam=     0.0 A1  freq=   795. Q= -0.705 lam=   197.3
  47 B1  freq=   849. Q= -0.000 lam=     0.0 A2  freq=   816. Q= -0.000 lam=     0.0
  48 A2  freq=   876. Q=  0.000 lam=     0.0 B1  freq=   824. Q=  0.000 lam=     0.0
  49 B1  freq=   905. Q= -0.000 lam=     0.0 A2  freq=   862. Q= -0.000 lam=     0.0
  50 B1  freq=   926. Q=  0.000 lam=     0.0 B1  freq=   878. Q=  0.000 lam=     0.0
  51 B1  freq=   962. Q=  0.000 lam=     0.0 B1  freq=   905. Q=  0.000 lam=     0.0
  52 A2  freq=   970. Q=  0.000 lam=     0.0 B1  freq=   940. Q=  0.000 lam=     0.0
  53 A2  freq=   987. Q= -0.000 lam=     0.0 A2  freq=   974. Q= -0.000 lam=     0.0
  54 A2  freq=  1001. Q= -0.000 lam=     0.0 A1  freq=   977. Q= -0.056 lam=     1.5
  55 B1  freq=  1003. Q= -0.000 lam=     0.0 B1  freq=   985. Q= -0.000 lam=     0.0
  56 B1  freq=  1006. Q=  0.000 lam=     0.0 A2  freq=   987. Q=  0.000 lam=     0.0
  57 A1  freq=  1009. Q=  0.163 lam=    13.5 A1  freq=   988. Q=  0.081 lam=     3.2
  58 A1  freq=  1013. Q= -0.112 lam=     6.4 B1  freq=   995. Q= -0.000 lam=     0.0
  59 A2  freq=  1019. Q= -0.000 lam=     0.0 A1  freq=  1001. Q= -0.191 lam=    18.2
  60 B1  freq=  1019. Q= -0.000 lam=     0.0 A1  freq=  1007. Q= -0.038 lam=     0.7
  61 A1  freq=  1020. Q= -0.209 lam=    22.3 A1  freq=  1010. Q= -0.113 lam=     6.4
  62 A1  freq=  1033. Q= -0.127 lam=     8.3 A2  freq=  1012. Q= -0.000 lam=     0.0
  63 A1  freq=  1054. Q=  0.057 lam=     1.7 B1  freq=  1015. Q=  0.000 lam=     0.0
  64 A1  freq=  1064. Q= -0.017 lam=     0.2 A1  freq=  1042. Q= -0.079 lam=     3.3
  65 A1  freq=  1071. Q=  0.170 lam=    15.4 A1  freq=  1049. Q=  0.224 lam=    26.4
  66 A1  freq=  1100. Q= -0.180 lam=    17.9 A1  freq=  1062. Q= -0.028 lam=     0.4
  67 B2  freq=  1111. Q=  0.000 lam=     0.0 A1  freq=  1090. Q=  0.176 lam=    16.9
  68 A1  freq=  1112. Q=  0.128 lam=     9.2 B2  freq=  1103. Q=  0.000 lam=     0.0
  69 B2  freq=  1113. Q= -0.000 lam=     0.0 B2  freq=  1111. Q= -0.000 lam=     0.0
  70 B2  freq=  1128. Q= -0.000 lam=     0.0 B2  freq=  1124. Q= -0.000 lam=     0.0
  71 B2  freq=  1186. Q= -0.000 lam=     0.0 B2  freq=  1181. Q= -0.000 lam=     0.0
  72 A1  freq=  1194. Q= -0.361 lam=    77.8 B2  freq=  1187. Q= -0.000 lam=     0.0
  73 A1  freq=  1220. Q= -0.156 lam=    14.9 A1  freq=  1194. Q= -0.304 lam=    55.3
  74 B2  freq=  1223. Q=  0.000 lam=     0.0 A1  freq=  1218. Q=  0.170 lam=    17.5
  75 B2  freq=  1238. Q= -0.000 lam=     0.0 B2  freq=  1236. Q= -0.000 lam=     0.0
  76 B2  freq=  1275. Q= -0.000 lam=     0.0 B2  freq=  1264. Q= -0.000 lam=     0.0
  77 B2  freq=  1288. Q=  0.000 lam=     0.0 B2  freq=  1283. Q=  0.000 lam=     0.0
  78 A1  freq=  1303. Q= -0.587 lam=   224.3 B2  freq=  1313. Q= -0.000 lam=     0.0
  79 B2  freq=  1314. Q= -0.000 lam=     0.0 B2  freq=  1332. Q= -0.000 lam=     0.0
  80 B2  freq=  1332. Q=  0.000 lam=     0.0 A1  freq=  1340. Q=  0.423 lam=   119.6
  81 A1  freq=  1344. Q=  0.130 lam=    11.4 B2  freq=  1352. Q=  0.000 lam=     0.0
  82 B2  freq=  1351. Q= -0.000 lam=     0.0 B2  freq=  1363. Q= -0.000 lam=     0.0
  83 A1  freq=  1366. Q= -0.299 lam=    61.2 A1  freq=  1367. Q= -0.171 lam=    19.9
  84 B2  freq=  1372. Q=  0.000 lam=     0.0 A1  freq=  1409. Q=  0.327 lam=    75.1
  85 B2  freq=  1410. Q= -0.000 lam=     0.0 B2  freq=  1418. Q= -0.000 lam=     0.0
  86 B2  freq=  1435. Q=  0.000 lam=     0.0 A1  freq=  1430. Q=  0.397 lam=   112.8
  87 A1  freq=  1448. Q=  0.225 lam=    36.6 B2  freq=  1433. Q=  0.000 lam=     0.0
  88 B2  freq=  1468. Q= -0.000 lam=     0.0 A1  freq=  1441. Q= -0.420 lam=   126.9
  89 A1  freq=  1472. Q=  0.543 lam=   216.8 B2  freq=  1463. Q=  0.000 lam=     0.0
  90 B2  freq=  1484. Q=  0.000 lam=     0.0 B2  freq=  1485. Q=  0.000 lam=     0.0
  91 A1  freq=  1538. Q= -0.167 lam=    21.3 B2  freq=  1488. Q= -0.000 lam=     0.0
  92 A1  freq=  1542. Q=  0.076 lam=     4.4 B2  freq=  1494. Q=  0.000 lam=     0.0
  93 B2  freq=  1564. Q=  0.000 lam=     0.0 A1  freq=  1504. Q=  0.275 lam=    56.9
  94 B2  freq=  1589. Q= -0.000 lam=     0.0 A1  freq=  1525. Q= -0.073 lam=     4.1
  95 B2  freq=  1615. Q=  0.000 lam=     0.0 B2  freq=  1533. Q=  0.000 lam=     0.0
  96 A1  freq=  1615. Q= -0.620 lam=   310.1 B2  freq=  1566. Q= -0.000 lam=     0.0
  97 A1  freq=  1619. Q=  0.642 lam=   334.1 A1  freq=  1590. Q=  0.017 lam=     0.2
  98 B2  freq=  1622. Q=  0.000 lam=     0.0 A1  freq=  1616. Q=  0.316 lam=    80.7
  99 A1  freq=  1646. Q= -0.054 lam=     2.4 A1  freq=  1633. Q= -0.234 lam=    44.6
 100 A1  freq=  1653. Q= -0.383 lam=   121.2 A1  freq=  1671. Q= -0.965 lam=   778.3
 101 A1  freq=  3143. Q=  0.002 lam=     0.0 A1  freq=  3133. Q=  0.000 lam=     0.0
 102 B2  freq=  3145. Q= -0.000 lam=     0.0 B2  freq=  3134. Q= -0.000 lam=     0.0
 103 B2  freq=  3157. Q= -0.000 lam=     0.0 B2  freq=  3145. Q= -0.000 lam=     0.0
 104 A1  freq=  3158. Q=  0.005 lam=     0.0 A1  freq=  3147. Q=  0.009 lam=     0.1
 105 A1  freq=  3164. Q= -0.006 lam=     0.1 A1  freq=  3166. Q= -0.005 lam=     0.0
 106 B2  freq=  3173. Q=  0.000 lam=     0.0 B2  freq=  3173. Q=  0.000 lam=     0.0
 107 A1  freq=  3187. Q= -0.001 lam=     0.0 A1  freq=  3189. Q= -0.002 lam=     0.0
 108 B2  freq=  3201. Q= -0.000 lam=     0.0 A1  freq=  3204. Q= -0.001 lam=     0.0
 109 A1  freq=  3202. Q=  0.000 lam=     0.0 B2  freq=  3204. Q=  0.000 lam=     0.0
 110 B2  freq=  3203. Q=  0.000 lam=     0.0 A1  freq=  3205. Q=  0.006 lam=     0.0
 111 A1  freq=  3203. Q=  0.016 lam=     0.4 B2  freq=  3209. Q=  0.000 lam=     0.0
 112 A1  freq=  3206. Q=  0.004 lam=     0.0 A1  freq=  3211. Q=  0.015 lam=     0.3
 113 B2  freq=  3215. Q=  0.000 lam=     0.0 B2  freq=  3218. Q=  0.000 lam=     0.0
 114 A1  freq=  3216. Q= -0.008 lam=     0.1 A1  freq=  3219. Q= -0.008 lam=     0.1

 total reorg energy (cm**-1, kcal/mol)=     1809.     1854.      5.17      5.30
 Nber of molecules processed=           2
