 Enter ifcurve (0=recti, 1=orth curvi, 2=apprx curvi, -1 = skip
 And atom ordering flag, 0= never changes, 1= use the first order thenceforth,
  2= deduce it (does read on fail), 3= always read it
 Reading file: 
 ./PDI_1_C0S2.log                                                               
                                          
  Entering Gaussian System, Link 0=g16                                          
  
 Gaussian format, type: g94, g98, g03= F F F
  #P Geom=AllCheck Guess=TCheck SCRF=Check GenChk RB3LYP TD(FC,Read)/6-3    
 energy type= TD      
 Original G94 input coords:
  6  1.173207 -0.933788 -0.090292
  6  2.370302  0.008971  0.075065
  6  3.588771 -0.663894  0.716729
  7  2.722419  0.690302 -1.206560
  6  3.170950 -0.080763 -2.290003
  8  3.275789 -1.297262 -2.197598
  6  3.506672  0.636325 -3.532300
  6  3.957110 -0.086491 -4.635950
  6  4.281374  0.556833 -5.816679
  6  4.172049  1.958186 -5.955856
  6  4.509687  2.643175 -7.184263
  6  4.980552  1.943312 -8.324956
  6  5.299566  2.596034 -9.486783
  6  5.164285  3.994786 -9.591423
  6  5.527038  4.617291-10.833490
  8  5.985808  4.063768-11.815668
  7  5.358748  6.084584-10.884292
  6  5.678328  6.737393-12.055857
  6  6.331634  8.017142-12.028391
  6  6.650636  8.652739-13.201388
  6  6.328199  8.067080-14.440791
  6  5.681231  6.817081-14.488779
  6  5.365260  6.153049-13.330844
  6  4.866447  6.890279 -9.747493
  8  4.722019  8.086561 -9.919545
  6  4.564700  6.155012 -8.551593
  6  4.095941  6.872439 -7.432967
  6  3.780014  6.227907 -6.265740
  6  3.904698  4.820624 -6.136363
  6  3.572267  4.136257 -4.906296
  6  3.112392  4.821650 -3.759955
  6  2.796114  4.155809 -2.589740
  6  2.922563  2.769890 -2.502858
  6  2.576717  2.093513 -1.242054
  8  2.180057  2.712739 -0.264218
  6  3.379041  2.039121 -3.620937
  6  3.710782  2.717363 -4.838705
  6  4.370244  4.065004 -7.258427
  6  4.704032  4.747037 -8.482883
  1  0.862863 -1.294441  0.894674
  1  1.421350 -1.790814 -0.714978
  1  0.325789 -0.404683 -0.534187
  1  2.064167  0.833063  0.715782
  1  3.937272 -1.509660  0.125509
  1  3.316706 -1.020392  1.714443
  1  4.407722  0.051414  0.829714
  1  4.045500 -1.161420 -4.542584
  1  4.625695 -0.044769 -6.645834
  1  5.097726  0.870370 -8.288396
  1  5.662023  2.048799-10.347481
  1  6.610021  8.439728-11.078779
  1  7.176175  9.598283-13.174131
  1  6.578855  8.579968-15.360860
  1  5.408719  6.389262-15.444654
  1  4.836105  5.216552-13.358995
  1  3.991297  7.946431 -7.517993
  1  3.425609  6.816313 -5.432405
  1  2.999312  5.896245 -3.780156
  1  2.444680  4.693986 -1.718677
 nber atoms=          59
  Total Energy, E(TD-HF/TD-DFT) =  -1680.41947455                               
  
          32          49 "  -1680.41947455"
After scan for Atom:   Atom  AN      X      Y      Z        X      Y      Z        X      Y      Z   
After scan for Atom:   Atom  AN      X      Y      Z        X      Y      Z        X      Y      Z   
After scan for Atom:   Atom  AN      X      Y      Z        X      Y      Z        X      Y      Z   
After scan for Atom:   Atom  AN      X      Y      Z        X      Y      Z        X      Y      Z   
After scan for Atom:   Atom  AN      X      Y      Z        X      Y      Z        X      Y      Z   
After scan for Atom:   Atom  AN      X      Y      Z        X      Y      Z        X      Y      Z   
After scan for Atom:   Atom  AN      X      Y      Z        X      Y      Z        X      Y      Z   
After scan for Atom:   Atom  AN      X      Y      Z        X      Y      Z        X      Y      Z   
After scan for Atom:   Atom  AN      X      Y      Z        X      Y      Z        X      Y      Z   
After scan for Atom:   Atom  AN      X      Y      Z        X      Y      Z        X      Y      Z   
After scan for Atom:   Atom  AN      X      Y      Z        X      Y      Z        X      Y      Z   
After scan for Atom:   Atom  AN      X      Y      Z        X      Y      Z        X      Y      Z   
After scan for Atom:   Atom  AN      X      Y      Z        X      Y      Z        X      Y      Z   
After scan for Atom:   Atom  AN      X      Y      Z        X      Y      Z        X      Y      Z   
After scan for Atom:   Atom  AN      X      Y      Z        X      Y      Z        X      Y      Z   
After scan for Atom:   Atom  AN      X      Y      Z        X      Y      Z        X      Y      Z   
After scan for Atom:   Atom  AN      X      Y      Z        X      Y      Z        X      Y      Z   
After scan for Atom:   Atom  AN      X      Y      Z        X      Y      Z        X      Y      Z   
After scan for Atom:   Atom  AN      X      Y      Z        X      Y      Z        X      Y      Z   
After scan for Atom:   Atom  AN      X      Y      Z        X      Y      Z        X      Y      Z   
After scan for Atom:   Atom  AN      X      Y      Z        X      Y      Z        X      Y      Z   
After scan for Atom:   Atom  AN      X      Y      Z        X      Y      Z        X      Y      Z   
After scan for Atom:   Atom  AN      X      Y      Z        X      Y      Z        X      Y      Z   
After scan for Atom:   Atom  AN      X      Y      Z        X      Y      Z        X      Y      Z   
After scan for Atom:   Atom  AN      X      Y      Z        X      Y      Z        X      Y      Z   
After scan for Atom:   Atom  AN      X      Y      Z        X      Y      Z        X      Y      Z   
After scan for Atom:   Atom  AN      X      Y      Z        X      Y      Z        X      Y      Z   
After scan for Atom:   Atom  AN      X      Y      Z        X      Y      Z        X      Y      Z   
After scan for Atom:   Atom  AN      X      Y      Z        X      Y      Z        X      Y      Z   
After scan for Atom:   Atom  AN      X      Y      Z        X      Y      Z        X      Y      Z   
After scan for Atom:   Atom  AN      X      Y      Z        X      Y      Z        X      Y      Z   
After scan for Atom:   Atom  AN      X      Y      Z        X      Y      Z        X      Y      Z   
After scan for Atom:   Atom  AN      X      Y      Z        X      Y      Z        X      Y      Z   
After scan for Atom:   Atom  AN      X      Y      Z        X      Y      Z        X      Y      Z   
After scan for Atom:   Atom  AN      X      Y      Z        X      Y      Z        X      Y      Z   
After scan for Atom:   Atom  AN      X      Y      Z        X      Y      Z        X      Y      Z   
After scan for Atom:   Atom  AN      X      Y      Z        X      Y      Z        X      Y      Z   
After scan for Atom:   Atom  AN      X      Y      Z        X      Y      Z        X      Y      Z   
After scan for Atom:   Atom  AN      X      Y      Z        X      Y      Z        X      Y      Z   
After scan for Atom:   Atom  AN      X      Y      Z        X      Y      Z        X      Y      Z   
After scan for Atom:   Atom  AN      X      Y      Z        X      Y      Z        X      Y      Z   
After scan for Atom:   Atom  AN      X      Y      Z        X      Y      Z        X      Y      Z   
After scan for Atom:   Atom  AN      X      Y      Z        X      Y      Z        X      Y      Z   
After scan for Atom:   Atom  AN      X      Y      Z        X      Y      Z        X      Y      Z   
After scan for Atom:   Atom  AN      X      Y      Z        X      Y      Z        X      Y      Z   
After scan for Atom:   Atom  AN      X      Y      Z        X      Y      Z        X      Y      Z   
After scan for Atom:   Atom  AN      X      Y      Z        X      Y      Z        X      Y      Z   
After scan for Atom:   Atom  AN      X      Y      Z        X      Y      Z        X      Y      Z   
After scan for Atom:   Atom  AN      X      Y      Z        X      Y      Z        X      Y      Z   
After scan for Atom:   Atom  AN      X      Y      Z        X      Y      Z        X      Y      Z   
After scan for Atom:   Atom  AN      X      Y      Z        X      Y      Z        X      Y      Z   
After scan for Atom:   Atom  AN      X      Y      Z        X      Y      Z        X      Y      Z   
After scan for Atom:   Atom  AN      X      Y      Z        X      Y      Z        X      Y      Z   
After scan for Atom:   Atom  AN      X      Y      Z        X      Y      Z        X      Y      Z   
After scan for Atom:   Atom  AN      X      Y      Z        X      Y      Z        X      Y      Z   
After scan for Atom:   Atom  AN      X      Y      Z        X      Y      Z        X      Y      Z   
After scan for Atom:   Atom  AN      X      Y      Z        X      Y      Z        X      Y      Z   
 g94    frequencies=
     0.0    0.0    0.0    0.0    0.0    0.0   15.3   22.6   32.5   49.6
    54.6   60.1   68.4   87.4  100.2  110.8  114.6  167.0  168.6  170.9
   188.6  195.0  212.6  218.6  233.9  235.2  257.8  258.9  268.5  295.8
   306.4  314.1  340.8  363.0  369.4  380.5  397.2  416.3  421.2  434.6
   441.7  446.7  448.1  453.1  466.8  480.1  493.8  500.4  502.7  515.1
   515.3  540.0  547.5  579.5  581.2  591.0  622.6  625.4  635.7  650.1
   661.9  666.7  709.3  712.2  727.4  746.9  752.9  757.6  767.9  784.9
   794.7  797.3  803.2  806.1  816.1  819.9  824.8  829.6  834.0  834.7
   846.6  855.4  894.2  925.1  927.7  943.9  955.9  959.1  971.5  973.0
   975.7  977.1  986.7  989.8  994.0 1000.2 1002.2 1021.3 1064.3 1069.4
  1094.7 1123.1 1133.8 1146.1 1155.1 1166.0 1167.9 1175.0 1189.8 1201.1
  1206.5 1220.8 1227.5 1236.7 1246.7 1265.0 1280.0 1296.0 1315.0 1318.0
  1322.7 1335.0 1360.3 1363.9 1371.3 1376.4 1383.9 1392.6 1396.7 1398.0
  1412.5 1415.0 1425.2 1437.9 1460.1 1470.8 1480.2 1482.8 1484.2 1490.5
  1496.4 1506.4 1523.3 1532.6 1537.3 1556.0 1575.9 1582.0 1589.4 1615.1
  1618.3 1633.3 1647.8 1686.8 1709.5 1723.0 1761.1 3030.5 3035.0 3087.8
  3091.0 3110.0 3131.7 3141.7 3193.8 3194.1 3196.4 3199.6 3199.8 3206.2
  3209.4 3209.7 3214.0 3225.4 3225.5 3273.7 3274.9
 g94    symmetries=
                                                 A      A      A      A
       A      A      A      A      A      A      A      A      A      A
       A      A      A      A      A      A      A      A      A      A
       A      A      A      A      A      A      A      A      A      A
       A      A      A      A      A      A      A      A      A      A
       A      A      A      A      A      A      A      A      A      A
       A      A      A      A      A      A      A      A      A      A
       A      A      A      A      A      A      A      A      A      A
       A      A      A      A      A      A      A      A      A      A
       A      A      A      A      A      A      A      A      A      A
       A      A      A      A      A      A      A      A      A      A
       A      A      A      A      A      A      A      A      A      A
       A      A      A      A      A      A      A      A      A      A
       A      A      A      A      A      A      A      A      A      A
       A      A      A      A      A      A      A      A      A      A
       A      A      A      A      A      A      A      A      A      A
       A      A      A      A      A      A      A      A      A      A
       A      A      A      A      A      A      A
 atomic masses:
 12.0000 12.0000 12.0000 14.0031 12.0000 15.9949 12.0000 12.0000 12.0000 12.0000
 12.0000 12.0000 12.0000 12.0000 12.0000 15.9949 14.0031 12.0000 12.0000 12.0000
 12.0000 12.0000 12.0000 12.0000 15.9949 12.0000 12.0000 12.0000 12.0000 12.0000
 12.0000 12.0000 12.0000 12.0000 15.9949 12.0000 12.0000 12.0000 12.0000  1.0078
  1.0078  1.0078  1.0078  1.0078  1.0078  1.0078  1.0078  1.0078  1.0078  1.0078
  1.0078  1.0078  1.0078  1.0078  1.0078  1.0078  1.0078  1.0078  1.0078
 looking for force constants in 
 ./PDI_1_C0S2.fchk                                                              
  
 Cartesian Force Constants                  R   N=       15753                  
  
 n3=         177       15753
 g94-fc frequencies=
    -0.9   -0.0   -0.0    0.0    2.0    5.6   15.3   22.6   32.5   49.6
    54.6   60.1   68.4   87.4  100.2  110.8  114.6  167.0  168.6  170.9
   188.6  195.0  212.6  218.6  233.9  235.2  257.8  258.9  268.5  295.8
   306.4  314.1  340.8  363.0  369.4  380.5  397.2  416.3  421.2  434.6
   441.7  446.7  448.1  453.1  466.8  480.1  493.9  500.4  502.7  515.1
   515.3  540.0  547.6  579.5  581.2  591.0  622.6  625.4  635.7  650.1
   661.9  666.7  709.3  712.2  727.4  746.9  752.9  757.6  768.0  785.0
   794.7  797.3  803.2  806.1  816.2  819.9  824.8  829.7  834.0  834.7
   846.6  855.4  894.2  925.1  927.7  943.9  955.9  959.2  971.5  973.0
   975.8  977.1  986.7  989.8  994.0 1000.2 1002.2 1021.3 1064.3 1069.4
  1094.8 1123.2 1133.8 1146.1 1155.2 1166.0 1167.9 1175.0 1189.8 1201.1
  1206.5 1220.8 1227.6 1236.8 1246.8 1265.0 1280.0 1296.0 1315.0 1318.0
  1322.8 1335.0 1360.3 1363.9 1371.3 1376.4 1383.9 1392.7 1396.8 1398.0
  1412.5 1415.1 1425.3 1437.9 1460.1 1470.9 1480.2 1482.8 1484.2 1490.6
  1496.4 1506.4 1523.4 1532.6 1537.4 1556.1 1575.9 1582.0 1589.4 1615.2
  1618.3 1633.4 1647.8 1686.8 1709.6 1723.0 1761.1 3030.6 3035.1 3087.9
  3091.1 3110.1 3131.8 3141.7 3193.9 3194.2 3196.4 3199.7 3199.9 3206.3
  3209.5 3209.7 3214.1 3225.4 3225.6 3273.7 3275.0
 at 99999: n3=         177
 symm operator            1 :  F  nop=           0
 symm operator            2 :  F  nop=           0
 symm operator            3 :  F  nop=           0
 symm operator            4 :  F  nop=           0
 symm operator            5 :  F  nop=           0
 symm operator            6 :  F  nop=           0
 symm operator            7 :  F  nop=           0
 The point group of the molecule is  C1
 Symmetry rotation matrix:
   1.00000   0.00000   0.00000
   0.00000   1.00000   0.00000
   0.00000   0.00000   1.00000

 Projecting out zero-frequency components
 generating redundant internal coords
         300        3600          59
 search for int coords
   1 str   2   1   1.533
   2 str   3   2   1.533
   3 str   4   2   1.494
   4 str   5   4   1.403
   5 str   6   5   1.224
   6 str   7   5   1.473
   7 str   8   7   1.394
   8 str   9   8   1.383
   9 str  10   9   1.412
  10 str  11  10   1.446
  11 str  12  11   1.419
  12 str  13  12   1.370
  13 str  14  13   1.409
  14 str  15  14   1.436
  15 str  16  15   1.217
  16 str  17  15   1.478
  17 str  18  17   1.379
  18 str  19  18   1.437
  19 str  20  19   1.372
  20 str  21  20   1.408
  21 str  22  21   1.408
  22 str  23  18   1.437
  23 str  23  22   1.372
  24 str  24  17   1.478
  25 str  25  24   1.217
  26 str  26  24   1.436
  27 str  27  26   1.409
  28 str  28  27   1.370
  29 str  29  28   1.419
  30 str  30  29   1.446
  31 str  31  30   1.413
  32 str  32  31   1.383
  33 str  33  32   1.394
  34 str  34   4   1.411
  35 str  34  33   1.472
  36 str  35  34   1.223
  37 str  36   7   1.411
  38 str  36  33   1.412
  39 str  37  10   1.427
  40 str  37  30   1.427
  41 str  37  36   1.433
  42 str  38  11   1.431
  43 str  38  29   1.431
  44 str  39  14   1.417
  45 str  39  26   1.417
  46 str  39  38   1.441
  47 str  40   1   1.094
  48 str  41   1   1.089
  49 str  42   1   1.093
  50 str  43   2   1.088
  51 str  44   3   1.089
  52 str  45   3   1.094
  53 str  46   3   1.093
  54 str  47   8   1.083
  55 str  48   9   1.081
  56 str  49  12   1.080
  57 str  50  13   1.082
  58 str  51  19   1.076
  59 str  52  20   1.082
  60 str  53  21   1.083
  61 str  54  22   1.082
  62 str  55  23   1.076
  63 str  56  27   1.082
  64 str  57  28   1.080
  65 str  58  31   1.081
  66 str  59  32   1.083
 nber stretches=          66
  67 ben   1   2   3
  68 prop tor   1   2   3  44
  69 prop tor   1   2   3  45
  70 prop tor   1   2   3  46
  71 ben   1   2   4
  72 prop tor   1   2   4   5
  73 prop tor   1   2   4  34
  74 ben   1   2  43
  75 ben   2   1  40
  76 ben   2   1  41
  77 ben   2   1  42
  78 ben   2   3  44
  79 ben   2   3  45
  80 ben   2   3  46
  81 ben   2   4   5
  82 prop tor   2   4   5   6
  83 prop tor   2   4   5   7
  84 ben   2   4  34
  85 prop tor   2   4  34  33
  86 prop tor   2   4  34  35
  87 ben   3   2   4
  88 prop tor   3   2   4   5
  89 prop tor   3   2   4  34
  90 ben   3   2  43
  91 prop tor   4   2   3  44
  92 prop tor   4   2   3  45
  93 prop tor   4   2   3  46
  94 ben   4   2  43
  95 ben   4   5   6
  96 ben   4   5   7
  97 prop tor   4   5   7   8
  98 prop tor   4   5   7  36
  99 ben   4  34  33
 100 ben   4  34  35
 101 ben   5   4  34
 102 prop tor   5   4  34  33
 103 prop tor   5   4  34  35
 104 ben   5   7   8
 105 prop tor   5   7   8   9
 106 prop tor   5   7   8  47
 107 ben   5   7  36
 108 prop tor   5   7  36  33
 109 prop tor   5   7  36  37
 110 ben   6   5   7
 111 prop tor   6   5   7   8
 112 prop tor   6   5   7  36
 113 ben   7   8   9
 114 prop tor   7   8   9  10
 115 prop tor   7   8   9  48
 116 ben   7   8  47
 117 ben   7  36  33
 118 ben   7  36  37
 119 prop tor   7  36  37  10
 120 prop tor   7  36  37  30
 121 ben   8   7  36
 122 prop tor   8   7  36  33
 123 prop tor   8   7  36  37
 124 ben   8   9  10
 125 prop tor   8   9  10  11
 126 prop tor   8   9  10  37
 127 ben   8   9  48
 128 ben   9   8  47
 129 ben   9  10  11
 130 prop tor   9  10  11  12
 131 prop tor   9  10  11  38
 132 ben   9  10  37
 133 prop tor   9  10  37  30
 134 prop tor   9  10  37  36
 135 ben  10   9  48
 136 ben  10  11  12
 137 prop tor  10  11  12  13
 138 prop tor  10  11  12  49
 139 ben  10  11  38
 140 prop tor  10  11  38  29
 141 prop tor  10  11  38  39
 142 ben  10  37  30
 143 ben  10  37  36
 144 ben  11  10  37
 145 prop tor  11  10  37  30
 146 prop tor  11  10  37  36
 147 ben  11  12  13
 148 prop tor  11  12  13  14
 149 prop tor  11  12  13  50
 150 ben  11  12  49
 151 ben  11  38  29
 152 ben  11  38  39
 153 prop tor  11  38  39  14
 154 prop tor  11  38  39  26
 155 ben  12  11  38
 156 prop tor  12  11  38  29
 157 prop tor  12  11  38  39
 158 ben  12  13  14
 159 prop tor  12  13  14  15
 160 prop tor  12  13  14  39
 161 ben  12  13  50
 162 ben  13  12  49
 163 ben  13  14  15
 164 prop tor  13  14  15  16
 165 prop tor  13  14  15  17
 166 ben  13  14  39
 167 prop tor  13  14  39  26
 168 prop tor  13  14  39  38
 169 ben  14  13  50
 170 ben  14  15  16
 171 ben  14  15  17
 172 prop tor  14  15  17  18
 173 prop tor  14  15  17  24
 174 ben  14  39  26
 175 ben  14  39  38
 176 ben  15  14  39
 177 prop tor  15  14  39  26
 178 prop tor  15  14  39  38
 179 ben  15  17  18
 180 prop tor  15  17  18  19
 181 prop tor  15  17  18  23
 182 ben  15  17  24
 183 prop tor  15  17  24  25
 184 prop tor  15  17  24  26
 185 ben  16  15  17
 186 prop tor  16  15  17  18
 187 prop tor  16  15  17  24
 188 ben  17  18  19
 189 prop tor  17  18  19  20
 190 prop tor  17  18  19  51
 191 ben  17  18  23
 192 prop tor  17  18  23  22
 193 prop tor  17  18  23  55
 194 ben  17  24  25
 195 ben  17  24  26
 196 prop tor  17  24  26  27
 197 prop tor  17  24  26  39
 198 ben  18  17  24
 199 prop tor  18  17  24  25
 200 prop tor  18  17  24  26
 201 ben  18  19  20
 202 prop tor  18  19  20  21
 203 prop tor  18  19  20  52
 204 ben  18  19  51
 205 ben  18  23  22
 206 ben  18  23  55
 207 ben  19  18  23
 208 prop tor  19  18  23  22
 209 prop tor  19  18  23  55
 210 ben  19  20  21
 211 prop tor  19  20  21  22
 212 prop tor  19  20  21  53
 213 ben  19  20  52
 214 ben  20  19  51
 215 ben  20  21  22
 216 prop tor  20  21  22  23
 217 prop tor  20  21  22  54
 218 ben  20  21  53
 219 ben  21  20  52
 220 ben  21  22  23
 221 prop tor  21  22  23  18
 222 prop tor  21  22  23  55
 223 ben  21  22  54
 224 ben  22  21  53
 225 ben  22  23  55
 226 prop tor  23  18  19  20
 227 prop tor  23  18  19  51
 228 ben  23  22  54
 229 prop tor  24  17  18  19
 230 prop tor  24  17  18  23
 231 ben  24  26  27
 232 prop tor  24  26  27  28
 233 prop tor  24  26  27  56
 234 ben  24  26  39
 235 prop tor  24  26  39  14
 236 prop tor  24  26  39  38
 237 ben  25  24  26
 238 prop tor  25  24  26  27
 239 prop tor  25  24  26  39
 240 ben  26  27  28
 241 prop tor  26  27  28  29
 242 prop tor  26  27  28  57
 243 ben  26  27  56
 244 ben  26  39  38
 245 ben  27  26  39
 246 prop tor  27  26  39  14
 247 prop tor  27  26  39  38
 248 ben  27  28  29
 249 prop tor  27  28  29  30
 250 prop tor  27  28  29  38
 251 ben  27  28  57
 252 ben  28  27  56
 253 ben  28  29  30
 254 prop tor  28  29  30  31
 255 prop tor  28  29  30  37
 256 ben  28  29  38
 257 prop tor  28  29  38  11
 258 prop tor  28  29  38  39
 259 ben  29  28  57
 260 ben  29  30  31
 261 prop tor  29  30  31  32
 262 prop tor  29  30  31  58
 263 ben  29  30  37
 264 prop tor  29  30  37  10
 265 prop tor  29  30  37  36
 266 ben  29  38  39
 267 prop tor  29  38  39  14
 268 prop tor  29  38  39  26
 269 ben  30  29  38
 270 prop tor  30  29  38  11
 271 prop tor  30  29  38  39
 272 ben  30  31  32
 273 prop tor  30  31  32  33
 274 prop tor  30  31  32  59
 275 ben  30  31  58
 276 ben  30  37  36
 277 ben  31  30  37
 278 prop tor  31  30  37  10
 279 prop tor  31  30  37  36
 280 ben  31  32  33
 281 prop tor  31  32  33  34
 282 prop tor  31  32  33  36
 283 ben  31  32  59
 284 ben  32  31  58
 285 ben  32  33  34
 286 prop tor  32  33  34   4
 287 prop tor  32  33  34  35
 288 ben  32  33  36
 289 prop tor  32  33  36   7
 290 prop tor  32  33  36  37
 291 ben  33  32  59
 292 ben  33  34  35
 293 ben  33  36  37
 294 prop tor  33  36  37  10
 295 prop tor  33  36  37  30
 296 prop tor  34   4   5   6
 297 prop tor  34   4   5   7
 298 ben  34  33  36
 299 prop tor  34  33  36   7
 300 prop tor  34  33  36  37
 301 prop tor  36   7   8   9
 302 prop tor  36   7   8  47
 303 prop tor  36  33  34   4
 304 prop tor  36  33  34  35
 305 prop tor  37  10  11  12
 306 prop tor  37  10  11  38
 307 prop tor  37  30  31  32
 308 prop tor  37  30  31  58
 309 prop tor  38  11  12  13
 310 prop tor  38  11  12  49
 311 prop tor  38  29  30  31
 312 prop tor  38  29  30  37
 313 prop tor  39  14  15  16
 314 prop tor  39  14  15  17
 315 prop tor  39  26  27  28
 316 prop tor  39  26  27  56
 317 prop tor  40   1   2   3
 318 prop tor  40   1   2   4
 319 prop tor  40   1   2  43
 320 ben  40   1  41
 321 ben  40   1  42
 322 prop tor  41   1   2   3
 323 prop tor  41   1   2   4
 324 prop tor  41   1   2  43
 325 ben  41   1  42
 326 prop tor  42   1   2   3
 327 prop tor  42   1   2   4
 328 prop tor  42   1   2  43
 329 prop tor  43   2   3  44
 330 prop tor  43   2   3  45
 331 prop tor  43   2   3  46
 332 prop tor  43   2   4   5
 333 prop tor  43   2   4  34
 334 ben  44   3  45
 335 ben  44   3  46
 336 ben  45   3  46
 337 prop tor  47   8   9  10
 338 prop tor  47   8   9  48
 339 prop tor  48   9  10  11
 340 prop tor  48   9  10  37
 341 prop tor  49  12  13  14
 342 prop tor  49  12  13  50
 343 prop tor  50  13  14  15
 344 prop tor  50  13  14  39
 345 prop tor  51  19  20  21
 346 prop tor  51  19  20  52
 347 prop tor  52  20  21  22
 348 prop tor  52  20  21  53
 349 prop tor  53  21  22  23
 350 prop tor  53  21  22  54
 351 prop tor  54  22  23  18
 352 prop tor  54  22  23  55
 353 prop tor  56  27  28  29
 354 prop tor  56  27  28  57
 355 prop tor  57  28  29  30
 356 prop tor  57  28  29  38
 357 prop tor  58  31  32  33
 358 prop tor  58  31  32  59
 359 prop tor  59  32  33  34
 360 prop tor  59  32  33  36
 nber bend=             114
 nber lin bend=           0
 nber prop tor=         180
 nber impr tor=           0
 nber tot redund int=         360
 Eigenvalues of G in red int coords
    Gval -0.00000000 -0.00000000 -0.00000000 -0.00000000 -0.00000000 -0.00000000 -0.00000000 -0.00000000
    Gval -0.00000000 -0.00000000 -0.00000000 -0.00000000 -0.00000000 -0.00000000 -0.00000000 -0.00000000
    Gval -0.00000000 -0.00000000 -0.00000000 -0.00000000 -0.00000000 -0.00000000 -0.00000000 -0.00000000
    Gval -0.00000000 -0.00000000 -0.00000000 -0.00000000 -0.00000000 -0.00000000 -0.00000000 -0.00000000
    Gval -0.00000000 -0.00000000 -0.00000000 -0.00000000 -0.00000000 -0.00000000 -0.00000000 -0.00000000
    Gval -0.00000000 -0.00000000 -0.00000000 -0.00000000 -0.00000000 -0.00000000 -0.00000000 -0.00000000
    Gval -0.00000000 -0.00000000 -0.00000000 -0.00000000 -0.00000000 -0.00000000 -0.00000000 -0.00000000
    Gval -0.00000000 -0.00000000 -0.00000000 -0.00000000 -0.00000000 -0.00000000 -0.00000000 -0.00000000
    Gval -0.00000000 -0.00000000 -0.00000000 -0.00000000 -0.00000000 -0.00000000 -0.00000000 -0.00000000
    Gval -0.00000000 -0.00000000 -0.00000000 -0.00000000 -0.00000000 -0.00000000 -0.00000000 -0.00000000
    Gval -0.00000000 -0.00000000 -0.00000000 -0.00000000 -0.00000000 -0.00000000 -0.00000000 -0.00000000
    Gval -0.00000000 -0.00000000 -0.00000000 -0.00000000 -0.00000000 -0.00000000 -0.00000000 -0.00000000
    Gval -0.00000000 -0.00000000  0.00000000  0.00000000  0.00000000  0.00000000  0.00000000  0.00000000
    Gval  0.00000000  0.00000000  0.00000000  0.00000000  0.00000000  0.00000000  0.00000000  0.00000000
    Gval  0.00000000  0.00000000  0.00000000  0.00000000  0.00000000  0.00000000  0.00000000  0.00000000
    Gval  0.00000000  0.00000000  0.00000000  0.00000000  0.00000000  0.00000000  0.00000000  0.00000000
    Gval  0.00000000  0.00000000  0.00000000  0.00000000  0.00000000  0.00000000  0.00000000  0.00000000
    Gval  0.00000000  0.00000000  0.00000000  0.00000000  0.00000000  0.00000000  0.00000000  0.00000000
    Gval  0.00000000  0.00000000  0.00000000  0.00000000  0.00000000  0.00000000  0.00000000  0.00000000
    Gval  0.00000000  0.00000000  0.00000000  0.00000000  0.00000000  0.00000000  0.00000000  0.00000000
    Gval  0.00000000  0.00000000  0.00000000  0.00000000  0.00000000  0.00000000  0.00000000  0.00000000
    Gval  0.00000000  0.00000000  0.00000000  0.00000000  0.00000000  0.00000000  0.00000000  0.00000000
    Gval  0.00000000  0.00000000  0.00000000  0.00000000  0.00000000  0.00000000  0.00000000  0.00000000
    Gval  0.00000000  0.00000000  0.00000000  0.00000000  0.00000000  0.00000064  0.00000140  0.00000199
    Gval  0.00000241  0.00000535  0.00000584  0.00000675  0.00000922  0.00000964  0.00001100  0.00001411
    Gval  0.00001555  0.00001629  0.00001736  0.00001791  0.00001835  0.00002151  0.00002171  0.00002397
    Gval  0.00002433  0.00002490  0.00002562  0.00002989  0.00003324  0.00003850  0.00003995  0.00004445
    Gval  0.00004889  0.00005000  0.00005203  0.00005315  0.00005511  0.00005629  0.00005979  0.00006005
    Gval  0.00006331  0.00006817  0.00007071  0.00007367  0.00008079  0.00008161  0.00008238  0.00008458
    Gval  0.00008706  0.00008764  0.00009316  0.00009483  0.00009990  0.00011323  0.00011658  0.00011729
    Gval  0.00012246  0.00013086  0.00013607  0.00013709  0.00014034  0.00014574  0.00015568  0.00015902
    Gval  0.00016125  0.00017898  0.00018202  0.00018829  0.00020405  0.00022192  0.00022768  0.00023143
    Gval  0.00025058  0.00026409  0.00026929  0.00028671  0.00028751  0.00029821  0.00034074  0.00034715
    Gval  0.00035230  0.00036614  0.00038255  0.00038638  0.00038736  0.00039204  0.00040823  0.00041556
    Gval  0.00042259  0.00043064  0.00043585  0.00044104  0.00044222  0.00046380  0.00046570  0.00046958
    Gval  0.00047954  0.00049413  0.00052540  0.00053342  0.00053726  0.00054056  0.00055377  0.00055579
    Gval  0.00055595  0.00056572  0.00059306  0.00059389  0.00059851  0.00059922  0.00059957  0.00059984
    Gval  0.00060221  0.00060409  0.00061703  0.00062606  0.00064138  0.00064487  0.00064567  0.00064745
    Gval  0.00065951  0.00066953  0.00069312  0.00069719  0.00076681  0.00079319  0.00082858  0.00094357
    Gval  0.00099531  0.00104530  0.00109381  0.00109477  0.00109541  0.00109599  0.00111459  0.00114575
    Gval  0.00114901  0.00116441  0.00116492  0.00116675  0.00116725  0.00116925  0.00116982  0.00117566
    Gval  0.00118365  0.00121206  0.00124000  0.00129283  0.00132407  0.00144884  0.00149649  0.00152955
    Gval  0.00172395  0.00173935  0.00188058  0.00193706  0.00227860  0.00234181  0.00234744  0.00252183
    Gval  0.00253125  0.00256129  0.00278013  0.00292446  0.00302242  0.00304255  0.00308263  0.00309285
    Gval  0.00314776  0.00366462  0.00366633  0.00371239  0.00371397  0.00378961  0.00393516  0.00407390
  6.351224445437643E-007  6.351224445437643E-007
  1.402549366806803E-006  6.351224445437643E-007
  1.993237782682696E-006  6.351224445437643E-007
  2.414194512821987E-006  6.351224445437643E-007
  5.352471569675408E-006  6.351224445437643E-007
  5.842534935815710E-006  6.351224445437643E-007
  6.751456230384892E-006  6.351224445437643E-007
  9.221247046931539E-006  6.351224445437643E-007
  9.639251609891166E-006  6.351224445437643E-007
  1.100321323646461E-005  6.351224445437643E-007
  1.410653521106663E-005  6.351224445437643E-007
  1.555133232023615E-005  6.351224445437643E-007
  1.628609152980504E-005  6.351224445437643E-007
  1.735816637042023E-005  6.351224445437643E-007
  1.790534922199749E-005  6.351224445437643E-007
  1.834716461761399E-005  6.351224445437643E-007
  2.151396336540737E-005  6.351224445437643E-007
  2.170640779480604E-005  6.351224445437643E-007
  2.396683507156968E-005  6.351224445437643E-007
  2.433103856138423E-005  6.351224445437643E-007
  2.489610751210673E-005  6.351224445437643E-007
  2.562279376118397E-005  6.351224445437643E-007
  2.989165693681299E-005  6.351224445437643E-007
  3.323769946545835E-005  6.351224445437643E-007
  3.849877234756217E-005  6.351224445437643E-007
  3.994636664264853E-005  6.351224445437643E-007
  4.445205477392561E-005  6.351224445437643E-007
  4.889003359342044E-005  6.351224445437643E-007
  4.999814226724650E-005  6.351224445437643E-007
  5.202931270777740E-005  6.351224445437643E-007
  5.314921168603498E-005  6.351224445437643E-007
  5.511070714482703E-005  6.351224445437643E-007
  5.629333679125736E-005  6.351224445437643E-007
  5.979229677115861E-005  6.351224445437643E-007
  6.004791426178689E-005  6.351224445437643E-007
  6.330589808628877E-005  6.351224445437643E-007
  6.817078624960991E-005  6.351224445437643E-007
  7.071274705640968E-005  6.351224445437643E-007
  7.367189114143778E-005  6.351224445437643E-007
  8.079325426101275E-005  6.351224445437643E-007
  8.160616219441081E-005  6.351224445437643E-007
  8.238366874943299E-005  6.351224445437643E-007
  8.457530424727162E-005  6.351224445437643E-007
  8.706025284414000E-005  6.351224445437643E-007
  8.764484264156967E-005  6.351224445437643E-007
  9.316379918956106E-005  6.351224445437643E-007
  9.483099086045433E-005  6.351224445437643E-007
  9.989860475007329E-005  6.351224445437643E-007
  1.132335289945816E-004  6.351224445437643E-007
  1.165821492224892E-004  6.351224445437643E-007
  1.172857259458741E-004  6.351224445437643E-007
  1.224567538603197E-004  6.351224445437643E-007
  1.308578257647034E-004  6.351224445437643E-007
  1.360702725506651E-004  6.351224445437643E-007
  1.370946300236525E-004  6.351224445437643E-007
  1.403443271886960E-004  6.351224445437643E-007
  1.457414469495734E-004  6.351224445437643E-007
  1.556814685070990E-004  6.351224445437643E-007
  1.590232644600972E-004  6.351224445437643E-007
  1.612455607759946E-004  6.351224445437643E-007
  1.789821550234906E-004  6.351224445437643E-007
  1.820182095287222E-004  6.351224445437643E-007
  1.882922280561445E-004  6.351224445437643E-007
  2.040484793968245E-004  6.351224445437643E-007
  2.219163656110090E-004  6.351224445437643E-007
  2.276834671583145E-004  6.351224445437643E-007
  2.314306089897349E-004  6.351224445437643E-007
  2.505754565898242E-004  6.351224445437643E-007
  2.640881936658344E-004  6.351224445437643E-007
  2.692890091743797E-004  6.351224445437643E-007
  2.867104820012972E-004  6.351224445437643E-007
  2.875065341489018E-004  6.351224445437643E-007
  2.982073859207055E-004  6.351224445437643E-007
  3.407401000217791E-004  6.351224445437643E-007
  3.471469339873288E-004  6.351224445437643E-007
  3.522979640443286E-004  6.351224445437643E-007
  3.661443251266691E-004  6.351224445437643E-007
  3.825540693762486E-004  6.351224445437643E-007
  3.863801246103044E-004  6.351224445437643E-007
  3.873558211317837E-004  6.351224445437643E-007
  3.920375322042100E-004  6.351224445437643E-007
  4.082332191239456E-004  6.351224445437643E-007
  4.155570100755386E-004  6.351224445437643E-007
  4.225926505992479E-004  6.351224445437643E-007
  4.306352538908566E-004  6.351224445437643E-007
  4.358538161257787E-004  6.351224445437643E-007
  4.410364644802218E-004  6.351224445437643E-007
  4.422190097718377E-004  6.351224445437643E-007
  4.638045486698472E-004  6.351224445437643E-007
  4.656989836874634E-004  6.351224445437643E-007
  4.695789544479127E-004  6.351224445437643E-007
  4.795383241156037E-004  6.351224445437643E-007
  4.941263048824985E-004  6.351224445437643E-007
  5.253998444870350E-004  6.351224445437643E-007
  5.334228650148414E-004  6.351224445437643E-007
  5.372632898043935E-004  6.351224445437643E-007
  5.405593745511989E-004  6.351224445437643E-007
  5.537653219262401E-004  6.351224445437643E-007
  5.557884307098104E-004  6.351224445437643E-007
  5.559536377706793E-004  6.351224445437643E-007
  5.657232080140767E-004  6.351224445437643E-007
  5.930575679064855E-004  6.351224445437643E-007
  5.938928083174261E-004  6.351224445437643E-007
  5.985134032944451E-004  6.351224445437643E-007
  5.992225085342829E-004  6.351224445437643E-007
  5.995659940310373E-004  6.351224445437643E-007
  5.998395688180107E-004  6.351224445437643E-007
  6.022099362865527E-004  6.351224445437643E-007
  6.040926843432794E-004  6.351224445437643E-007
  6.170291279637438E-004  6.351224445437643E-007
  6.260590986216031E-004  6.351224445437643E-007
  6.413823186812170E-004  6.351224445437643E-007
  6.448707905238158E-004  6.351224445437643E-007
  6.456719142629660E-004  6.351224445437643E-007
  6.474502874688465E-004  6.351224445437643E-007
  6.595085662462119E-004  6.351224445437643E-007
  6.695300024540015E-004  6.351224445437643E-007
  6.931162646929621E-004  6.351224445437643E-007
  6.971875896651328E-004  6.351224445437643E-007
  7.668101557056588E-004  6.351224445437643E-007
  7.931930032485833E-004  6.351224445437643E-007
  8.285812743025039E-004  6.351224445437643E-007
  9.435721960155639E-004  6.351224445437643E-007
  9.953085691861681E-004  6.351224445437643E-007
  1.045302916669624E-003  6.351224445437643E-007
  1.093814130678028E-003  6.351224445437643E-007
  1.094771516658895E-003  6.351224445437643E-007
  1.095409730028643E-003  6.351224445437643E-007
  1.095990830012578E-003  6.351224445437643E-007
  1.114588588012736E-003  6.351224445437643E-007
  1.145752413132436E-003  6.351224445437643E-007
  1.149009717928793E-003  6.351224445437643E-007
  1.164410289942955E-003  6.351224445437643E-007
  1.164923248957852E-003  6.351224445437643E-007
  1.166748915251409E-003  6.351224445437643E-007
  1.167254129667679E-003  6.351224445437643E-007
  1.169249410029332E-003  6.351224445437643E-007
  1.169815903489085E-003  6.351224445437643E-007
  1.175664666282694E-003  6.351224445437643E-007
  1.183654925439163E-003  6.351224445437643E-007
  1.212062186945773E-003  6.351224445437643E-007
  1.239999034079848E-003  6.351224445437643E-007
  1.292825789006385E-003  6.351224445437643E-007
  1.324072921201106E-003  6.351224445437643E-007
  1.448841826317333E-003  6.351224445437643E-007
  1.496486915164431E-003  6.351224445437643E-007
  1.529546194272828E-003  6.351224445437643E-007
  1.723948118329800E-003  6.351224445437643E-007
  1.739352704392712E-003  6.351224445437643E-007
  1.880581665995124E-003  6.351224445437643E-007
  1.937057712960345E-003  6.351224445437643E-007
  2.278600830528008E-003  6.351224445437643E-007
  2.341807512744567E-003  6.351224445437643E-007
  2.347437786077324E-003  6.351224445437643E-007
  2.521829819687468E-003  6.351224445437643E-007
  2.531251737481853E-003  6.351224445437643E-007
  2.561288489484619E-003  6.351224445437643E-007
  2.780125555110311E-003  6.351224445437643E-007
  2.924456283698467E-003  6.351224445437643E-007
  3.022423001931010E-003  6.351224445437643E-007
  3.042551644887722E-003  6.351224445437643E-007
  3.082625637391038E-003  6.351224445437643E-007
  3.092850013969604E-003  6.351224445437643E-007
  3.147760893671278E-003  6.351224445437643E-007
  3.664620064891620E-003  6.351224445437643E-007
  3.666330922223558E-003  6.351224445437643E-007
  3.712393141455958E-003  6.351224445437643E-007
  3.713968360501681E-003  6.351224445437643E-007
  3.789611040205631E-003  6.351224445437643E-007
  3.935160434332128E-003  6.351224445437643E-007
  4.073898941070633E-003  6.351224445437643E-007
 cut=1d-8, nber non-redundant internal coords=         171
 Check on Eigenvals of non-red overlap matrix:
  0.00000064  0.00000140  0.00000199  0.00000241  0.00000535  0.00000584  0.00000675  0.00000922
  0.00000964  0.00001100  0.00001411  0.00001555  0.00001629  0.00001736  0.00001791  0.00001835
  0.00002151  0.00002171  0.00002397  0.00002433  0.00002490  0.00002562  0.00002989  0.00003324
  0.00003850  0.00003995  0.00004445  0.00004889  0.00005000  0.00005203  0.00005315  0.00005511
  0.00005629  0.00005979  0.00006005  0.00006331  0.00006817  0.00007071  0.00007367  0.00008079
  0.00008161  0.00008238  0.00008458  0.00008706  0.00008764  0.00009316  0.00009483  0.00009990
  0.00011323  0.00011658  0.00011729  0.00012246  0.00013086  0.00013607  0.00013709  0.00014034
  0.00014574  0.00015568  0.00015902  0.00016125  0.00017898  0.00018202  0.00018829  0.00020405
  0.00022192  0.00022768  0.00023143  0.00025058  0.00026409  0.00026929  0.00028671  0.00028751
  0.00029821  0.00034074  0.00034715  0.00035230  0.00036614  0.00038255  0.00038638  0.00038736
  0.00039204  0.00040823  0.00041556  0.00042259  0.00043064  0.00043585  0.00044104  0.00044222
  0.00046380  0.00046570  0.00046958  0.00047954  0.00049413  0.00052540  0.00053342  0.00053726
  0.00054056  0.00055377  0.00055579  0.00055595  0.00056572  0.00059306  0.00059389  0.00059851
  0.00059922  0.00059957  0.00059984  0.00060221  0.00060409  0.00061703  0.00062606  0.00064138
  0.00064487  0.00064567  0.00064745  0.00065951  0.00066953  0.00069312  0.00069719  0.00076681
  0.00079319  0.00082858  0.00094357  0.00099531  0.00104530  0.00109381  0.00109477  0.00109541
  0.00109599  0.00111459  0.00114575  0.00114901  0.00116441  0.00116492  0.00116675  0.00116725
  0.00116925  0.00116982  0.00117566  0.00118365  0.00121206  0.00124000  0.00129283  0.00132407
  0.00144884  0.00149649  0.00152955  0.00172395  0.00173935  0.00188058  0.00193706  0.00227860
  0.00234181  0.00234744  0.00252183  0.00253125  0.00256129  0.00278013  0.00292446  0.00302242
  0.00304255  0.00308263  0.00309285  0.00314776  0.00366462  0.00366633  0.00371239  0.00371397
  0.00378961  0.00393516  0.00407390
 Checking for correct frequencies
 recalc frequencies=
    -0.0   -0.0    0.0    0.0    0.0    0.0   15.3   22.6   32.5   49.6
    54.6   60.1   68.4   87.4  100.2  110.8  114.6  167.0  168.6  170.9
   188.6  195.0  212.6  218.6  233.9  235.2  257.8  258.9  268.5  295.8
   306.4  314.1  340.8  363.0  369.4  380.5  397.2  416.3  421.2  434.6
   441.7  446.7  448.1  453.1  466.8  480.1  493.9  500.4  502.7  515.1
   515.3  540.0  547.6  579.5  581.2  591.0  622.6  625.4  635.7  650.1
   661.9  666.7  709.3  712.2  727.4  746.9  752.9  757.6  768.0  785.0
   794.7  797.3  803.2  806.1  816.2  819.9  824.8  829.7  834.0  834.7
   846.6  855.4  894.2  925.1  927.7  943.9  955.9  959.2  971.5  973.0
   975.8  977.1  986.7  989.8  994.0 1000.2 1002.2 1021.3 1064.3 1069.4
  1094.8 1123.2 1133.8 1146.1 1155.2 1166.0 1167.9 1175.0 1189.8 1201.1
  1206.5 1220.8 1227.6 1236.8 1246.8 1265.0 1280.0 1296.0 1315.0 1318.0
  1322.8 1335.0 1360.3 1363.9 1371.3 1376.4 1383.9 1392.7 1396.8 1398.0
  1412.5 1415.1 1425.3 1437.9 1460.1 1470.9 1480.2 1482.8 1484.2 1490.6
  1496.4 1506.4 1523.4 1532.6 1537.4 1556.1 1575.9 1582.0 1589.4 1615.2
  1618.3 1633.4 1647.8 1686.8 1709.6 1723.0 1761.1 3030.6 3035.1 3087.9
  3091.1 3110.1 3131.8 3141.7 3193.9 3194.2 3196.4 3199.7 3199.9 3206.3
  3209.5 3209.7 3214.1 3225.4 3225.6 3273.7 3275.0
 recalc symmetries=
                                                                       
                                                                       
                                                                       
                                                                       
                                                                       
                                                                       
                                                                       
                                                                       
                                                                       
                                                                       
                                                                       
                                                                       
                                                                       
                                                                       
                                                                       
                                                                       
                                                                       
                                                  
 recalc freqs check OK
 Zero-point lengths:
 10.0000 10.0000 10.0000 10.0000 10.0000 10.0000 63.4480 52.1605 43.4962 35.2084
 33.5559 31.9726 29.9676 26.5162 24.7708 23.5511 23.1535 19.1851 19.0928 18.9639
 18.0528 17.7548 17.0028 16.7693 16.2107 16.1633 15.4388 15.4067 15.1299 14.4144
 14.1635 13.9872 13.4291 13.0117 12.8989 12.7097 12.4388 12.1499 12.0790 11.8914
 11.7959 11.7294 11.7114 11.6465 11.4747 11.3144 11.1557 11.0823 11.0571 10.9229
 10.9213 10.6682 10.5945 10.2983 10.2829 10.1976  9.9356  9.9135  9.8329  9.7232
  9.6363  9.6011  9.3084  9.2896  9.1918  9.0712  9.0351  9.0068  8.9459  8.8486
  8.7940  8.7798  8.7474  8.7318  8.6777  8.6579  8.6323  8.6069  8.5843  8.5808
  8.5201  8.4762  8.2904  8.1508  8.1394  8.0692  8.0184  8.0048  7.9537  7.9476
  7.9364  7.9308  7.8922  7.8799  7.8633  7.8388  7.8308  7.7574  7.5991  7.5810
  7.4927  7.3973  7.3626  7.3228  7.2941  7.2601  7.2541  7.2323  7.1872  7.1533
  7.1372  7.0952  7.0757  7.0494  7.0211  6.9703  6.9293  6.8863  6.8365  6.8287
  6.8164  6.7851  6.7217  6.7128  6.6946  6.6822  6.6641  6.6431  6.6334  6.6304
  6.5963  6.5903  6.5667  6.5378  6.4878  6.4641  6.4436  6.4381  6.4349  6.4213
  6.4087  6.3874  6.3518  6.3326  6.3228  6.2846  6.2449  6.2329  6.2183  6.1686
  6.1626  6.1341  6.1072  6.0362  5.9959  5.9724  5.9074  4.5033  4.5000  4.4613
  4.4590  4.4454  4.4300  4.4229  4.3867  4.3865  4.3849  4.3827  4.3826  4.3782
  4.3760  4.3758  4.3729  4.3652  4.3651  4.3329  4.3320
 highest evec of mol 1
 -0.0000  0.0000  0.0000
  0.0000 -0.0000 -0.0000
 -0.0000  0.0000  0.0000
  0.0000 -0.0000 -0.0000
 -0.0000 -0.0000  0.0001
  0.0000  0.0000 -0.0000
  0.0000  0.0000 -0.0001
 -0.0000 -0.0000  0.0000
  0.0000  0.0000 -0.0001
 -0.0000 -0.0000  0.0001
  0.0000  0.0001 -0.0001
  0.0000 -0.0003 -0.0000
  0.0000 -0.0000 -0.0000
  0.0001 -0.0001  0.0002
  0.0003 -0.0007 -0.0011
 -0.0011  0.0012 -0.0009
 -0.0009  0.0023  0.0011
 -0.0035 -0.0070 -0.0051
  0.0509  0.0746  0.1754
  0.0080  0.0161 -0.0075
 -0.0022 -0.0025 -0.0019
  0.0007  0.0012  0.0210
  0.1053  0.1840  0.0025
  0.0000 -0.0013  0.0000
 -0.0015  0.0002  0.0009
  0.0002  0.0001 -0.0001
 -0.0000 -0.0000  0.0000
  0.0001 -0.0002 -0.0002
 -0.0000  0.0000  0.0001
  0.0000  0.0001 -0.0001
 -0.0000 -0.0001  0.0001
  0.0000  0.0000 -0.0001
 -0.0000 -0.0000  0.0001
  0.0000  0.0001 -0.0001
 -0.0000 -0.0000  0.0000
 -0.0000  0.0000  0.0000
  0.0000 -0.0000 -0.0000
 -0.0001 -0.0001 -0.0001
  0.0001  0.0000  0.0000
  0.0000 -0.0000 -0.0000
 -0.0000 -0.0000 -0.0000
  0.0000 -0.0000  0.0000
 -0.0000  0.0000  0.0000
  0.0000 -0.0000 -0.0000
  0.0000 -0.0000 -0.0000
  0.0000  0.0000  0.0000
 -0.0000  0.0001 -0.0000
 -0.0001  0.0001  0.0001
 -0.0001  0.0008 -0.0001
 -0.0001 -0.0000  0.0000
 -0.1647 -0.2549 -0.5749
 -0.0223 -0.0422  0.0008
  0.0011 -0.0001  0.0002
 -0.0112 -0.0193 -0.0467
 -0.3406 -0.6093 -0.0159
 -0.0000 -0.0000 -0.0000
 -0.0003  0.0004  0.0006
 -0.0000  0.0002 -0.0000
 -0.0000  0.0001  0.0001
 generating redundant internal coords
         300        3600          59
 Adding extra bonds for z output only
           6           6           6           7           6           8
           6           6           6           6           6           6
           6           6           6           8           7           6
           6           6           6           6           6           6
           8           6           6           6           6           6
           6           6           6           6           8           6
           6           6           6           1           1           1
           1           1           1           1           1           1
           1           1           1           1           1           1
           1           1           1           1           1
 search for int coords
   1 str   2   1   1.533
   2 str   3   2   1.533
   3 str   4   2   1.494
   4 str   5   4   1.403
   5 str   6   5   1.224
   6 str   7   5   1.473
   7 str   8   7   1.394
   8 str   9   8   1.383
   9 str  10   9   1.412
  10 str  11  10   1.446
  11 str  12  11   1.419
  12 str  13  12   1.370
  13 str  14  13   1.409
  14 str  15  14   1.436
  15 str  16  15   1.217
  16 str  17  15   1.478
  17 str  18  17   1.379
  18 str  19  18   1.437
  19 str  20  19   1.372
  20 str  21  20   1.408
  21 str  22  21   1.408
  22 str  23  18   1.437
  23 str  23  22   1.372
  24 str  24  17   1.478
  25 str  25  24   1.217
  26 str  26  24   1.436
  27 str  27  26   1.409
  28 str  28  27   1.370
  29 str  29  28   1.419
  30 str  30  29   1.446
  31 str  31  30   1.413
  32 str  32  31   1.383
  33 str  33  32   1.394
  34 str  34   4   1.411
  35 str  34  33   1.472
  36 str  35  34   1.223
  37 str  36   7   1.411
  38 str  36  33   1.412
  39 str  37  10   1.427
  40 str  37  30   1.427
  41 str  37  36   1.433
  42 str  38  11   1.431
  43 str  38  29   1.431
  44 str  39  14   1.417
  45 str  39  26   1.417
  46 str  39  38   1.441
  47 str  40   1   1.094
  48 str  41   1   1.089
  49 str  42   1   1.093
  50 str  43   2   1.088
  51 str  44   3   1.089
  52 str  45   3   1.094
  53 str  46   3   1.093
  54 str  47   8   1.083
  55 str  48   9   1.081
  56 str  49  12   1.080
  57 str  50  13   1.082
  58 str  51  19   1.076
  59 str  52  20   1.082
  60 str  53  21   1.083
  61 str  54  22   1.082
  62 str  55  23   1.076
  63 str  56  27   1.082
  64 str  57  28   1.080
  65 str  58  31   1.081
  66 str  59  32   1.083
 nber stretches=          66
  67 ben   1   2   3
  68 prop tor   1   2   3  44
  69 prop tor   1   2   3  45
  70 prop tor   1   2   3  46
  71 ben   1   2   4
  72 prop tor   1   2   4   5
  73 prop tor   1   2   4  34
  74 ben   1   2  43
  75 ben   2   1  40
  76 ben   2   1  41
  77 ben   2   1  42
  78 ben   2   3  44
  79 ben   2   3  45
  80 ben   2   3  46
  81 ben   2   4   5
  82 prop tor   2   4   5   6
  83 prop tor   2   4   5   7
  84 ben   2   4  34
  85 prop tor   2   4  34  33
  86 prop tor   2   4  34  35
  87 ben   3   2   4
  88 prop tor   3   2   4   5
  89 prop tor   3   2   4  34
  90 ben   3   2  43
  91 prop tor   4   2   3  44
  92 prop tor   4   2   3  45
  93 prop tor   4   2   3  46
  94 ben   4   2  43
  95 ben   4   5   6
  96 ben   4   5   7
  97 prop tor   4   5   7   8
  98 prop tor   4   5   7  36
  99 ben   4  34  33
 100 ben   4  34  35
 101 ben   5   4  34
 102 prop tor   5   4  34  33
 103 prop tor   5   4  34  35
 104 ben   5   7   8
 105 prop tor   5   7   8   9
 106 prop tor   5   7   8  47
 107 ben   5   7  36
 108 prop tor   5   7  36  33
 109 prop tor   5   7  36  37
 110 ben   6   5   7
 111 prop tor   6   5   7   8
 112 prop tor   6   5   7  36
 113 ben   7   8   9
 114 prop tor   7   8   9  10
 115 prop tor   7   8   9  48
 116 ben   7   8  47
 117 ben   7  36  33
 118 ben   7  36  37
 119 prop tor   7  36  37  10
 120 prop tor   7  36  37  30
 121 ben   8   7  36
 122 prop tor   8   7  36  33
 123 prop tor   8   7  36  37
 124 ben   8   9  10
 125 prop tor   8   9  10  11
 126 prop tor   8   9  10  37
 127 ben   8   9  48
 128 ben   9   8  47
 129 ben   9  10  11
 130 prop tor   9  10  11  12
 131 prop tor   9  10  11  38
 132 ben   9  10  37
 133 prop tor   9  10  37  30
 134 prop tor   9  10  37  36
 135 ben  10   9  48
 136 ben  10  11  12
 137 prop tor  10  11  12  13
 138 prop tor  10  11  12  49
 139 ben  10  11  38
 140 prop tor  10  11  38  29
 141 prop tor  10  11  38  39
 142 ben  10  37  30
 143 ben  10  37  36
 144 ben  11  10  37
 145 prop tor  11  10  37  30
 146 prop tor  11  10  37  36
 147 ben  11  12  13
 148 prop tor  11  12  13  14
 149 prop tor  11  12  13  50
 150 ben  11  12  49
 151 ben  11  38  29
 152 ben  11  38  39
 153 prop tor  11  38  39  14
 154 prop tor  11  38  39  26
 155 ben  12  11  38
 156 prop tor  12  11  38  29
 157 prop tor  12  11  38  39
 158 ben  12  13  14
 159 prop tor  12  13  14  15
 160 prop tor  12  13  14  39
 161 ben  12  13  50
 162 ben  13  12  49
 163 ben  13  14  15
 164 prop tor  13  14  15  16
 165 prop tor  13  14  15  17
 166 ben  13  14  39
 167 prop tor  13  14  39  26
 168 prop tor  13  14  39  38
 169 ben  14  13  50
 170 ben  14  15  16
 171 ben  14  15  17
 172 prop tor  14  15  17  18
 173 prop tor  14  15  17  24
 174 ben  14  39  26
 175 ben  14  39  38
 176 ben  15  14  39
 177 prop tor  15  14  39  26
 178 prop tor  15  14  39  38
 179 ben  15  17  18
 180 prop tor  15  17  18  19
 181 prop tor  15  17  18  23
 182 ben  15  17  24
 183 prop tor  15  17  24  25
 184 prop tor  15  17  24  26
 185 ben  16  15  17
 186 prop tor  16  15  17  18
 187 prop tor  16  15  17  24
 188 ben  17  18  19
 189 prop tor  17  18  19  20
 190 prop tor  17  18  19  51
 191 ben  17  18  23
 192 prop tor  17  18  23  22
 193 prop tor  17  18  23  55
 194 ben  17  24  25
 195 ben  17  24  26
 196 prop tor  17  24  26  27
 197 prop tor  17  24  26  39
 198 ben  18  17  24
 199 prop tor  18  17  24  25
 200 prop tor  18  17  24  26
 201 ben  18  19  20
 202 prop tor  18  19  20  21
 203 prop tor  18  19  20  52
 204 ben  18  19  51
 205 ben  18  23  22
 206 ben  18  23  55
 207 ben  19  18  23
 208 prop tor  19  18  23  22
 209 prop tor  19  18  23  55
 210 ben  19  20  21
 211 prop tor  19  20  21  22
 212 prop tor  19  20  21  53
 213 ben  19  20  52
 214 ben  20  19  51
 215 ben  20  21  22
 216 prop tor  20  21  22  23
 217 prop tor  20  21  22  54
 218 ben  20  21  53
 219 ben  21  20  52
 220 ben  21  22  23
 221 prop tor  21  22  23  18
 222 prop tor  21  22  23  55
 223 ben  21  22  54
 224 ben  22  21  53
 225 ben  22  23  55
 226 prop tor  23  18  19  20
 227 prop tor  23  18  19  51
 228 ben  23  22  54
 229 prop tor  24  17  18  19
 230 prop tor  24  17  18  23
 231 ben  24  26  27
 232 prop tor  24  26  27  28
 233 prop tor  24  26  27  56
 234 ben  24  26  39
 235 prop tor  24  26  39  14
 236 prop tor  24  26  39  38
 237 ben  25  24  26
 238 prop tor  25  24  26  27
 239 prop tor  25  24  26  39
 240 ben  26  27  28
 241 prop tor  26  27  28  29
 242 prop tor  26  27  28  57
 243 ben  26  27  56
 244 ben  26  39  38
 245 ben  27  26  39
 246 prop tor  27  26  39  14
 247 prop tor  27  26  39  38
 248 ben  27  28  29
 249 prop tor  27  28  29  30
 250 prop tor  27  28  29  38
 251 ben  27  28  57
 252 ben  28  27  56
 253 ben  28  29  30
 254 prop tor  28  29  30  31
 255 prop tor  28  29  30  37
 256 ben  28  29  38
 257 prop tor  28  29  38  11
 258 prop tor  28  29  38  39
 259 ben  29  28  57
 260 ben  29  30  31
 261 prop tor  29  30  31  32
 262 prop tor  29  30  31  58
 263 ben  29  30  37
 264 prop tor  29  30  37  10
 265 prop tor  29  30  37  36
 266 ben  29  38  39
 267 prop tor  29  38  39  14
 268 prop tor  29  38  39  26
 269 ben  30  29  38
 270 prop tor  30  29  38  11
 271 prop tor  30  29  38  39
 272 ben  30  31  32
 273 prop tor  30  31  32  33
 274 prop tor  30  31  32  59
 275 ben  30  31  58
 276 ben  30  37  36
 277 ben  31  30  37
 278 prop tor  31  30  37  10
 279 prop tor  31  30  37  36
 280 ben  31  32  33
 281 prop tor  31  32  33  34
 282 prop tor  31  32  33  36
 283 ben  31  32  59
 284 ben  32  31  58
 285 ben  32  33  34
 286 prop tor  32  33  34   4
 287 prop tor  32  33  34  35
 288 ben  32  33  36
 289 prop tor  32  33  36   7
 290 prop tor  32  33  36  37
 291 ben  33  32  59
 292 ben  33  34  35
 293 ben  33  36  37
 294 prop tor  33  36  37  10
 295 prop tor  33  36  37  30
 296 prop tor  34   4   5   6
 297 prop tor  34   4   5   7
 298 ben  34  33  36
 299 prop tor  34  33  36   7
 300 prop tor  34  33  36  37
 301 prop tor  36   7   8   9
 302 prop tor  36   7   8  47
 303 prop tor  36  33  34   4
 304 prop tor  36  33  34  35
 305 prop tor  37  10  11  12
 306 prop tor  37  10  11  38
 307 prop tor  37  30  31  32
 308 prop tor  37  30  31  58
 309 prop tor  38  11  12  13
 310 prop tor  38  11  12  49
 311 prop tor  38  29  30  31
 312 prop tor  38  29  30  37
 313 prop tor  39  14  15  16
 314 prop tor  39  14  15  17
 315 prop tor  39  26  27  28
 316 prop tor  39  26  27  56
 317 prop tor  40   1   2   3
 318 prop tor  40   1   2   4
 319 prop tor  40   1   2  43
 320 ben  40   1  41
 321 ben  40   1  42
 322 prop tor  41   1   2   3
 323 prop tor  41   1   2   4
 324 prop tor  41   1   2  43
 325 ben  41   1  42
 326 prop tor  42   1   2   3
 327 prop tor  42   1   2   4
 328 prop tor  42   1   2  43
 329 prop tor  43   2   3  44
 330 prop tor  43   2   3  45
 331 prop tor  43   2   3  46
 332 prop tor  43   2   4   5
 333 prop tor  43   2   4  34
 334 ben  44   3  45
 335 ben  44   3  46
 336 ben  45   3  46
 337 prop tor  47   8   9  10
 338 prop tor  47   8   9  48
 339 prop tor  48   9  10  11
 340 prop tor  48   9  10  37
 341 prop tor  49  12  13  14
 342 prop tor  49  12  13  50
 343 prop tor  50  13  14  15
 344 prop tor  50  13  14  39
 345 prop tor  51  19  20  21
 346 prop tor  51  19  20  52
 347 prop tor  52  20  21  22
 348 prop tor  52  20  21  53
 349 prop tor  53  21  22  23
 350 prop tor  53  21  22  54
 351 prop tor  54  22  23  18
 352 prop tor  54  22  23  55
 353 prop tor  56  27  28  29
 354 prop tor  56  27  28  57
 355 prop tor  57  28  29  30
 356 prop tor  57  28  29  38
 357 prop tor  58  31  32  33
 358 prop tor  58  31  32  59
 359 prop tor  59  32  33  34
 360 prop tor  59  32  33  36
 nber bend=             114
 nber lin bend=           0
 nber prop tor=         180
 nber impr tor=           0
 nber tot redund int=         360
 Reading file: 
 ./PDI_1_C-1S0.log                                                              
                                          
  Entering Gaussian System, Link 0=g16                                          
  
 Gaussian format, type: g94, g98, g03= F F F
  #P Geom=AllCheck Guess=TCheck SCRF=Check GenChk UB3LYP/6-311G(d,p) Fre    
 energy type= B3LYP   
 Original G94 input coords:
  6  1.061098  0.410994 -0.062064
  6  2.533154  0.024120  0.125823
  6  2.989363  0.087164  1.588649
  7  2.849013 -1.287993 -0.500382
  6  2.229657 -2.449890 -0.004252
  8  1.437271 -2.380032  0.934825
  6  2.574192 -3.714525 -0.653831
  6  1.987969 -4.901620 -0.201355
  6  2.291172 -6.111138 -0.791438
  6  3.200241 -6.208795 -1.871575
  6  3.526475 -7.472057 -2.498644
  6  2.957823 -8.696278 -2.073806
  6  3.276333 -9.894594 -2.676931
  6  4.182225 -9.945088 -3.742587
  6  4.492970-11.236446 -4.351051
  8  4.007787-12.298133 -3.981068
  7  5.414769-11.212471 -5.431050
  6  5.739373-12.469094 -6.054828
  6  5.399560-12.695686 -7.386718
  6  5.716565-13.909666 -7.989402
  6  6.368475-14.904565 -7.263834
  6  6.704417-14.676293 -5.931063
  6  6.393900-13.460935 -5.327775
  6  6.041492-10.045813 -5.943831
  8  6.822886-10.130664 -6.882829
  6  5.693713 -8.788046 -5.287065
  6  6.279521 -7.599524 -5.737789
  6  5.976378 -6.391390 -5.146518
  6  5.066797 -6.295873 -4.066570
  6  4.740466 -5.032801 -3.439613
  6  5.307871 -3.807315 -3.862992
  6  4.989599 -2.609318 -3.257939
  6  4.084309 -2.560615 -2.191735
  6  3.770992 -1.273116 -1.574584
  8  4.271568 -0.215949 -1.952903
  6  3.489028 -3.756612 -1.730129
  6  3.812647 -5.009955 -2.352384
  6  4.454657 -7.495792 -3.586259
  6  4.778676 -8.749968 -4.208760
  1  0.908044  1.436522  0.289616
  1  0.402320 -0.255692  0.492954
  1  0.789943  0.375552 -1.120716
  1  3.140372  0.722703 -0.446491
  1  2.411855 -0.593088  2.213337
  1  2.864026  1.108105  1.963853
  1  4.048576 -0.171961  1.668938
  1  1.290219 -4.841760  0.624858
  1  1.813910 -7.002661 -0.408430
  1  2.252713 -8.705573 -1.254114
  1  2.834140-10.824518 -2.340948
  1  4.900804-11.915513 -7.946853
  1  5.453711-14.076636 -9.028439
  1  6.613009-15.851224 -7.733775
  1  7.209153-15.445803 -5.356899
  1  6.644420-13.280177 -4.290593
  1  6.976993 -7.658009 -6.564401
  1  6.453409 -5.499138 -5.527958
  1  6.012454 -3.796283 -4.683178
  1  5.432198 -1.679393 -3.593068
 nber atoms=          59
  SCF Done:  E(UB3LYP) =  -1680.59310853     A.U. after    1 cycles             
  
          23          40 "  -1680.59310853"
After scan for Atom:   Atom  AN      X      Y      Z        X      Y      Z        X      Y      Z   
After scan for Atom:   Atom  AN      X      Y      Z        X      Y      Z        X      Y      Z   
After scan for Atom:   Atom  AN      X      Y      Z        X      Y      Z        X      Y      Z   
After scan for Atom:   Atom  AN      X      Y      Z        X      Y      Z        X      Y      Z   
After scan for Atom:   Atom  AN      X      Y      Z        X      Y      Z        X      Y      Z   
After scan for Atom:   Atom  AN      X      Y      Z        X      Y      Z        X      Y      Z   
After scan for Atom:   Atom  AN      X      Y      Z        X      Y      Z        X      Y      Z   
After scan for Atom:   Atom  AN      X      Y      Z        X      Y      Z        X      Y      Z   
After scan for Atom:   Atom  AN      X      Y      Z        X      Y      Z        X      Y      Z   
After scan for Atom:   Atom  AN      X      Y      Z        X      Y      Z        X      Y      Z   
After scan for Atom:   Atom  AN      X      Y      Z        X      Y      Z        X      Y      Z   
After scan for Atom:   Atom  AN      X      Y      Z        X      Y      Z        X      Y      Z   
After scan for Atom:   Atom  AN      X      Y      Z        X      Y      Z        X      Y      Z   
After scan for Atom:   Atom  AN      X      Y      Z        X      Y      Z        X      Y      Z   
After scan for Atom:   Atom  AN      X      Y      Z        X      Y      Z        X      Y      Z   
After scan for Atom:   Atom  AN      X      Y      Z        X      Y      Z        X      Y      Z   
After scan for Atom:   Atom  AN      X      Y      Z        X      Y      Z        X      Y      Z   
After scan for Atom:   Atom  AN      X      Y      Z        X      Y      Z        X      Y      Z   
After scan for Atom:   Atom  AN      X      Y      Z        X      Y      Z        X      Y      Z   
After scan for Atom:   Atom  AN      X      Y      Z        X      Y      Z        X      Y      Z   
After scan for Atom:   Atom  AN      X      Y      Z        X      Y      Z        X      Y      Z   
After scan for Atom:   Atom  AN      X      Y      Z        X      Y      Z        X      Y      Z   
After scan for Atom:   Atom  AN      X      Y      Z        X      Y      Z        X      Y      Z   
After scan for Atom:   Atom  AN      X      Y      Z        X      Y      Z        X      Y      Z   
After scan for Atom:   Atom  AN      X      Y      Z        X      Y      Z        X      Y      Z   
After scan for Atom:   Atom  AN      X      Y      Z        X      Y      Z        X      Y      Z   
After scan for Atom:   Atom  AN      X      Y      Z        X      Y      Z        X      Y      Z   
After scan for Atom:   Atom  AN      X      Y      Z        X      Y      Z        X      Y      Z   
After scan for Atom:   Atom  AN      X      Y      Z        X      Y      Z        X      Y      Z   
After scan for Atom:   Atom  AN      X      Y      Z        X      Y      Z        X      Y      Z   
After scan for Atom:   Atom  AN      X      Y      Z        X      Y      Z        X      Y      Z   
After scan for Atom:   Atom  AN      X      Y      Z        X      Y      Z        X      Y      Z   
After scan for Atom:   Atom  AN      X      Y      Z        X      Y      Z        X      Y      Z   
After scan for Atom:   Atom  AN      X      Y      Z        X      Y      Z        X      Y      Z   
After scan for Atom:   Atom  AN      X      Y      Z        X      Y      Z        X      Y      Z   
After scan for Atom:   Atom  AN      X      Y      Z        X      Y      Z        X      Y      Z   
After scan for Atom:   Atom  AN      X      Y      Z        X      Y      Z        X      Y      Z   
After scan for Atom:   Atom  AN      X      Y      Z        X      Y      Z        X      Y      Z   
After scan for Atom:   Atom  AN      X      Y      Z        X      Y      Z        X      Y      Z   
After scan for Atom:   Atom  AN      X      Y      Z        X      Y      Z        X      Y      Z   
After scan for Atom:   Atom  AN      X      Y      Z        X      Y      Z        X      Y      Z   
After scan for Atom:   Atom  AN      X      Y      Z        X      Y      Z        X      Y      Z   
After scan for Atom:   Atom  AN      X      Y      Z        X      Y      Z        X      Y      Z   
After scan for Atom:   Atom  AN      X      Y      Z        X      Y      Z        X      Y      Z   
After scan for Atom:   Atom  AN      X      Y      Z        X      Y      Z        X      Y      Z   
After scan for Atom:   Atom  AN      X      Y      Z        X      Y      Z        X      Y      Z   
After scan for Atom:   Atom  AN      X      Y      Z        X      Y      Z        X      Y      Z   
After scan for Atom:   Atom  AN      X      Y      Z        X      Y      Z        X      Y      Z   
After scan for Atom:   Atom  AN      X      Y      Z        X      Y      Z        X      Y      Z   
After scan for Atom:   Atom  AN      X      Y      Z        X      Y      Z        X      Y      Z   
After scan for Atom:   Atom  AN      X      Y      Z        X      Y      Z        X      Y      Z   
After scan for Atom:   Atom  AN      X      Y      Z        X      Y      Z        X      Y      Z   
After scan for Atom:   Atom  AN      X      Y      Z        X      Y      Z        X      Y      Z   
After scan for Atom:   Atom  AN      X      Y      Z        X      Y      Z        X      Y      Z   
After scan for Atom:   Atom  AN      X      Y      Z        X      Y      Z        X      Y      Z   
After scan for Atom:   Atom  AN      X      Y      Z        X      Y      Z        X      Y      Z   
After scan for Atom:   Atom  AN      X      Y      Z        X      Y      Z        X      Y      Z   
 g94    frequencies=
     0.0    0.0    0.0    0.0    0.0    0.0   16.6   23.2   33.5   35.4
    58.4   59.0   63.9   81.3   92.7  103.7  117.7  143.3  165.0  170.7
   192.8  198.2  201.9  216.6  233.3  235.2  253.5  265.4  268.0  298.6
   301.4  309.4  343.2  360.4  393.1  396.4  418.0  419.4  431.4  435.0
   442.3  444.9  454.3  466.3  475.3  501.2  504.6  510.9  511.3  517.4
   526.9  542.8  579.5  582.1  592.1  623.3  625.0  634.1  648.2  656.0
   664.3  701.7  710.9  714.4  728.8  744.9  747.9  756.4  763.5  766.4
   782.7  802.6  803.0  809.2  814.6  817.0  823.2  827.6  831.4  836.3
   838.7  860.4  900.1  920.5  931.1  942.0  953.9  962.0  963.5  967.1
   973.7  976.3  979.7  979.9  987.4 1021.0 1048.9 1065.3 1079.5 1089.2
  1097.0 1139.7 1145.0 1154.2 1154.9 1164.3 1173.6 1177.4 1184.7 1195.6
  1196.0 1202.6 1223.4 1233.3 1243.4 1253.8 1263.9 1295.4 1307.0 1313.7
  1328.4 1344.1 1350.2 1354.4 1365.1 1372.4 1382.9 1387.6 1391.9 1396.7
  1405.6 1421.9 1436.0 1463.7 1468.2 1472.1 1481.7 1482.3 1482.4 1493.2
  1507.6 1524.0 1528.3 1529.5 1561.8 1571.9 1575.5 1590.9 1608.9 1617.0
  1626.4 1631.3 1643.5 1664.4 1684.9 1701.1 1721.8 3021.7 3027.2 3080.0
  3083.0 3104.0 3129.4 3138.4 3151.3 3164.1 3176.5 3181.7 3181.9 3189.3
  3189.6 3199.2 3199.4 3200.4 3202.0 3211.5 3211.8
 g94    symmetries=
                                                 A      A      A      A
       A      A      A      A      A      A      A      A      A      A
       A      A      A      A      A      A      A      A      A      A
       A      A      A      A      A      A      A      A      A      A
       A      A      A      A      A      A      A      A      A      A
       A      A      A      A      A      A      A      A      A      A
       A      A      A      A      A      A      A      A      A      A
       A      A      A      A      A      A      A      A      A      A
       A      A      A      A      A      A      A      A      A      A
       A      A      A      A      A      A      A      A      A      A
       A      A      A      A      A      A      A      A      A      A
       A      A      A      A      A      A      A      A      A      A
       A      A      A      A      A      A      A      A      A      A
       A      A      A      A      A      A      A      A      A      A
       A      A      A      A      A      A      A      A      A      A
       A      A      A      A      A      A      A      A      A      A
       A      A      A      A      A      A      A      A      A      A
       A      A      A      A      A      A      A
 atomic masses:
 12.0000 12.0000 12.0000 14.0031 12.0000 15.9949 12.0000 12.0000 12.0000 12.0000
 12.0000 12.0000 12.0000 12.0000 12.0000 15.9949 14.0031 12.0000 12.0000 12.0000
 12.0000 12.0000 12.0000 12.0000 15.9949 12.0000 12.0000 12.0000 12.0000 12.0000
 12.0000 12.0000 12.0000 12.0000 15.9949 12.0000 12.0000 12.0000 12.0000  1.0078
  1.0078  1.0078  1.0078  1.0078  1.0078  1.0078  1.0078  1.0078  1.0078  1.0078
  1.0078  1.0078  1.0078  1.0078  1.0078  1.0078  1.0078  1.0078  1.0078
 looking for force constants in 
 ./PDI_1_C-1S0.fchk                                                             
  
 Cartesian Force Constants                  R   N=       15753                  
  
 n3=         177       15753
 g94-fc frequencies=
    -1.7   -0.8   -0.0    0.0    0.0    3.8   16.6   23.2   33.5   35.4
    58.4   59.0   64.0   81.3   92.7  103.7  117.7  143.3  165.1  170.7
   192.8  198.2  201.9  216.6  233.3  235.2  253.5  265.4  268.0  298.6
   301.4  309.4  343.2  360.4  393.1  396.4  418.0  419.4  431.4  435.0
   442.3  444.9  454.3  466.3  475.3  501.3  504.6  510.9  511.4  517.4
   526.9  542.9  579.5  582.1  592.1  623.3  625.0  634.1  648.2  656.0
   664.3  701.7  711.0  714.4  728.8  744.9  748.0  756.4  763.5  766.4
   782.7  802.7  803.0  809.2  814.7  817.0  823.2  827.6  831.4  836.3
   838.8  860.4  900.1  920.5  931.1  942.0  953.9  962.0  963.6  967.1
   973.7  976.3  979.7  979.9  987.5 1021.1 1048.9 1065.3 1079.5 1089.3
  1097.0 1139.8 1145.0 1154.2 1154.9 1164.3 1173.6 1177.4 1184.7 1195.7
  1196.1 1202.6 1223.4 1233.3 1243.4 1253.9 1264.0 1295.4 1307.0 1313.7
  1328.4 1344.1 1350.2 1354.5 1365.2 1372.4 1382.9 1387.7 1391.9 1396.7
  1405.6 1422.0 1436.0 1463.7 1468.2 1472.1 1481.7 1482.3 1482.5 1493.2
  1507.6 1524.0 1528.4 1529.5 1561.9 1572.0 1575.6 1591.0 1608.9 1617.0
  1626.5 1631.3 1643.5 1664.5 1685.0 1701.1 1721.8 3021.7 3027.3 3080.0
  3083.0 3104.0 3129.5 3138.5 3151.4 3164.1 3176.6 3181.8 3182.0 3189.4
  3189.6 3199.2 3199.5 3200.5 3202.0 3211.6 3211.9
 at 99999: n3=         177
 symm operator            1 :  F  nop=           0
 symm operator            2 :  F  nop=           0
 symm operator            3 :  F  nop=           0
 symm operator            4 :  F  nop=           0
 symm operator            5 :  F  nop=           0
 symm operator            6 :  F  nop=           0
 symm operator            7 :  F  nop=           0
 The point group of the molecule is  C1
 Symmetry rotation matrix:
   1.00000   0.00000   0.00000
   0.00000   1.00000   0.00000
   0.00000   0.00000   1.00000

 Projecting out zero-frequency components
 generating redundant internal coords
         300        3600          59
 search for int coords
   1 str   2   1   1.534
   2 str   3   2   1.534
   3 str   4   2   1.488
   4 str   5   4   1.407
   5 str   6   5   1.231
   6 str   7   5   1.463
   7 str   8   7   1.399
   8 str   9   8   1.380
   9 str  10   9   1.415
  10 str  11  10   1.448
  11 str  12  11   1.415
  12 str  13  12   1.379
  13 str  14  13   1.400
  14 str  15  14   1.461
  15 str  16  15   1.225
  16 str  17  15   1.420
  17 str  18  17   1.440
  18 str  19  18   1.393
  19 str  20  19   1.392
  20 str  21  20   1.393
  21 str  22  21   1.393
  22 str  23  18   1.393
  23 str  23  22   1.392
  24 str  24  17   1.420
  25 str  25  24   1.225
  26 str  26  24   1.461
  27 str  27  26   1.400
  28 str  28  27   1.379
  29 str  29  28   1.415
  30 str  30  29   1.447
  31 str  31  30   1.415
  32 str  32  31   1.379
  33 str  33  32   1.400
  34 str  34   4   1.416
  35 str  34  33   1.462
  36 str  35  34   1.229
  37 str  36   7   1.413
  38 str  36  33   1.413
  39 str  37  10   1.429
  40 str  37  30   1.429
  41 str  37  36   1.436
  42 str  38  11   1.430
  43 str  38  29   1.430
  44 str  39  14   1.415
  45 str  39  26   1.415
  46 str  39  38   1.437
  47 str  40   1   1.095
  48 str  41   1   1.089
  49 str  42   1   1.093
  50 str  43   2   1.088
  51 str  44   3   1.089
  52 str  45   3   1.095
  53 str  46   3   1.093
  54 str  47   8   1.083
  55 str  48   9   1.081
  56 str  49  12   1.081
  57 str  50  13   1.083
  58 str  51  19   1.082
  59 str  52  20   1.085
  60 str  53  21   1.085
  61 str  54  22   1.085
  62 str  55  23   1.082
  63 str  56  27   1.083
  64 str  57  28   1.081
  65 str  58  31   1.081
  66 str  59  32   1.083
 nber stretches=          66
  67 ben   1   2   3
  68 prop tor   1   2   3  44
  69 prop tor   1   2   3  45
  70 prop tor   1   2   3  46
  71 ben   1   2   4
  72 prop tor   1   2   4   5
  73 prop tor   1   2   4  34
  74 ben   1   2  43
  75 ben   2   1  40
  76 ben   2   1  41
  77 ben   2   1  42
  78 ben   2   3  44
  79 ben   2   3  45
  80 ben   2   3  46
  81 ben   2   4   5
  82 prop tor   2   4   5   6
  83 prop tor   2   4   5   7
  84 ben   2   4  34
  85 prop tor   2   4  34  33
  86 prop tor   2   4  34  35
  87 ben   3   2   4
  88 prop tor   3   2   4   5
  89 prop tor   3   2   4  34
  90 ben   3   2  43
  91 prop tor   4   2   3  44
  92 prop tor   4   2   3  45
  93 prop tor   4   2   3  46
  94 ben   4   2  43
  95 ben   4   5   6
  96 ben   4   5   7
  97 prop tor   4   5   7   8
  98 prop tor   4   5   7  36
  99 ben   4  34  33
 100 ben   4  34  35
 101 ben   5   4  34
 102 prop tor   5   4  34  33
 103 prop tor   5   4  34  35
 104 ben   5   7   8
 105 prop tor   5   7   8   9
 106 prop tor   5   7   8  47
 107 ben   5   7  36
 108 prop tor   5   7  36  33
 109 prop tor   5   7  36  37
 110 ben   6   5   7
 111 prop tor   6   5   7   8
 112 prop tor   6   5   7  36
 113 ben   7   8   9
 114 prop tor   7   8   9  10
 115 prop tor   7   8   9  48
 116 ben   7   8  47
 117 ben   7  36  33
 118 ben   7  36  37
 119 prop tor   7  36  37  10
 120 prop tor   7  36  37  30
 121 ben   8   7  36
 122 prop tor   8   7  36  33
 123 prop tor   8   7  36  37
 124 ben   8   9  10
 125 prop tor   8   9  10  11
 126 prop tor   8   9  10  37
 127 ben   8   9  48
 128 ben   9   8  47
 129 ben   9  10  11
 130 prop tor   9  10  11  12
 131 prop tor   9  10  11  38
 132 ben   9  10  37
 133 prop tor   9  10  37  30
 134 prop tor   9  10  37  36
 135 ben  10   9  48
 136 ben  10  11  12
 137 prop tor  10  11  12  13
 138 prop tor  10  11  12  49
 139 ben  10  11  38
 140 prop tor  10  11  38  29
 141 prop tor  10  11  38  39
 142 ben  10  37  30
 143 ben  10  37  36
 144 ben  11  10  37
 145 prop tor  11  10  37  30
 146 prop tor  11  10  37  36
 147 ben  11  12  13
 148 prop tor  11  12  13  14
 149 prop tor  11  12  13  50
 150 ben  11  12  49
 151 ben  11  38  29
 152 ben  11  38  39
 153 prop tor  11  38  39  14
 154 prop tor  11  38  39  26
 155 ben  12  11  38
 156 prop tor  12  11  38  29
 157 prop tor  12  11  38  39
 158 ben  12  13  14
 159 prop tor  12  13  14  15
 160 prop tor  12  13  14  39
 161 ben  12  13  50
 162 ben  13  12  49
 163 ben  13  14  15
 164 prop tor  13  14  15  16
 165 prop tor  13  14  15  17
 166 ben  13  14  39
 167 prop tor  13  14  39  26
 168 prop tor  13  14  39  38
 169 ben  14  13  50
 170 ben  14  15  16
 171 ben  14  15  17
 172 prop tor  14  15  17  18
 173 prop tor  14  15  17  24
 174 ben  14  39  26
 175 ben  14  39  38
 176 ben  15  14  39
 177 prop tor  15  14  39  26
 178 prop tor  15  14  39  38
 179 ben  15  17  18
 180 prop tor  15  17  18  19
 181 prop tor  15  17  18  23
 182 ben  15  17  24
 183 prop tor  15  17  24  25
 184 prop tor  15  17  24  26
 185 ben  16  15  17
 186 prop tor  16  15  17  18
 187 prop tor  16  15  17  24
 188 ben  17  18  19
 189 prop tor  17  18  19  20
 190 prop tor  17  18  19  51
 191 ben  17  18  23
 192 prop tor  17  18  23  22
 193 prop tor  17  18  23  55
 194 ben  17  24  25
 195 ben  17  24  26
 196 prop tor  17  24  26  27
 197 prop tor  17  24  26  39
 198 ben  18  17  24
 199 prop tor  18  17  24  25
 200 prop tor  18  17  24  26
 201 ben  18  19  20
 202 prop tor  18  19  20  21
 203 prop tor  18  19  20  52
 204 ben  18  19  51
 205 ben  18  23  22
 206 ben  18  23  55
 207 ben  19  18  23
 208 prop tor  19  18  23  22
 209 prop tor  19  18  23  55
 210 ben  19  20  21
 211 prop tor  19  20  21  22
 212 prop tor  19  20  21  53
 213 ben  19  20  52
 214 ben  20  19  51
 215 ben  20  21  22
 216 prop tor  20  21  22  23
 217 prop tor  20  21  22  54
 218 ben  20  21  53
 219 ben  21  20  52
 220 ben  21  22  23
 221 prop tor  21  22  23  18
 222 prop tor  21  22  23  55
 223 ben  21  22  54
 224 ben  22  21  53
 225 ben  22  23  55
 226 prop tor  23  18  19  20
 227 prop tor  23  18  19  51
 228 ben  23  22  54
 229 prop tor  24  17  18  19
 230 prop tor  24  17  18  23
 231 ben  24  26  27
 232 prop tor  24  26  27  28
 233 prop tor  24  26  27  56
 234 ben  24  26  39
 235 prop tor  24  26  39  14
 236 prop tor  24  26  39  38
 237 ben  25  24  26
 238 prop tor  25  24  26  27
 239 prop tor  25  24  26  39
 240 ben  26  27  28
 241 prop tor  26  27  28  29
 242 prop tor  26  27  28  57
 243 ben  26  27  56
 244 ben  26  39  38
 245 ben  27  26  39
 246 prop tor  27  26  39  14
 247 prop tor  27  26  39  38
 248 ben  27  28  29
 249 prop tor  27  28  29  30
 250 prop tor  27  28  29  38
 251 ben  27  28  57
 252 ben  28  27  56
 253 ben  28  29  30
 254 prop tor  28  29  30  31
 255 prop tor  28  29  30  37
 256 ben  28  29  38
 257 prop tor  28  29  38  11
 258 prop tor  28  29  38  39
 259 ben  29  28  57
 260 ben  29  30  31
 261 prop tor  29  30  31  32
 262 prop tor  29  30  31  58
 263 ben  29  30  37
 264 prop tor  29  30  37  10
 265 prop tor  29  30  37  36
 266 ben  29  38  39
 267 prop tor  29  38  39  14
 268 prop tor  29  38  39  26
 269 ben  30  29  38
 270 prop tor  30  29  38  11
 271 prop tor  30  29  38  39
 272 ben  30  31  32
 273 prop tor  30  31  32  33
 274 prop tor  30  31  32  59
 275 ben  30  31  58
 276 ben  30  37  36
 277 ben  31  30  37
 278 prop tor  31  30  37  10
 279 prop tor  31  30  37  36
 280 ben  31  32  33
 281 prop tor  31  32  33  34
 282 prop tor  31  32  33  36
 283 ben  31  32  59
 284 ben  32  31  58
 285 ben  32  33  34
 286 prop tor  32  33  34   4
 287 prop tor  32  33  34  35
 288 ben  32  33  36
 289 prop tor  32  33  36   7
 290 prop tor  32  33  36  37
 291 ben  33  32  59
 292 ben  33  34  35
 293 ben  33  36  37
 294 prop tor  33  36  37  10
 295 prop tor  33  36  37  30
 296 prop tor  34   4   5   6
 297 prop tor  34   4   5   7
 298 ben  34  33  36
 299 prop tor  34  33  36   7
 300 prop tor  34  33  36  37
 301 prop tor  36   7   8   9
 302 prop tor  36   7   8  47
 303 prop tor  36  33  34   4
 304 prop tor  36  33  34  35
 305 prop tor  37  10  11  12
 306 prop tor  37  10  11  38
 307 prop tor  37  30  31  32
 308 prop tor  37  30  31  58
 309 prop tor  38  11  12  13
 310 prop tor  38  11  12  49
 311 prop tor  38  29  30  31
 312 prop tor  38  29  30  37
 313 prop tor  39  14  15  16
 314 prop tor  39  14  15  17
 315 prop tor  39  26  27  28
 316 prop tor  39  26  27  56
 317 prop tor  40   1   2   3
 318 prop tor  40   1   2   4
 319 prop tor  40   1   2  43
 320 ben  40   1  41
 321 ben  40   1  42
 322 prop tor  41   1   2   3
 323 prop tor  41   1   2   4
 324 prop tor  41   1   2  43
 325 ben  41   1  42
 326 prop tor  42   1   2   3
 327 prop tor  42   1   2   4
 328 prop tor  42   1   2  43
 329 prop tor  43   2   3  44
 330 prop tor  43   2   3  45
 331 prop tor  43   2   3  46
 332 prop tor  43   2   4   5
 333 prop tor  43   2   4  34
 334 ben  44   3  45
 335 ben  44   3  46
 336 ben  45   3  46
 337 prop tor  47   8   9  10
 338 prop tor  47   8   9  48
 339 prop tor  48   9  10  11
 340 prop tor  48   9  10  37
 341 prop tor  49  12  13  14
 342 prop tor  49  12  13  50
 343 prop tor  50  13  14  15
 344 prop tor  50  13  14  39
 345 prop tor  51  19  20  21
 346 prop tor  51  19  20  52
 347 prop tor  52  20  21  22
 348 prop tor  52  20  21  53
 349 prop tor  53  21  22  23
 350 prop tor  53  21  22  54
 351 prop tor  54  22  23  18
 352 prop tor  54  22  23  55
 353 prop tor  56  27  28  29
 354 prop tor  56  27  28  57
 355 prop tor  57  28  29  30
 356 prop tor  57  28  29  38
 357 prop tor  58  31  32  33
 358 prop tor  58  31  32  59
 359 prop tor  59  32  33  34
 360 prop tor  59  32  33  36
 nber bend=             114
 nber lin bend=           0
 nber prop tor=         180
 nber impr tor=           0
 nber tot redund int=         360
 Eigenvalues of G in red int coords
    Gval -0.00000000 -0.00000000 -0.00000000 -0.00000000 -0.00000000 -0.00000000 -0.00000000 -0.00000000
    Gval -0.00000000 -0.00000000 -0.00000000 -0.00000000 -0.00000000 -0.00000000 -0.00000000 -0.00000000
    Gval -0.00000000 -0.00000000 -0.00000000 -0.00000000 -0.00000000 -0.00000000 -0.00000000 -0.00000000
    Gval -0.00000000 -0.00000000 -0.00000000 -0.00000000 -0.00000000 -0.00000000 -0.00000000 -0.00000000
    Gval -0.00000000 -0.00000000 -0.00000000 -0.00000000 -0.00000000 -0.00000000 -0.00000000 -0.00000000
    Gval -0.00000000 -0.00000000 -0.00000000 -0.00000000 -0.00000000 -0.00000000 -0.00000000 -0.00000000
    Gval -0.00000000 -0.00000000 -0.00000000 -0.00000000 -0.00000000 -0.00000000 -0.00000000 -0.00000000
    Gval -0.00000000 -0.00000000 -0.00000000 -0.00000000 -0.00000000 -0.00000000 -0.00000000 -0.00000000
    Gval -0.00000000 -0.00000000 -0.00000000 -0.00000000 -0.00000000 -0.00000000 -0.00000000 -0.00000000
    Gval -0.00000000 -0.00000000 -0.00000000 -0.00000000 -0.00000000 -0.00000000 -0.00000000 -0.00000000
    Gval -0.00000000 -0.00000000 -0.00000000 -0.00000000 -0.00000000 -0.00000000 -0.00000000 -0.00000000
    Gval -0.00000000 -0.00000000 -0.00000000 -0.00000000 -0.00000000 -0.00000000  0.00000000  0.00000000
    Gval  0.00000000  0.00000000  0.00000000  0.00000000  0.00000000  0.00000000  0.00000000  0.00000000
    Gval  0.00000000  0.00000000  0.00000000  0.00000000  0.00000000  0.00000000  0.00000000  0.00000000
    Gval  0.00000000  0.00000000  0.00000000  0.00000000  0.00000000  0.00000000  0.00000000  0.00000000
    Gval  0.00000000  0.00000000  0.00000000  0.00000000  0.00000000  0.00000000  0.00000000  0.00000000
    Gval  0.00000000  0.00000000  0.00000000  0.00000000  0.00000000  0.00000000  0.00000000  0.00000000
[...]
 nber times 1st assigned=         127           0
 nber times 1st assigned=         128           0
 nber times 1st assigned=         129           0
 nber times 1st assigned=         130           0
 nber times 1st assigned=         131           0
 nber times 1st assigned=         132           0
 nber times 1st assigned=         133           0
 nber times 1st assigned=         134           0
 nber times 1st assigned=         135           0
 nber times 1st assigned=         136           0
 nber times 1st assigned=         137           0
 nber times 1st assigned=         138           0
 nber times 1st assigned=         139           0
 nber times 1st assigned=         140           0
 nber times 1st assigned=         141           0
 nber times 1st assigned=         142           0
 nber times 1st assigned=         143           0
 nber times 1st assigned=         144           0
 nber times 1st assigned=         145           0
 nber times 1st assigned=         146           0
 nber times 1st assigned=         147           0
 nber times 1st assigned=         148           0
 nber times 1st assigned=         149           0
 nber times 1st assigned=         150           0
 nber times 1st assigned=         151           0
 nber times 1st assigned=         152           0
 nber times 1st assigned=         153           0
 nber times 1st assigned=         154           0
 nber times 1st assigned=         155           0
 nber times 1st assigned=         156           0
 nber times 1st assigned=         157           0
 nber times 1st assigned=         158           0
 nber times 1st assigned=         159           0
 nber times 1st assigned=         160           0
 nber times 1st assigned=         161           0
 nber times 1st assigned=         162           0
 nber times 1st assigned=         163           0
 nber times 1st assigned=         164           0
 nber times 1st assigned=         165           0
 nber times 1st assigned=         166           0
 nber times 1st assigned=         167           0
 nber times 1st assigned=         168           0
 nber times 1st assigned=         169           0
 nber times 1st assigned=         170           0
 nber times 1st assigned=         171           0
 nber times 1st assigned=         172           0
 nber times 1st assigned=         173           0
 nber times 1st assigned=         174           0
 nber times 1st assigned=         175           0
 nber times 1st assigned=         176           0
 nber times 1st assigned=         177           0
 modes represented=   285.352752475601     
 p1=
    0.   -0.   -0.   -0.   -0.   -0.    8.  222.   -9.    8. -140. -112. -375.  110.   17.  -31. -479.   46.  -89.   49.
   29.   10.    3.   15.   -8.    6.   56.  -37.   42.    8.    3.  -74.    1.    1.   -1.  -15.    3.  -20.  -98.   31.
    8.    2.    6.   -0.   19.    0.    1.    0.    1.   -1.   -2.    0.   -0.   -0.    3.   -0.    2.    0.   -1.   -0.
   -0.    3.    3.   -1.    5.    0.    5.    0.    2.    0.   -1.    8.    5.    7.   -0.    2.   -0.    0.   -1.    2.
   -0.    1.   -0.    1.   -1.   -0.   -0.    0.    1.    0.    0.    1.    0.    0.   -4.   -4.   -0.   -8.    1.    1.
   -0.   -0.   -3.   -0.    0.   -1.    0.   -0.   -0.    0.    0.   13.   -0.    0.    0.   -0.    4.    3.    7.    0.
    0.    3.    0.    0.   -1.   -0.   -0.   -1.   -0.   -0.    0.   -0.   -0.    0.    1.    0.    0.    0.   -0.    2.
    0.    0.    0.    0.   -0.   -1.   -0.   -0.    0.   -0.    1.    1.    5.   -0.    0.   -2.   -4.   -0.    0.   -0.
    0.   -0.    0.   -0.    0.    0.   -0.    0.   -0.    0.   -0.   -0.   -0.    0.    0.   -2.    0.
 p2=
    0.    0.    0.   -0.   -0.   -0.  -35. -402.  553.  113.   11.  -28.   13.  -40.   13.   -1.   -1.    2.   31.    0.
   -3.    4.   -7.   -1.   -5.    1.  -26.   -2.    8.    2.   -1.   19.   -0.    1.   -4.  -12.   -3.    3.    0.    0.
    0.   -1.    0.    7.   -0.   -6.   -0.    2.    0.   -1.    0.    3.    0.   -1.    0.   -1.   -0.   -0.   -2.   -0.
   -1.    0.   -0.   -0.   -0.    0.   -0.   -1.   -0.   -1.   -0.   -1.   -2.   -1.    1.    0.   -3.    0.    0.    2.
    4.    4.   -0.   -0.   -1.    0.    0.   -2.    0.   -0.   -0.    0.    0.   -0.    1.   -2.   -0.    0.    1.   -0.
    0.   -0.    0.    0.    1.   -0.   -0.    0.    0.    0.   -2.    0.    0.    0.    0.    0.    2.    0.    2.    0.
   -0.   -4.    0.    0.    2.    3.   -0.    0.   -1.    0.   -0.   -1.    1.   -2.    0.    0.    0.    0.    0.   -0.
   -0.   -0.    2.    0.    1.   -0.    0.   -0.    0.   -0.    1.    0.   -4.   -0.    0.    0.    1.    0.    0.    0.
    0.   -0.    0.   -0.   -0.    0.    0.   -0.    0.   -0.   -0.   -0.   -0.    0.   -0.    0.   -0.

 Displacement: in terms of nc of 1 THEN of nc of 2

   1     freq=    -0. Q=  0.000 lam=    -0.0     freq=    -0. Q=  0.000 lam=    -0.0
   2     freq=    -0. Q= -0.000 lam=    -0.0     freq=    -0. Q= -0.000 lam=    -0.0
   3     freq=     0. Q= -0.000 lam=     0.0     freq=    -0. Q= -0.000 lam=    -0.0
   4     freq=     0. Q= -0.000 lam=     0.0     freq=    -0. Q= -0.000 lam=    -0.0
   5     freq=     0. Q= -0.000 lam=     0.0     freq=     0. Q= -0.000 lam=     0.0
   6     freq=     0. Q= -0.000 lam=     0.0     freq=     0. Q= -0.000 lam=     0.0
   7     freq=    15. Q=  0.119 lam=     0.1     freq=    17. Q=  0.570 lam=     2.7
   8     freq=    23. Q=  4.251 lam=   204.1     freq=    23. Q=  7.807 lam=   707.1
   9     freq=    32. Q= -0.213 lam=     0.7     freq=    34. Q=-12.919 lam=  2797.6
  10     freq=    50. Q=  0.238 lam=     1.4     freq=    35. Q=  2.701 lam=   129.0
  11     freq=    55. Q= -4.164 lam=   473.3     freq=    58. Q= -0.338 lam=     3.3
  12     freq=    60. Q= -3.508 lam=   369.8     freq=    59. Q= -0.866 lam=    22.1
  13     freq=    68. Q=-12.513 lam=  5357.2     freq=    64. Q= -0.405 lam=     5.2
  14     freq=    87. Q=  4.160 lam=   756.4     freq=    81. Q=  1.459 lam=    86.5
  15     freq=   100. Q=  0.689 lam=    23.8     freq=    93. Q=  0.488 lam=    11.0
  16     freq=   111. Q= -1.299 lam=    93.5     freq=   104. Q= -0.053 lam=     0.1
  17     freq=   115. Q=-20.679 lam= 24511.0     freq=   118. Q= -0.065 lam=     0.2
  18     freq=   167. Q=  2.392 lam=   477.6     freq=   143. Q=  0.105 lam=     0.8
  19     freq=   169. Q= -4.687 lam=  1852.1     freq=   165. Q= -1.587 lam=   208.0
  20     freq=   171. Q=  2.574 lam=   566.3     freq=   171. Q=  0.008 lam=     0.0
  21     freq=   189. Q=  1.617 lam=   246.5     freq=   193. Q=  0.145 lam=     2.0
  22     freq=   195. Q=  0.582 lam=    33.0     freq=   198. Q=  0.204 lam=     4.1
  23     freq=   213. Q=  0.183 lam=     3.6     freq=   202. Q=  0.422 lam=    18.0
  24     freq=   219. Q=  0.908 lam=    90.1     freq=   217. Q=  0.082 lam=     0.7
  25     freq=   234. Q= -0.524 lam=    32.1     freq=   233. Q= -0.311 lam=    11.3
  26     freq=   235. Q=  0.351 lam=    14.5     freq=   235. Q=  0.048 lam=     0.3
  27     freq=   258. Q=  3.602 lam=  1672.8     freq=   253. Q=  1.647 lam=   343.6
  28     freq=   259. Q= -2.407 lam=   749.9     freq=   265. Q= -0.104 lam=     1.4
  29     freq=   268. Q=  2.805 lam=  1056.1     freq=   268. Q=  0.556 lam=    41.4
  30     freq=   296. Q=  0.541 lam=    43.2     freq=   299. Q=  0.120 lam=     2.2
  31     freq=   306. Q=  0.203 lam=     6.3     freq=   301. Q=  0.090 lam=     1.2
  32     freq=   314. Q= -5.306 lam=  4421.8     freq=   309. Q= -1.348 lam=   281.0
  33     freq=   341. Q=  0.050 lam=     0.4     freq=   343. Q=  0.003 lam=     0.0
  34     freq=   363. Q=  0.109 lam=     2.2     freq=   360. Q=  0.054 lam=     0.5
  35     freq=   369. Q= -0.046 lam=     0.4     freq=   393. Q= -0.293 lam=    16.8
  36     freq=   380. Q= -1.215 lam=   281.0     freq=   396. Q= -0.975 lam=   188.6
  37     freq=   397. Q=  0.218 lam=     9.4     freq=   418. Q=  0.229 lam=    10.9
  38     freq=   416. Q= -1.658 lam=   572.2     freq=   419. Q= -0.234 lam=    11.5
  39     freq=   421. Q= -8.127 lam= 13910.2     freq=   431. Q= -0.001 lam=     0.0
  40     freq=   435. Q=  2.619 lam=  1490.8     freq=   435. Q=  0.030 lam=     0.2
  41     freq=   442. Q=  0.641 lam=    90.8     freq=   442. Q=  0.023 lam=     0.1
  42     freq=   447. Q=  0.165 lam=     6.1     freq=   445. Q=  0.056 lam=     0.7
  43     freq=   448. Q=  0.536 lam=    64.3     freq=   454. Q=  0.004 lam=     0.0
  44     freq=   453. Q= -0.025 lam=     0.1     freq=   466. Q= -0.574 lam=    76.7
  45     freq=   467. Q=  1.637 lam=   625.3     freq=   475. Q=  0.011 lam=     0.0
  46     freq=   480. Q=  0.010 lam=     0.0     freq=   501. Q=  0.516 lam=    66.8
  47     freq=   494. Q=  0.066 lam=     1.1     freq=   505. Q=  0.002 lam=     0.0
  48     freq=   500. Q=  0.001 lam=     0.0     freq=   511. Q=  0.171 lam=     7.4
  49     freq=   503. Q=  0.080 lam=     1.6     freq=   511. Q=  0.023 lam=     0.1
  50     freq=   515. Q= -0.049 lam=     0.6     freq=   517. Q= -0.079 lam=     1.6
  51     freq=   515. Q= -0.220 lam=    12.4     freq=   527. Q= -0.004 lam=     0.0
  52     freq=   540. Q=  0.040 lam=     0.4     freq=   543. Q=  0.253 lam=    17.3
  53     freq=   548. Q= -0.002 lam=     0.0     freq=   579. Q= -0.003 lam=     0.0
  54     freq=   580. Q= -0.007 lam=     0.0     freq=   582. Q= -0.144 lam=     6.0
  55     freq=   581. Q=  0.279 lam=    22.6     freq=   592. Q=  0.000 lam=     0.0
  56     freq=   591. Q= -0.002 lam=     0.0     freq=   623. Q= -0.081 lam=     2.0
  57     freq=   623. Q=  0.194 lam=    11.7     freq=   625. Q=  0.009 lam=     0.0
  58     freq=   625. Q=  0.013 lam=     0.1     freq=   634. Q=  0.000 lam=     0.0
  59     freq=   636. Q= -0.095 lam=     2.9     freq=   648. Q= -0.241 lam=    18.8
  60     freq=   650. Q= -0.008 lam=     0.0     freq=   656. Q= -0.000 lam=     0.0
  61     freq=   662. Q= -0.004 lam=     0.0     freq=   664. Q= -0.061 lam=     1.2
  62     freq=   667. Q=  0.275 lam=    25.3     freq=   702. Q=  0.002 lam=     0.0
  63     freq=   709. Q=  0.274 lam=    26.6     freq=   711. Q=  0.023 lam=     0.2
  64     freq=   712. Q= -0.075 lam=     2.0     freq=   714. Q= -0.010 lam=     0.0
  65     freq=   727. Q=  0.515 lam=    96.5     freq=   729. Q=  0.050 lam=     0.9
  66     freq=   747. Q=  0.046 lam=     0.8     freq=   745. Q=  0.003 lam=     0.0
  67     freq=   753. Q=  0.525 lam=   103.7     freq=   748. Q=  0.009 lam=     0.0
  68     freq=   758. Q=  0.007 lam=     0.0     freq=   756. Q=  0.140 lam=     7.4
  69     freq=   768. Q=  0.275 lam=    29.1     freq=   763. Q=  0.004 lam=     0.0
  70     freq=   785. Q=  0.002 lam=     0.0     freq=   766. Q=  0.115 lam=     5.1
  71     freq=   795. Q= -0.156 lam=     9.6     freq=   783. Q= -0.002 lam=     0.0
  72     freq=   797. Q=  0.902 lam=   324.4     freq=   803. Q=  0.088 lam=     3.1
  73     freq=   803. Q=  0.570 lam=   130.7     freq=   803. Q=  0.182 lam=    13.3
  74     freq=   806. Q=  0.777 lam=   243.2     freq=   809. Q=  0.059 lam=     1.4
  75     freq=   816. Q= -0.007 lam=     0.0     freq=   815. Q= -0.122 lam=     6.1
  76     freq=   820. Q=  0.227 lam=    21.1     freq=   817. Q=  0.030 lam=     0.4
  77     freq=   825. Q= -0.018 lam=     0.1     freq=   823. Q= -0.299 lam=    36.8
  78     freq=   830. Q=  0.008 lam=     0.0     freq=   828. Q=  0.053 lam=     1.2
  79     freq=   834. Q= -0.156 lam=    10.1     freq=   831. Q= -0.006 lam=     0.0
  80     freq=   835. Q=  0.188 lam=    14.7     freq=   836. Q=  0.178 lam=    13.2
  81     freq=   847. Q= -0.003 lam=     0.0     freq=   839. Q= -0.478 lam=    95.7
  82     freq=   855. Q=  0.157 lam=    10.6     freq=   860. Q=  0.464 lam=    92.5
  83     freq=   894. Q= -0.006 lam=     0.0     freq=   900. Q= -0.007 lam=     0.0
  84     freq=   925. Q=  0.075 lam=     2.6     freq=   920. Q=  0.017 lam=     0.1
  85     freq=   928. Q= -0.080 lam=     3.0     freq=   931. Q= -0.074 lam=     2.6
  86     freq=   944. Q= -0.001 lam=     0.0     freq=   942. Q= -0.000 lam=     0.0
  87     freq=   956. Q= -0.000 lam=     0.0     freq=   954. Q= -0.000 lam=     0.0
  88     freq=   959. Q=  0.046 lam=     1.0     freq=   962. Q=  0.240 lam=    27.7
  89     freq=   972. Q=  0.126 lam=     7.8     freq=   964. Q=  0.012 lam=     0.1
  90     freq=   973. Q=  0.061 lam=     1.8     freq=   967. Q=  0.000 lam=     0.0
  91     freq=   976. Q=  0.004 lam=     0.0     freq=   974. Q=  0.043 lam=     0.9
  92     freq=   977. Q=  0.103 lam=     5.2     freq=   976. Q=  0.008 lam=     0.0
  93     freq=   987. Q=  0.013 lam=     0.1     freq=   980. Q=  0.007 lam=     0.0
  94     freq=   990. Q=  0.001 lam=     0.0     freq=   980. Q=  0.001 lam=     0.0
  95     freq=   994. Q= -0.548 lam=   149.3     freq=   987. Q= -0.111 lam=     6.0
  96     freq=  1000. Q= -0.522 lam=   136.2     freq=  1021. Q= -0.209 lam=    22.2
  97     freq=  1002. Q= -0.004 lam=     0.0     freq=  1049. Q= -0.037 lam=     0.7
  98     freq=  1021. Q= -1.089 lam=   606.0     freq=  1065. Q= -0.024 lam=     0.3
  99     freq=  1064. Q=  0.156 lam=    13.0     freq=  1079. Q=  0.067 lam=     2.4
 100     freq=  1069. Q=  0.080 lam=     3.5     freq=  1089. Q=  0.027 lam=     0.4
 101     freq=  1095. Q= -0.012 lam=     0.1     freq=  1097. Q= -0.001 lam=     0.0
 102     freq=  1123. Q= -0.004 lam=     0.0     freq=  1140. Q= -0.001 lam=     0.0
 103     freq=  1134. Q= -0.424 lam=   102.1     freq=  1145. Q= -0.005 lam=     0.0
 104     freq=  1146. Q= -0.032 lam=     0.6     freq=  1154. Q= -0.001 lam=     0.0
 105     freq=  1155. Q=  0.000 lam=     0.0     freq=  1155. Q=  0.123 lam=     8.8
 106     freq=  1166. Q= -0.076 lam=     3.4     freq=  1164. Q= -0.041 lam=     1.0
 107     freq=  1168. Q=  0.024 lam=     0.3     freq=  1174. Q=  0.024 lam=     0.3
 108     freq=  1175. Q= -0.042 lam=     1.0     freq=  1177. Q= -0.001 lam=     0.0
 109     freq=  1190. Q= -0.068 lam=     2.7     freq=  1185. Q= -0.040 lam=     0.9
 110     freq=  1201. Q=  0.012 lam=     0.1     freq=  1196. Q=  0.052 lam=     1.6
 111     freq=  1206. Q=  0.002 lam=     0.0     freq=  1196. Q=  0.245 lam=    36.0
 112     freq=  1221. Q=  1.793 lam=  1961.3     freq=  1203. Q=  0.002 lam=     0.0
 113     freq=  1228. Q= -0.056 lam=     1.9     freq=  1223. Q= -0.020 lam=     0.2
 114     freq=  1237. Q=  0.031 lam=     0.6     freq=  1233. Q=  0.007 lam=     0.0
 115     freq=  1247. Q=  0.007 lam=     0.0     freq=  1243. Q=  0.007 lam=     0.0
 116     freq=  1265. Q= -0.009 lam=     0.1     freq=  1254. Q= -0.008 lam=     0.0
 117     freq=  1280. Q=  0.537 lam=   184.7     freq=  1264. Q=  0.270 lam=    46.1
 118     freq=  1296. Q=  0.394 lam=   100.8     freq=  1295. Q=  0.038 lam=     0.9
 119     freq=  1315. Q=  1.039 lam=   709.2     freq=  1307. Q=  0.293 lam=    55.9
 120     freq=  1318. Q=  0.047 lam=     1.4     freq=  1314. Q=  0.026 lam=     0.4
 121     freq=  1323. Q=  0.002 lam=     0.0     freq=  1328. Q=  0.002 lam=     0.0
 122     freq=  1335. Q=  0.377 lam=    94.8     freq=  1344. Q=  0.621 lam=   259.3
 123     freq=  1360. Q=  0.003 lam=     0.0     freq=  1350. Q=  0.001 lam=     0.0
 124     freq=  1364. Q=  0.052 lam=     1.8     freq=  1354. Q=  0.013 lam=     0.1
 125     freq=  1371. Q= -0.142 lam=    13.8     freq=  1365. Q= -0.250 lam=    42.5
 126     freq=  1376. Q= -0.000 lam=     0.0     freq=  1372. Q= -0.396 lam=   107.9
 127     freq=  1384. Q= -0.000 lam=     0.0     freq=  1383. Q= -0.000 lam=     0.0
 128     freq=  1393. Q= -0.075 lam=     3.9     freq=  1388. Q= -0.000 lam=     0.0
 129     freq=  1397. Q= -0.003 lam=     0.0     freq=  1392. Q= -0.174 lam=    21.2
 130     freq=  1398. Q= -0.001 lam=     0.0     freq=  1397. Q= -0.000 lam=     0.0
 131     freq=  1412. Q=  0.045 lam=     1.4     freq=  1406. Q=  0.025 lam=     0.4
 132     freq=  1415. Q= -0.001 lam=     0.0     freq=  1422. Q= -0.135 lam=    12.9
 133     freq=  1425. Q= -0.046 lam=     1.5     freq=  1436. Q= -0.223 lam=    35.7
 134     freq=  1438. Q=  0.033 lam=     0.8     freq=  1464. Q=  0.259 lam=    49.1
 135     freq=  1460. Q=  0.220 lam=    35.3     freq=  1468. Q=  0.019 lam=     0.3
 136     freq=  1471. Q=  0.006 lam=     0.0     freq=  1472. Q=  0.006 lam=     0.0
 137     freq=  1480. Q=  0.003 lam=     0.0     freq=  1482. Q=  0.064 lam=     3.0
 138     freq=  1483. Q=  0.017 lam=     0.2     freq=  1482. Q=  0.000 lam=     0.0
 139     freq=  1484. Q= -0.000 lam=     0.0     freq=  1482. Q= -0.001 lam=     0.0
 140     freq=  1491. Q=  0.370 lam=   102.3     freq=  1493. Q=  0.017 lam=     0.2
 141     freq=  1496. Q=  0.014 lam=     0.2     freq=  1508. Q=  0.000 lam=     0.0
 142     freq=  1506. Q=  0.000 lam=     0.0     freq=  1524. Q=  0.019 lam=     0.3
 143     freq=  1523. Q=  0.021 lam=     0.3     freq=  1528. Q=  0.267 lam=    54.3
 144     freq=  1533. Q=  0.001 lam=     0.0     freq=  1529. Q=  0.000 lam=     0.0
 145     freq=  1537. Q= -0.005 lam=     0.0     freq=  1562. Q= -0.113 lam=     9.9
 146     freq=  1556. Q= -0.123 lam=    11.8     freq=  1572. Q= -0.068 lam=     3.7
 147     freq=  1576. Q= -0.054 lam=     2.3     freq=  1576. Q= -0.001 lam=     0.0
 148     freq=  1582. Q= -0.001 lam=     0.0     freq=  1591. Q= -0.002 lam=     0.0
 149     freq=  1589. Q=  0.003 lam=     0.0     freq=  1609. Q=  0.001 lam=     0.0
 150     freq=  1615. Q= -0.002 lam=     0.0     freq=  1617. Q= -0.017 lam=     0.2
 151     freq=  1618. Q=  0.104 lam=     8.8     freq=  1626. Q=  0.162 lam=    21.5
 152     freq=  1633. Q=  0.136 lam=    15.0     freq=  1631. Q=  0.003 lam=     0.0
 153     freq=  1648. Q=  0.872 lam=   627.1     freq=  1643. Q=  0.602 lam=   297.8
 154     freq=  1687. Q= -0.005 lam=     0.0     freq=  1664. Q= -0.002 lam=     0.0
 155     freq=  1710. Q=  0.003 lam=     0.0     freq=  1685. Q=  0.000 lam=     0.0
 156     freq=  1723. Q= -0.259 lam=    57.7     freq=  1701. Q= -0.068 lam=     4.0
 157     freq=  1761. Q= -0.666 lam=   390.5     freq=  1722. Q= -0.120 lam=    12.5
 158     freq=  3031. Q= -0.000 lam=     0.0     freq=  3022. Q= -0.000 lam=     0.0
 159     freq=  3035. Q=  0.013 lam=     0.3     freq=  3027. Q=  0.011 lam=     0.2
 160     freq=  3088. Q= -0.000 lam=     0.0     freq=  3080. Q= -0.000 lam=     0.0
 161     freq=  3091. Q=  0.010 lam=     0.2     freq=  3083. Q=  0.007 lam=     0.1
 162     freq=  3110. Q= -0.006 lam=     0.1     freq=  3104. Q= -0.005 lam=     0.0
 163     freq=  3132. Q=  0.000 lam=     0.0     freq=  3129. Q=  0.000 lam=     0.0
 164     freq=  3142. Q= -0.006 lam=     0.0     freq=  3138. Q= -0.003 lam=     0.0
 165     freq=  3194. Q=  0.003 lam=     0.0     freq=  3151. Q=  0.014 lam=     0.3
 166     freq=  3194. Q=  0.001 lam=     0.0     freq=  3164. Q=  0.000 lam=     0.0
 167     freq=  3196. Q= -0.028 lam=     1.3     freq=  3177. Q= -0.062 lam=     6.2
 168     freq=  3200. Q=  0.002 lam=     0.0     freq=  3182. Q=  0.004 lam=     0.0
 169     freq=  3200. Q= -0.004 lam=     0.0     freq=  3182. Q= -0.001 lam=     0.0
 170     freq=  3206. Q=  0.000 lam=     0.0     freq=  3189. Q=  0.002 lam=     0.0
 171     freq=  3209. Q= -0.001 lam=     0.0     freq=  3190. Q= -0.004 lam=     0.0
 172     freq=  3210. Q= -0.001 lam=     0.0     freq=  3199. Q= -0.003 lam=     0.0
 173     freq=  3214. Q= -0.009 lam=     0.1     freq=  3199. Q= -0.005 lam=     0.0
 174     freq=  3225. Q=  0.005 lam=     0.0     freq=  3200. Q=  0.001 lam=     0.0
 175     freq=  3226. Q=  0.019 lam=     0.6     freq=  3202. Q=  0.015 lam=     0.4
 176     freq=  3274. Q= -0.495 lam=   401.3     freq=  3211. Q= -0.002 lam=     0.0
 177     freq=  3275. Q=  0.018 lam=     0.6     freq=  3212. Q=  0.015 lam=     0.3

 total reorg energy (cm**-1, kcal/mol)=    66986.     6546.    191.52     18.72
 Nber of molecules processed=           2
