 Enter ifcurve (0=recti, 1=orth curvi, 2=apprx curvi, -1 = skip
 And atom ordering flag, 0= never changes, 1= use the first order thenceforth,
  2= deduce it (does read on fail), 3= always read it
 Reading file: 
 ./TT-PDI_5_C0S1.log                                                            
                                          
  Entering Gaussian System, Link 0=g16                                          
  
 Gaussian format, type: g94, g98, g03= F F F
  #P Geom=AllCheck Guess=TCheck SCRF=Check GenChk RB3LYP TD(FC,Read)/6-3    
 energy type= TD      
 Original G94 input coords:
  6  1.354748  0.928419  0.176290
  6  2.551335 -0.004409 -0.041597
  6  3.776989  0.707842 -0.624625
  7  2.889580 -0.772408  1.193014
  6  2.740650 -2.174847  1.130479
  8  2.352226 -2.723289  0.107242
  6  3.072375 -2.935691  2.344375
  6  2.942662 -4.324843  2.336006
  6  3.246243 -5.069255  3.460353
  6  3.696603 -4.464528  4.655886
  6  4.017707 -5.232717  5.838814
  6  3.897188 -6.645181  5.861836
  6  4.201935 -7.371594  6.982743
  6  4.647765 -6.738245  8.157821
  6  4.947703 -7.571949  9.291637
  8  4.871677 -8.772810  9.389096
  7  5.411994 -6.812032 10.487745
  6  5.704834 -7.507891 11.556841
  6  5.978745 -8.161901 12.555981
  6  6.274911 -8.873887 13.635309
  6  6.549397 -9.539807 14.636182
  6  6.854841-10.276098 15.746580
  6  6.779573-11.677264 15.885320
  6  7.166241-12.086929 17.153753
 16  7.300424-13.633623 17.958171
  6  7.850220-12.838057 19.402503
  6  7.934747-11.469319 19.300847
  6  7.545525-11.036164 18.019724
 16  7.420440 -9.489378 17.241321
  6  5.573810 -5.332337 10.576118
  8  5.961122 -4.875778 11.624360
  6  5.234764 -4.640494  9.360892
  6  5.358591 -3.238551  9.352581
  6  5.054984 -2.510020  8.232738
  6  4.605624 -3.134290  7.041748
  6  4.285229 -2.366243  5.858496
  6  4.400202 -0.958178  5.816431
  6  4.090919 -0.234947  4.679737
  6  3.650010 -0.878747  3.523508
  6  3.329229 -0.078002  2.331181
  8  3.437520  1.142397  2.321272
  6  3.518484 -2.283869  3.514171
  6  3.836257 -3.045055  4.686656
  6  4.468581 -4.558796  7.018307
  6  4.789278 -5.325832  8.199524
  1  1.055064  1.357525 -0.784337
  1  1.598859  1.738936  0.861683
  1  0.501843  0.372228  0.574242
  1  2.249543 -0.781811 -0.740176
  1  4.121677  1.509482  0.027187
  1  3.515203  1.133097 -1.597954
  1  4.595362 -0.000432 -0.778807
  1  2.598650 -4.801510  1.426979
  1  3.130339 -6.142273  3.406243
  1  3.558676 -7.172321  4.982310
  1  4.106187 -8.449959  6.988310
  1  6.455134-12.315041 15.076289
  1  8.086726-13.437989 20.268498
  1  8.259092-10.830006 20.108753
  1  5.700863 -2.750508 10.256318
  1  5.164506 -1.436438  8.271005
  1  4.737910 -0.415924  6.688024
  1  4.183446  0.843519  4.661062
 nber atoms=          63
  Total Energy, E(TD-HF/TD-DFT) =  -2627.99598465                               
  
          32          49 "  -2627.99598465"
After scan for Atom:   Atom  AN      X      Y      Z        X      Y      Z        X      Y      Z   
After scan for Atom:   Atom  AN      X      Y      Z        X      Y      Z        X      Y      Z   
After scan for Atom:   Atom  AN      X      Y      Z        X      Y      Z        X      Y      Z   
After scan for Atom:   Atom  AN      X      Y      Z        X      Y      Z        X      Y      Z   
After scan for Atom:   Atom  AN      X      Y      Z        X      Y      Z        X      Y      Z   
After scan for Atom:   Atom  AN      X      Y      Z        X      Y      Z        X      Y      Z   
After scan for Atom:   Atom  AN      X      Y      Z        X      Y      Z        X      Y      Z   
After scan for Atom:   Atom  AN      X      Y      Z        X      Y      Z        X      Y      Z   
After scan for Atom:   Atom  AN      X      Y      Z        X      Y      Z        X      Y      Z   
After scan for Atom:   Atom  AN      X      Y      Z        X      Y      Z        X      Y      Z   
After scan for Atom:   Atom  AN      X      Y      Z        X      Y      Z        X      Y      Z   
After scan for Atom:   Atom  AN      X      Y      Z        X      Y      Z        X      Y      Z   
After scan for Atom:   Atom  AN      X      Y      Z        X      Y      Z        X      Y      Z   
After scan for Atom:   Atom  AN      X      Y      Z        X      Y      Z        X      Y      Z   
After scan for Atom:   Atom  AN      X      Y      Z        X      Y      Z        X      Y      Z   
After scan for Atom:   Atom  AN      X      Y      Z        X      Y      Z        X      Y      Z   
After scan for Atom:   Atom  AN      X      Y      Z        X      Y      Z        X      Y      Z   
After scan for Atom:   Atom  AN      X      Y      Z        X      Y      Z        X      Y      Z   
After scan for Atom:   Atom  AN      X      Y      Z        X      Y      Z        X      Y      Z   
After scan for Atom:   Atom  AN      X      Y      Z        X      Y      Z        X      Y      Z   
After scan for Atom:   Atom  AN      X      Y      Z        X      Y      Z        X      Y      Z   
After scan for Atom:   Atom  AN      X      Y      Z        X      Y      Z        X      Y      Z   
After scan for Atom:   Atom  AN      X      Y      Z        X      Y      Z        X      Y      Z   
After scan for Atom:   Atom  AN      X      Y      Z        X      Y      Z        X      Y      Z   
After scan for Atom:   Atom  AN      X      Y      Z        X      Y      Z        X      Y      Z   
After scan for Atom:   Atom  AN      X      Y      Z        X      Y      Z        X      Y      Z   
After scan for Atom:   Atom  AN      X      Y      Z        X      Y      Z        X      Y      Z   
After scan for Atom:   Atom  AN      X      Y      Z        X      Y      Z        X      Y      Z   
After scan for Atom:   Atom  AN      X      Y      Z        X      Y      Z        X      Y      Z   
After scan for Atom:   Atom  AN      X      Y      Z        X      Y      Z        X      Y      Z   
After scan for Atom:   Atom  AN      X      Y      Z        X      Y      Z        X      Y      Z   
After scan for Atom:   Atom  AN      X      Y      Z        X      Y      Z        X      Y      Z   
After scan for Atom:   Atom  AN      X      Y      Z        X      Y      Z        X      Y      Z   
After scan for Atom:   Atom  AN      X      Y      Z        X      Y      Z        X      Y      Z   
After scan for Atom:   Atom  AN      X      Y      Z        X      Y      Z        X      Y      Z   
After scan for Atom:   Atom  AN      X      Y      Z        X      Y      Z        X      Y      Z   
After scan for Atom:   Atom  AN      X      Y      Z        X      Y      Z        X      Y      Z   
After scan for Atom:   Atom  AN      X      Y      Z        X      Y      Z        X      Y      Z   
After scan for Atom:   Atom  AN      X      Y      Z        X      Y      Z        X      Y      Z   
After scan for Atom:   Atom  AN      X      Y      Z        X      Y      Z        X      Y      Z   
After scan for Atom:   Atom  AN      X      Y      Z        X      Y      Z        X      Y      Z   
After scan for Atom:   Atom  AN      X      Y      Z        X      Y      Z        X      Y      Z   
After scan for Atom:   Atom  AN      X      Y      Z        X      Y      Z        X      Y      Z   
After scan for Atom:   Atom  AN      X      Y      Z        X      Y      Z        X      Y      Z   
After scan for Atom:   Atom  AN      X      Y      Z        X      Y      Z        X      Y      Z   
After scan for Atom:   Atom  AN      X      Y      Z        X      Y      Z        X      Y      Z   
After scan for Atom:   Atom  AN      X      Y      Z        X      Y      Z        X      Y      Z   
After scan for Atom:   Atom  AN      X      Y      Z        X      Y      Z        X      Y      Z   
After scan for Atom:   Atom  AN      X      Y      Z        X      Y      Z        X      Y      Z   
After scan for Atom:   Atom  AN      X      Y      Z        X      Y      Z        X      Y      Z   
After scan for Atom:   Atom  AN      X      Y      Z        X      Y      Z        X      Y      Z   
After scan for Atom:   Atom  AN      X      Y      Z        X      Y      Z        X      Y      Z   
After scan for Atom:   Atom  AN      X      Y      Z        X      Y      Z        X      Y      Z   
After scan for Atom:   Atom  AN      X      Y      Z        X      Y      Z        X      Y      Z   
After scan for Atom:   Atom  AN      X      Y      Z        X      Y      Z        X      Y      Z   
After scan for Atom:   Atom  AN      X      Y      Z        X      Y      Z        X      Y      Z   
After scan for Atom:   Atom  AN      X      Y      Z        X      Y      Z        X      Y      Z   
After scan for Atom:   Atom  AN      X      Y      Z        X      Y      Z        X      Y      Z   
After scan for Atom:   Atom  AN      X      Y      Z        X      Y      Z        X      Y      Z   
After scan for Atom:   Atom  AN      X      Y      Z        X      Y      Z        X      Y      Z   
After scan for Atom:   Atom  AN      X      Y      Z        X      Y      Z        X      Y      Z   
 g94    frequencies=
     0.0    0.0    0.0    0.0    0.0    0.0    6.8    9.9   16.2   23.8
    26.6   38.8   48.5   54.5   60.1   77.9   88.2   94.9  104.8  111.8
   117.1  160.2  169.0  177.6  193.2  194.8  204.2  207.9  214.3  222.4
   234.2  235.2  254.1  257.9  280.4  294.2  294.7  319.4  331.8  342.7
   357.6  376.5  392.1  397.4  416.2  424.7  433.7  439.6  441.7  444.7
   452.1  453.3  458.4  469.5  477.6  493.1  501.6  503.5  515.4  522.3
   523.1  547.6  552.5  578.5  581.7  591.7  592.2  615.1  622.7  625.0
   631.2  661.1  664.9  666.6  685.9  706.9  710.2  725.7  743.8  747.8
   753.3  755.4  762.4  768.6  781.0  786.5  797.4  805.0  815.8  822.1
   823.9  830.4  832.6  841.4  851.2  854.6  855.7  888.5  898.8  910.2
   930.5  940.2  943.4  955.7  968.0  973.6  977.0  977.1  986.3  989.4
  1039.0 1068.5 1093.3 1104.9 1117.5 1148.5 1155.0 1165.8 1168.6 1174.6
  1177.5 1189.9 1200.8 1213.7 1223.3 1227.8 1236.4 1249.7 1272.2 1281.6
  1294.7 1303.6 1324.4 1325.8 1360.1 1361.4 1369.5 1384.2 1386.2 1392.6
  1394.9 1397.6 1411.6 1421.1 1424.0 1436.1 1452.8 1456.8 1469.3 1481.4
  1482.2 1484.0 1484.1 1496.2 1506.5 1523.5 1544.1 1554.5 1562.4 1574.7
  1587.9 1592.6 1614.7 1619.9 1634.6 1684.2 1721.0 1800.8 1803.3 2179.0
  2264.3 3029.8 3034.4 3087.0 3090.2 3109.5 3131.8 3141.6 3193.3 3193.6
  3198.3 3198.5 3209.2 3209.5 3226.0 3226.1 3227.8 3235.6 3247.2
 g94    symmetries=
                                                 A      A      A      A
       A      A      A      A      A      A      A      A      A      A
       A      A      A      A      A      A      A      A      A      A
       A      A      A      A      A      A      A      A      A      A
       A      A      A      A      A      A      A      A      A      A
       A      A      A      A      A      A      A      A      A      A
       A      A      A      A      A      A      A      A      A      A
       A      A      A      A      A      A      A      A      A      A
       A      A      A      A      A      A      A      A      A      A
       A      A      A      A      A      A      A      A      A      A
       A      A      A      A      A      A      A      A      A      A
       A      A      A      A      A      A      A      A      A      A
       A      A      A      A      A      A      A      A      A      A
       A      A      A      A      A      A      A      A      A      A
       A      A      A      A      A      A      A      A      A      A
       A      A      A      A      A      A      A      A      A      A
       A      A      A      A      A      A      A      A      A      A
       A      A      A      A      A      A      A      A      A      A
       A      A      A      A      A      A      A      A      A
 atomic masses:
 12.0000 12.0000 12.0000 14.0031 12.0000 15.9949 12.0000 12.0000 12.0000 12.0000
 12.0000 12.0000 12.0000 12.0000 12.0000 15.9949 14.0031 12.0000 12.0000 12.0000
 12.0000 12.0000 12.0000 12.0000 31.9721 12.0000 12.0000 12.0000 31.9721 12.0000
 15.9949 12.0000 12.0000 12.0000 12.0000 12.0000 12.0000 12.0000 12.0000 12.0000
 15.9949 12.0000 12.0000 12.0000 12.0000  1.0078  1.0078  1.0078  1.0078  1.0078
  1.0078  1.0078  1.0078  1.0078  1.0078  1.0078  1.0078  1.0078  1.0078  1.0078
  1.0078  1.0078  1.0078
 looking for force constants in 
 ./TT-PDI_5_C0S1.fchk                                                           
  
 Cartesian Force Constants                  R   N=       17955                  
  
 n3=         189       17955
 g94-fc frequencies=
    -7.1   -1.2   -0.0    0.0    0.0    0.5    6.8    9.9   16.3   23.8
    26.6   38.8   48.5   54.5   60.1   77.9   88.2   94.9  104.8  111.8
   117.1  160.2  169.0  177.6  193.2  194.8  204.2  207.9  214.3  222.4
   234.2  235.2  254.1  257.9  280.4  294.2  294.8  319.4  331.8  342.7
   357.6  376.5  392.1  397.4  416.2  424.7  433.7  439.6  441.7  444.7
   452.1  453.3  458.4  469.5  477.6  493.1  501.6  503.6  515.4  522.3
   523.1  547.6  552.6  578.5  581.7  591.7  592.2  615.2  622.7  625.1
   631.2  661.1  664.9  666.6  685.9  706.9  710.2  725.7  743.9  747.8
   753.3  755.4  762.4  768.7  781.1  786.5  797.4  805.0  815.8  822.1
   823.9  830.4  832.6  841.4  851.2  854.7  855.7  888.6  898.8  910.2
   930.5  940.2  943.4  955.7  968.1  973.6  977.0  977.1  986.3  989.4
  1039.0 1068.5 1093.3 1105.0 1117.5 1148.5 1155.0 1165.9 1168.6 1174.6
  1177.6 1189.9 1200.8 1213.7 1223.3 1227.9 1236.4 1249.7 1272.3 1281.6
  1294.7 1303.7 1324.4 1325.8 1360.1 1361.4 1369.5 1384.2 1386.2 1392.6
  1395.0 1397.6 1411.6 1421.1 1424.0 1436.1 1452.9 1456.9 1469.3 1481.5
  1482.2 1484.1 1484.1 1496.2 1506.5 1523.5 1544.2 1554.6 1562.5 1574.7
  1587.9 1592.7 1614.8 1620.0 1634.6 1684.3 1721.0 1800.9 1803.3 2179.0
  2264.4 3029.9 3034.4 3087.1 3090.3 3109.6 3131.9 3141.6 3193.4 3193.6
  3198.3 3198.6 3209.2 3209.6 3226.1 3226.2 3227.9 3235.6 3247.3
 at 99999: n3=         189
 symm operator            1 :  F  nop=           0
 symm operator            2 :  F  nop=           0
 symm operator            3 :  F  nop=           0
 symm operator            4 :  F  nop=           0
 symm operator            5 :  F  nop=           0
 symm operator            6 :  F  nop=           0
 symm operator            7 :  F  nop=           0
 The point group of the molecule is  C1
 Symmetry rotation matrix:
   1.00000   0.00000   0.00000
   0.00000   1.00000   0.00000
   0.00000   0.00000   1.00000

 Projecting out zero-frequency components
 generating redundant internal coords
         300        3600          63
 search for int coords
   1 str   2   1   1.533
   2 str   3   2   1.533
   3 str   4   2   1.493
   4 str   5   4   1.412
   5 str   6   5   1.224
   6 str   7   5   1.471
   7 str   8   7   1.395
   8 str   9   8   1.382
   9 str  10   9   1.413
  10 str  11  10   1.447
  11 str  12  11   1.418
  12 str  13  12   1.370
  13 str  14  13   1.407
  14 str  15  14   1.439
  15 str  16  15   1.207
  16 str  17  15   1.491
  17 str  18  17   1.309
  18 str  19  18   1.225
  19 str  20  19   1.326
  20 str  21  20   1.233
  21 str  22  21   1.367
  22 str  23  22   1.410
  23 str  24  23   1.388
  24 str  25  24   1.749
  25 str  26  25   1.738
  26 str  27  26   1.375
  27 str  28  24   1.413
  28 str  28  27   1.407
  29 str  29  22   1.781
  30 str  29  28   1.736
  31 str  30  17   1.491
  32 str  31  30   1.207
  33 str  32  30   1.439
  34 str  33  32   1.407
  35 str  34  33   1.370
  36 str  35  34   1.418
  37 str  36  35   1.447
  38 str  37  36   1.413
  39 str  38  37   1.382
  40 str  39  38   1.395
  41 str  40   4   1.404
  42 str  40  39   1.472
  43 str  41  40   1.225
  44 str  42   7   1.411
  45 str  42  39   1.411
  46 str  43  10   1.427
  47 str  43  36   1.427
  48 str  43  42   1.434
  49 str  44  11   1.431
  50 str  44  35   1.431
  51 str  45  14   1.420
  52 str  45  32   1.420
  53 str  45  44   1.444
  54 str  46   1   1.094
  55 str  47   1   1.089
  56 str  48   1   1.093
  57 str  49   2   1.088
  58 str  50   3   1.089
  59 str  51   3   1.094
  60 str  52   3   1.093
  61 str  53   8   1.083
  62 str  54   9   1.081
  63 str  55  12   1.080
  64 str  56  13   1.083
  65 str  57  23   1.080
  66 str  58  26   1.080
  67 str  59  27   1.080
  68 str  60  33   1.083
  69 str  61  34   1.080
  70 str  62  37   1.081
  71 str  63  38   1.083
 nber stretches=          71
  72 ben   1   2   3
  73 prop tor   1   2   3  50
  74 prop tor   1   2   3  51
  75 prop tor   1   2   3  52
  76 ben   1   2   4
  77 prop tor   1   2   4   5
  78 prop tor   1   2   4  40
  79 ben   1   2  49
  80 ben   2   1  46
  81 ben   2   1  47
  82 ben   2   1  48
  83 ben   2   3  50
  84 ben   2   3  51
  85 ben   2   3  52
  86 ben   2   4   5
  87 prop tor   2   4   5   6
  88 prop tor   2   4   5   7
  89 ben   2   4  40
  90 prop tor   2   4  40  39
  91 prop tor   2   4  40  41
  92 ben   3   2   4
  93 prop tor   3   2   4   5
  94 prop tor   3   2   4  40
  95 ben   3   2  49
  96 prop tor   4   2   3  50
  97 prop tor   4   2   3  51
  98 prop tor   4   2   3  52
  99 ben   4   2  49
 100 ben   4   5   6
 101 ben   4   5   7
 102 prop tor   4   5   7   8
 103 prop tor   4   5   7  42
 104 ben   4  40  39
 105 ben   4  40  41
 106 ben   5   4  40
 107 prop tor   5   4  40  39
 108 prop tor   5   4  40  41
 109 ben   5   7   8
 110 prop tor   5   7   8   9
 111 prop tor   5   7   8  53
 112 ben   5   7  42
 113 prop tor   5   7  42  39
 114 prop tor   5   7  42  43
 115 ben   6   5   7
 116 prop tor   6   5   7   8
 117 prop tor   6   5   7  42
 118 ben   7   8   9
 119 prop tor   7   8   9  10
 120 prop tor   7   8   9  54
 121 ben   7   8  53
 122 ben   7  42  39
 123 ben   7  42  43
 124 prop tor   7  42  43  10
 125 prop tor   7  42  43  36
 126 ben   8   7  42
 127 prop tor   8   7  42  39
 128 prop tor   8   7  42  43
 129 ben   8   9  10
 130 prop tor   8   9  10  11
 131 prop tor   8   9  10  43
 132 ben   8   9  54
 133 ben   9   8  53
 134 ben   9  10  11
 135 prop tor   9  10  11  12
 136 prop tor   9  10  11  44
 137 ben   9  10  43
 138 prop tor   9  10  43  36
 139 prop tor   9  10  43  42
 140 ben  10   9  54
 141 ben  10  11  12
 142 prop tor  10  11  12  13
 143 prop tor  10  11  12  55
 144 ben  10  11  44
 145 prop tor  10  11  44  35
 146 prop tor  10  11  44  45
 147 ben  10  43  36
 148 ben  10  43  42
 149 ben  11  10  43
 150 prop tor  11  10  43  36
 151 prop tor  11  10  43  42
 152 ben  11  12  13
 153 prop tor  11  12  13  14
 154 prop tor  11  12  13  56
 155 ben  11  12  55
 156 ben  11  44  35
 157 ben  11  44  45
 158 prop tor  11  44  45  14
 159 prop tor  11  44  45  32
 160 ben  12  11  44
 161 prop tor  12  11  44  35
 162 prop tor  12  11  44  45
 163 ben  12  13  14
 164 prop tor  12  13  14  15
 165 prop tor  12  13  14  45
 166 ben  12  13  56
 167 ben  13  12  55
 168 ben  13  14  15
 169 prop tor  13  14  15  16
 170 prop tor  13  14  15  17
 171 ben  13  14  45
 172 prop tor  13  14  45  32
 173 prop tor  13  14  45  44
 174 ben  14  13  56
 175 ben  14  15  16
 176 ben  14  15  17
 177 prop tor  14  15  17  18
 178 prop tor  14  15  17  30
 179 ben  14  45  32
 180 ben  14  45  44
 181 ben  15  14  45
 182 prop tor  15  14  45  32
 183 prop tor  15  14  45  44
 184 ben  15  17  18
 185 prop tor  15  17  18  19
 186 ben  15  17  30
 187 prop tor  15  17  30  31
 188 prop tor  15  17  30  32
 189 ben  16  15  17
 190 prop tor  16  15  17  18
 191 prop tor  16  15  17  30
 192 lin ben  17  18  19
 194 ben  17  30  31
 195 ben  17  30  32
 196 prop tor  17  30  32  33
 197 prop tor  17  30  32  45
 198 ben  18  17  30
 199 prop tor  18  17  30  31
 200 prop tor  18  17  30  32
 Extend lin bond           1          17          18          20
 201 lin ben  18  19  20
 203 lin ben  19  20  21
 Extend lin bond           2          19          20          22
 205 lin ben  20  21  22
 207 ben  21  22  23
 208 prop tor  21  22  23  24
 209 prop tor  21  22  23  57
 210 ben  21  22  29
 211 prop tor  21  22  29  28
 212 ben  22  23  24
 213 prop tor  22  23  24  25
 214 prop tor  22  23  24  28
 215 ben  22  23  57
 216 ben  22  29  28
 217 ben  23  22  29
 218 prop tor  23  22  29  28
 219 ben  23  24  25
 220 prop tor  23  24  25  26
 221 ben  23  24  28
 222 prop tor  23  24  28  27
 223 prop tor  23  24  28  29
 224 ben  24  23  57
 225 ben  24  25  26
 226 prop tor  24  25  26  27
 227 prop tor  24  25  26  58
 228 ben  24  28  27
 229 ben  24  28  29
 230 prop tor  24  28  29  22
 231 ben  25  24  28
 232 prop tor  25  24  28  27
 233 prop tor  25  24  28  29
 234 ben  25  26  27
 235 prop tor  25  26  27  28
 236 prop tor  25  26  27  59
 237 ben  25  26  58
 238 ben  26  27  28
 239 prop tor  26  27  28  24
 240 prop tor  26  27  28  29
 241 ben  26  27  59
 242 ben  27  26  58
 243 ben  27  28  29
 244 prop tor  27  28  29  22
 245 prop tor  28  24  25  26
 246 ben  28  27  59
 247 prop tor  29  22  23  24
 248 prop tor  29  22  23  57
 249 prop tor  30  17  18  19
 250 ben  30  32  33
 251 prop tor  30  32  33  34
 252 prop tor  30  32  33  60
 253 ben  30  32  45
 254 prop tor  30  32  45  14
 255 prop tor  30  32  45  44
 256 ben  31  30  32
 257 prop tor  31  30  32  33
 258 prop tor  31  30  32  45
 259 ben  32  33  34
 260 prop tor  32  33  34  35
 261 prop tor  32  33  34  61
 262 ben  32  33  60
 263 ben  32  45  44
 264 ben  33  32  45
 265 prop tor  33  32  45  14
 266 prop tor  33  32  45  44
 267 ben  33  34  35
 268 prop tor  33  34  35  36
 269 prop tor  33  34  35  44
 270 ben  33  34  61
 271 ben  34  33  60
 272 ben  34  35  36
 273 prop tor  34  35  36  37
 274 prop tor  34  35  36  43
 275 ben  34  35  44
 276 prop tor  34  35  44  11
 277 prop tor  34  35  44  45
 278 ben  35  34  61
 279 ben  35  36  37
 280 prop tor  35  36  37  38
 281 prop tor  35  36  37  62
 282 ben  35  36  43
 283 prop tor  35  36  43  10
 284 prop tor  35  36  43  42
 285 ben  35  44  45
 286 prop tor  35  44  45  14
 287 prop tor  35  44  45  32
 288 ben  36  35  44
 289 prop tor  36  35  44  11
 290 prop tor  36  35  44  45
 291 ben  36  37  38
 292 prop tor  36  37  38  39
 293 prop tor  36  37  38  63
 294 ben  36  37  62
 295 ben  36  43  42
 296 ben  37  36  43
 297 prop tor  37  36  43  10
 298 prop tor  37  36  43  42
 299 ben  37  38  39
 300 prop tor  37  38  39  40
 301 prop tor  37  38  39  42
 302 ben  37  38  63
 303 ben  38  37  62
 304 ben  38  39  40
 305 prop tor  38  39  40   4
 306 prop tor  38  39  40  41
 307 ben  38  39  42
 308 prop tor  38  39  42   7
 309 prop tor  38  39  42  43
 310 ben  39  38  63
 311 ben  39  40  41
 312 ben  39  42  43
 313 prop tor  39  42  43  10
 314 prop tor  39  42  43  36
 315 prop tor  40   4   5   6
 316 prop tor  40   4   5   7
 317 ben  40  39  42
 318 prop tor  40  39  42   7
 319 prop tor  40  39  42  43
 320 prop tor  42   7   8   9
 321 prop tor  42   7   8  53
 322 prop tor  42  39  40   4
 323 prop tor  42  39  40  41
 324 prop tor  43  10  11  12
 325 prop tor  43  10  11  44
 326 prop tor  43  36  37  38
 327 prop tor  43  36  37  62
 328 prop tor  44  11  12  13
 329 prop tor  44  11  12  55
 330 prop tor  44  35  36  37
 331 prop tor  44  35  36  43
 332 prop tor  45  14  15  16
 333 prop tor  45  14  15  17
 334 prop tor  45  32  33  34
 335 prop tor  45  32  33  60
 336 prop tor  46   1   2   3
 337 prop tor  46   1   2   4
 338 prop tor  46   1   2  49
 339 ben  46   1  47
 340 ben  46   1  48
 341 prop tor  47   1   2   3
 342 prop tor  47   1   2   4
 343 prop tor  47   1   2  49
 344 ben  47   1  48
 345 prop tor  48   1   2   3
 346 prop tor  48   1   2   4
 347 prop tor  48   1   2  49
 348 prop tor  49   2   3  50
 349 prop tor  49   2   3  51
 350 prop tor  49   2   3  52
 351 prop tor  49   2   4   5
 352 prop tor  49   2   4  40
 353 ben  50   3  51
 354 ben  50   3  52
 355 ben  51   3  52
 356 prop tor  53   8   9  10
 357 prop tor  53   8   9  54
 358 prop tor  54   9  10  11
 359 prop tor  54   9  10  43
 360 prop tor  55  12  13  14
 361 prop tor  55  12  13  56
 362 prop tor  56  13  14  15
 363 prop tor  56  13  14  45
 364 prop tor  57  23  24  25
 365 prop tor  57  23  24  28
 366 prop tor  58  26  27  28
 367 prop tor  58  26  27  59
 368 prop tor  59  27  28  24
 369 prop tor  59  27  28  29
 370 prop tor  60  33  34  35
 371 prop tor  60  33  34  61
 372 prop tor  61  34  35  36
 373 prop tor  61  34  35  44
 374 prop tor  62  37  38  39
 375 prop tor  62  37  38  63
 376 prop tor  63  38  39  40
 377 prop tor  63  38  39  42
 378 lin bend prop tor  15  17  20  19
 379 lin bend prop tor  15  17  20  21
 380 lin bend prop tor  18  17  20  19
 381 lin bend prop tor  18  17  20  21
 382 lin bend prop tor  30  17  20  19
 383 lin bend prop tor  30  17  20  21
 384 lin bend prop tor  18  19  22  21
 385 lin bend prop tor  18  19  22  23
 386 lin bend prop tor  18  19  22  29
 387 lin bend prop tor  20  19  22  21
 388 lin bend prop tor  20  19  22  23
 389 lin bend prop tor  20  19  22  29
 nber bend=             124
 nber lin bend=           2
 nber prop tor=         194
 nber impr tor=           0
 nber tot redund int=         389
 Eigenvalues of G in red int coords
    Gval -0.00000000 -0.00000000 -0.00000000 -0.00000000 -0.00000000 -0.00000000 -0.00000000 -0.00000000
    Gval -0.00000000 -0.00000000 -0.00000000 -0.00000000 -0.00000000 -0.00000000 -0.00000000 -0.00000000
    Gval -0.00000000 -0.00000000 -0.00000000 -0.00000000 -0.00000000 -0.00000000 -0.00000000 -0.00000000
    Gval -0.00000000 -0.00000000 -0.00000000 -0.00000000 -0.00000000 -0.00000000 -0.00000000 -0.00000000
    Gval -0.00000000 -0.00000000 -0.00000000 -0.00000000 -0.00000000 -0.00000000 -0.00000000 -0.00000000
    Gval -0.00000000 -0.00000000 -0.00000000 -0.00000000 -0.00000000 -0.00000000 -0.00000000 -0.00000000
    Gval -0.00000000 -0.00000000 -0.00000000 -0.00000000 -0.00000000 -0.00000000 -0.00000000 -0.00000000
    Gval -0.00000000 -0.00000000 -0.00000000 -0.00000000 -0.00000000 -0.00000000 -0.00000000 -0.00000000
    Gval -0.00000000 -0.00000000 -0.00000000 -0.00000000 -0.00000000 -0.00000000 -0.00000000 -0.00000000
    Gval -0.00000000 -0.00000000 -0.00000000 -0.00000000 -0.00000000 -0.00000000 -0.00000000 -0.00000000
    Gval -0.00000000 -0.00000000 -0.00000000 -0.00000000 -0.00000000 -0.00000000 -0.00000000 -0.00000000
    Gval -0.00000000 -0.00000000 -0.00000000 -0.00000000 -0.00000000 -0.00000000 -0.00000000 -0.00000000
    Gval -0.00000000 -0.00000000 -0.00000000 -0.00000000 -0.00000000 -0.00000000  0.00000000  0.00000000
    Gval  0.00000000  0.00000000  0.00000000  0.00000000  0.00000000  0.00000000  0.00000000  0.00000000
    Gval  0.00000000  0.00000000  0.00000000  0.00000000  0.00000000  0.00000000  0.00000000  0.00000000
    Gval  0.00000000  0.00000000  0.00000000  0.00000000  0.00000000  0.00000000  0.00000000  0.00000000
    Gval  0.00000000  0.00000000  0.00000000  0.00000000  0.00000000  0.00000000  0.00000000  0.00000000
    Gval  0.00000000  0.00000000  0.00000000  0.00000000  0.00000000  0.00000000  0.00000000  0.00000000
    Gval  0.00000000  0.00000000  0.00000000  0.00000000  0.00000000  0.00000000  0.00000000  0.00000000
    Gval  0.00000000  0.00000000  0.00000000  0.00000000  0.00000000  0.00000000  0.00000000  0.00000000
    Gval  0.00000000  0.00000000  0.00000000  0.00000000  0.00000000  0.00000000  0.00000000  0.00000000
    Gval  0.00000000  0.00000000  0.00000000  0.00000000  0.00000000  0.00000000  0.00000000  0.00000000
    Gval  0.00000000  0.00000000  0.00000000  0.00000000  0.00000000  0.00000000  0.00000000  0.00000000
    Gval  0.00000000  0.00000000  0.00000000  0.00000000  0.00000000  0.00000000  0.00000000  0.00000000
    Gval  0.00000000  0.00000000  0.00000000  0.00000000  0.00000000  0.00000000  0.00000000  0.00000000
    Gval  0.00000000  0.00000000  0.00000000  0.00000000  0.00000000  0.00000000  0.00000008  0.00000047
    Gval  0.00000059  0.00000069  0.00000116  0.00000287  0.00000334  0.00000460  0.00000571  0.00000859
    Gval  0.00001011  0.00001116  0.00001162  0.00001205  0.00001431  0.00001570  0.00001658  0.00001767
    Gval  0.00001822  0.00001885  0.00001911  0.00002077  0.00002206  0.00002409  0.00002470  0.00002530
    Gval  0.00002982  0.00003253  0.00003326  0.00003574  0.00003931  0.00003995  0.00004533  0.00004889
    Gval  0.00004984  0.00005070  0.00005283  0.00005385  0.00005492  0.00005991  0.00006066  0.00006355
    Gval  0.00006823  0.00007021  0.00007275  0.00007671  0.00008145  0.00008235  0.00008449  0.00008675
    Gval  0.00008692  0.00008888  0.00009332  0.00009474  0.00009952  0.00010384  0.00011095  0.00011768
    Gval  0.00012040  0.00012248  0.00012879  0.00013310  0.00013646  0.00013726  0.00014083  0.00015321
    Gval  0.00015811  0.00015884  0.00016389  0.00016400  0.00016902  0.00018226  0.00019817  0.00019977
    Gval  0.00021493  0.00022307  0.00022832  0.00023162  0.00025035  0.00026922  0.00028638  0.00028782
    Gval  0.00029888  0.00030042  0.00030568  0.00031658  0.00034319  0.00035886  0.00038176  0.00038495
    Gval  0.00038722  0.00038885  0.00039248  0.00039862  0.00041331  0.00041822  0.00042556  0.00043053
    Gval  0.00043551  0.00044096  0.00044202  0.00046379  0.00046467  0.00046952  0.00049260  0.00052666
    Gval  0.00053389  0.00053728  0.00054879  0.00055369  0.00055545  0.00055594  0.00055856  0.00059658
    Gval  0.00059852  0.00059924  0.00059957  0.00059985  0.00060221  0.00061224  0.00062010  0.00062474
    Gval  0.00064140  0.00064297  0.00064491  0.00064567  0.00064747  0.00066892  0.00069252  0.00069705
    Gval  0.00078365  0.00079367  0.00082243  0.00090005  0.00098924  0.00108203  0.00109376  0.00109473
    Gval  0.00109535  0.00109596  0.00111469  0.00114376  0.00114601  0.00116456  0.00116507  0.00116681
    Gval  0.00116732  0.00116879  0.00116935  0.00118504  0.00121420  0.00128022  0.00129240  0.00130100
    Gval  0.00149515  0.00150235  0.00172356  0.00174643  0.00191140  0.00206581  0.00227690  0.00234068
    Gval  0.00251923  0.00252200  0.00255760  0.00277730  0.00292469  0.00302227  0.00304260  0.00308285
    Gval  0.00309216  0.00348791  0.00366470  0.00366634  0.00371238  0.00371394  0.00393384  0.00395153
    Gval  1.22647949  3.90779040 33.60904888 70.70690349352.19127401
  8.160011413682385E-008  8.160011413682385E-008
  4.711105788410926E-007  8.160011413682385E-008
  5.883021963269152E-007  8.160011413682385E-008
  6.899574361534447E-007  8.160011413682385E-008
  1.157190792152939E-006  8.160011413682385E-008
  2.868470222192983E-006  8.160011413682385E-008
  3.342149418168591E-006  8.160011413682385E-008
  4.595956977344670E-006  8.160011413682385E-008
  5.714562952798579E-006  8.160011413682385E-008
  8.587754643841969E-006  8.160011413682385E-008
  1.010519976508624E-005  8.160011413682385E-008
  1.116284217484373E-005  8.160011413682385E-008
  1.161782507105943E-005  8.160011413682385E-008
  1.204867754152485E-005  8.160011413682385E-008
  1.430940466659450E-005  8.160011413682385E-008
  1.570293436208401E-005  8.160011413682385E-008
  1.657896621426797E-005  8.160011413682385E-008
  1.766984889136132E-005  8.160011413682385E-008
  1.821962523093673E-005  8.160011413682385E-008
  1.885289894127824E-005  8.160011413682385E-008
  1.911346810592762E-005  8.160011413682385E-008
  2.076883359674404E-005  8.160011413682385E-008
  2.206258160157428E-005  8.160011413682385E-008
  2.409399459762957E-005  8.160011413682385E-008
  2.469974416597406E-005  8.160011413682385E-008
  2.529786274715632E-005  8.160011413682385E-008
  2.981681154532825E-005  8.160011413682385E-008
  3.253056776690190E-005  8.160011413682385E-008
  3.325770009143220E-005  8.160011413682385E-008
  3.573976532584718E-005  8.160011413682385E-008
  3.930962328508923E-005  8.160011413682385E-008
  3.994906638211442E-005  8.160011413682385E-008
  4.533277981528873E-005  8.160011413682385E-008
  4.889079710802277E-005  8.160011413682385E-008
  4.984297341059598E-005  8.160011413682385E-008
  5.069598816216654E-005  8.160011413682385E-008
  5.283074267615086E-005  8.160011413682385E-008
  5.384729200644164E-005  8.160011413682385E-008
  5.492110735847718E-005  8.160011413682385E-008
  5.990798043556810E-005  8.160011413682385E-008
  6.066335296032662E-005  8.160011413682385E-008
  6.355284546500925E-005  8.160011413682385E-008
  6.823198483862227E-005  8.160011413682385E-008
  7.020728884558704E-005  8.160011413682385E-008
  7.274925790357674E-005  8.160011413682385E-008
  7.671086467076204E-005  8.160011413682385E-008
  8.145366904734135E-005  8.160011413682385E-008
  8.235344111360918E-005  8.160011413682385E-008
  8.448893903349776E-005  8.160011413682385E-008
  8.675269223870761E-005  8.160011413682385E-008
  8.692076602399183E-005  8.160011413682385E-008
  8.888208763935075E-005  8.160011413682385E-008
  9.331681516895831E-005  8.160011413682385E-008
  9.474495561765929E-005  8.160011413682385E-008
  9.952338161170047E-005  8.160011413682385E-008
  1.038449287874497E-004  8.160011413682385E-008
  1.109452381045662E-004  8.160011413682385E-008
  1.176831183324384E-004  8.160011413682385E-008
  1.203987893898916E-004  8.160011413682385E-008
  1.224818413448055E-004  8.160011413682385E-008
  1.287945604265650E-004  8.160011413682385E-008
  1.331026798730593E-004  8.160011413682385E-008
  1.364564650637820E-004  8.160011413682385E-008
  1.372640245793207E-004  8.160011413682385E-008
  1.408273389016775E-004  8.160011413682385E-008
  1.532115863342925E-004  8.160011413682385E-008
  1.581079323318972E-004  8.160011413682385E-008
  1.588396093429169E-004  8.160011413682385E-008
  1.638881428443530E-004  8.160011413682385E-008
  1.639957427316740E-004  8.160011413682385E-008
  1.690153606234531E-004  8.160011413682385E-008
  1.822637503090745E-004  8.160011413682385E-008
  1.981725043608383E-004  8.160011413682385E-008
  1.997661319605214E-004  8.160011413682385E-008
  2.149289461814251E-004  8.160011413682385E-008
  2.230742599405459E-004  8.160011413682385E-008
  2.283240004385860E-004  8.160011413682385E-008
  2.316158192357922E-004  8.160011413682385E-008
  2.503541843589854E-004  8.160011413682385E-008
  2.692204327331223E-004  8.160011413682385E-008
  2.863831488590505E-004  8.160011413682385E-008
  2.878167445309852E-004  8.160011413682385E-008
  2.988795716116031E-004  8.160011413682385E-008
  3.004208415679912E-004  8.160011413682385E-008
  3.056844996734335E-004  8.160011413682385E-008
  3.165831720101287E-004  8.160011413682385E-008
  3.431852653423138E-004  8.160011413682385E-008
  3.588556310478911E-004  8.160011413682385E-008
  3.817577367653764E-004  8.160011413682385E-008
  3.849531710918010E-004  8.160011413682385E-008
  3.872200752065527E-004  8.160011413682385E-008
  3.888471874514576E-004  8.160011413682385E-008
  3.924783814599672E-004  8.160011413682385E-008
  3.986221829981244E-004  8.160011413682385E-008
  4.133130553426344E-004  8.160011413682385E-008
  4.182213021262579E-004  8.160011413682385E-008
  4.255628196464834E-004  8.160011413682385E-008
  4.305329346664985E-004  8.160011413682385E-008
  4.355066096734777E-004  8.160011413682385E-008
  4.409563410162723E-004  8.160011413682385E-008
  4.420194478441876E-004  8.160011413682385E-008
  4.637910075712479E-004  8.160011413682385E-008
  4.646690563783558E-004  8.160011413682385E-008
  4.695172991713593E-004  8.160011413682385E-008
  4.926025616305782E-004  8.160011413682385E-008
  5.266608470359969E-004  8.160011413682385E-008
  5.338891554373912E-004  8.160011413682385E-008
  5.372841122463952E-004  8.160011413682385E-008
  5.487884585005423E-004  8.160011413682385E-008
  5.536921779629583E-004  8.160011413682385E-008
  5.554454064531373E-004  8.160011413682385E-008
  5.559392087091876E-004  8.160011413682385E-008
  5.585564289258574E-004  8.160011413682385E-008
  5.965763943332658E-004  8.160011413682385E-008
  5.985160077379400E-004  8.160011413682385E-008
  5.992362356500562E-004  8.160011413682385E-008
  5.995655538452102E-004  8.160011413682385E-008
  5.998458810064477E-004  8.160011413682385E-008
  6.022122111506111E-004  8.160011413682385E-008
  6.122416069629898E-004  8.160011413682385E-008
  6.201022147090224E-004  8.160011413682385E-008
  6.247438729975069E-004  8.160011413682385E-008
  6.414013072470562E-004  8.160011413682385E-008
  6.429680437716391E-004  8.160011413682385E-008
  6.449142571095518E-004  8.160011413682385E-008
  6.456737116650856E-004  8.160011413682385E-008
  6.474665144907935E-004  8.160011413682385E-008
  6.689159369828181E-004  8.160011413682385E-008
  6.925158169065898E-004  8.160011413682385E-008
  6.970465394686260E-004  8.160011413682385E-008
  7.836533291730152E-004  8.160011413682385E-008
  7.936701885801565E-004  8.160011413682385E-008
  8.224257716221657E-004  8.160011413682385E-008
  9.000458828121319E-004  8.160011413682385E-008
  9.892417104268518E-004  8.160011413682385E-008
  1.082032411180523E-003  8.160011413682385E-008
  1.093761165786929E-003  8.160011413682385E-008
  1.094730333293254E-003  8.160011413682385E-008
  1.095347693326349E-003  8.160011413682385E-008
  1.095959436149819E-003  8.160011413682385E-008
  1.114686701092247E-003  8.160011413682385E-008
  1.143762757390423E-003  8.160011413682385E-008
  1.146005940098515E-003  8.160011413682385E-008
  1.164556971501597E-003  8.160011413682385E-008
  1.165068011091978E-003  8.160011413682385E-008
  1.166813222237140E-003  8.160011413682385E-008
  1.167323309711872E-003  8.160011413682385E-008
  1.168794383423121E-003  8.160011413682385E-008
  1.169352668304925E-003  8.160011413682385E-008
  1.185038581053670E-003  8.160011413682385E-008
  1.214199487992195E-003  8.160011413682385E-008
  1.280219445318359E-003  8.160011413682385E-008
  1.292398533525014E-003  8.160011413682385E-008
  1.301000149128193E-003  8.160011413682385E-008
  1.495145665212252E-003  8.160011413682385E-008
  1.502347516232284E-003  8.160011413682385E-008
  1.723560239150702E-003  8.160011413682385E-008
  1.746429050531745E-003  8.160011413682385E-008
  1.911401349187935E-003  8.160011413682385E-008
  2.065808777124929E-003  8.160011413682385E-008
  2.276898320255806E-003  8.160011413682385E-008
  2.340676130452964E-003  8.160011413682385E-008
  2.519227573773713E-003  8.160011413682385E-008
  2.521998037658840E-003  8.160011413682385E-008
  2.557601777629268E-003  8.160011413682385E-008
  2.777300420032130E-003  8.160011413682385E-008
  2.924685415899114E-003  8.160011413682385E-008
  3.022273848700210E-003  8.160011413682385E-008
  3.042595322332078E-003  8.160011413682385E-008
  3.082854557633926E-003  8.160011413682385E-008
  3.092160751980024E-003  8.160011413682385E-008
  3.487911106518617E-003  8.160011413682385E-008
  3.664698079218130E-003  8.160011413682385E-008
  3.666336853096081E-003  8.160011413682385E-008
  3.712375738296260E-003  8.160011413682385E-008
  3.713940326601835E-003  8.160011413682385E-008
  3.933842835014488E-003  8.160011413682385E-008
  3.951528292549938E-003  8.160011413682385E-008
   1.22647948605649       8.160011413682385E-008
   3.90779040225181       8.160011413682385E-008
   33.6090488790318       8.160011413682385E-008
   70.7069034926274       8.160011413682385E-008
   352.191274008980       8.160011413682385E-008
 cut=1d-8, nber non-redundant internal coords=         183
 Check on Eigenvals of non-red overlap matrix:
  0.00000008  0.00000047  0.00000059  0.00000069  0.00000116  0.00000287  0.00000334  0.00000460
  0.00000571  0.00000859  0.00001011  0.00001116  0.00001162  0.00001205  0.00001431  0.00001570
  0.00001658  0.00001767  0.00001822  0.00001885  0.00001911  0.00002077  0.00002206  0.00002409
  0.00002470  0.00002530  0.00002982  0.00003253  0.00003326  0.00003574  0.00003931  0.00003995
  0.00004533  0.00004889  0.00004984  0.00005070  0.00005283  0.00005385  0.00005492  0.00005991
  0.00006066  0.00006355  0.00006823  0.00007021  0.00007275  0.00007671  0.00008145  0.00008235
  0.00008449  0.00008675  0.00008692  0.00008888  0.00009332  0.00009474  0.00009952  0.00010384
  0.00011095  0.00011768  0.00012040  0.00012248  0.00012879  0.00013310  0.00013646  0.00013726
  0.00014083  0.00015321  0.00015811  0.00015884  0.00016389  0.00016400  0.00016902  0.00018226
  0.00019817  0.00019977  0.00021493  0.00022307  0.00022832  0.00023162  0.00025035  0.00026922
  0.00028638  0.00028782  0.00029888  0.00030042  0.00030568  0.00031658  0.00034319  0.00035886
  0.00038176  0.00038495  0.00038722  0.00038885  0.00039248  0.00039862  0.00041331  0.00041822
  0.00042556  0.00043053  0.00043551  0.00044096  0.00044202  0.00046379  0.00046467  0.00046952
  0.00049260  0.00052666  0.00053389  0.00053728  0.00054879  0.00055369  0.00055545  0.00055594
  0.00055856  0.00059658  0.00059852  0.00059924  0.00059957  0.00059985  0.00060221  0.00061224
  0.00062010  0.00062474  0.00064140  0.00064297  0.00064491  0.00064567  0.00064747  0.00066892
  0.00069252  0.00069705  0.00078365  0.00079367  0.00082243  0.00090005  0.00098924  0.00108203
  0.00109376  0.00109473  0.00109535  0.00109596  0.00111469  0.00114376  0.00114601  0.00116456
  0.00116507  0.00116681  0.00116732  0.00116879  0.00116935  0.00118504  0.00121420  0.00128022
  0.00129240  0.00130100  0.00149515  0.00150235  0.00172356  0.00174643  0.00191140  0.00206581
  0.00227690  0.00234068  0.00251923  0.00252200  0.00255760  0.00277730  0.00292469  0.00302227
  0.00304260  0.00308285  0.00309216  0.00348791  0.00366470  0.00366634  0.00371238  0.00371394
  0.00393384  0.00395153  1.22647949  3.90779040 33.60904888 70.70690349352.19127401
 Checking for correct frequencies
 recalc frequencies=
    -0.0   -0.0   -0.0    0.0    0.0    0.0    6.8    9.9   16.2   23.8
    26.6   38.8   48.5   54.5   60.1   77.9   88.2   94.9  104.8  111.8
   117.1  160.2  169.0  177.6  193.2  194.8  204.2  207.9  214.3  222.4
   234.2  235.2  254.1  257.9  280.4  294.2  294.8  319.4  331.8  342.7
   357.6  376.5  392.1  397.4  416.2  424.7  433.7  439.6  441.7  444.7
   452.1  453.3  458.4  469.5  477.6  493.1  501.6  503.6  515.4  522.3
   523.1  547.6  552.6  578.5  581.7  591.7  592.2  615.2  622.7  625.1
   631.2  661.1  664.9  666.6  685.9  706.9  710.2  725.7  743.9  747.8
   753.3  755.4  762.4  768.7  781.1  786.5  797.4  805.0  815.8  822.1
   823.9  830.4  832.6  841.4  851.2  854.7  855.7  888.6  898.8  910.2
   930.5  940.2  943.4  955.7  968.1  973.6  977.0  977.1  986.3  989.4
  1039.0 1068.5 1093.3 1105.0 1117.5 1148.5 1155.0 1165.9 1168.6 1174.6
  1177.6 1189.9 1200.8 1213.7 1223.3 1227.9 1236.4 1249.7 1272.3 1281.6
  1294.7 1303.7 1324.4 1325.8 1360.1 1361.4 1369.5 1384.2 1386.2 1392.6
  1395.0 1397.6 1411.6 1421.1 1424.0 1436.1 1452.9 1456.9 1469.3 1481.5
  1482.2 1484.1 1484.1 1496.2 1506.5 1523.5 1544.2 1554.6 1562.5 1574.7
  1587.9 1592.7 1614.8 1620.0 1634.6 1684.3 1721.0 1800.9 1803.3 2179.0
  2264.4 3029.9 3034.4 3087.1 3090.3 3109.6 3131.9 3141.6 3193.4 3193.6
  3198.3 3198.6 3209.2 3209.6 3226.1 3226.2 3227.9 3235.6 3247.3
 recalc symmetries=
                                                                       
                                                                       
                                                                       
                                                                       
                                                                       
                                                                       
                                                                       
                                                                       
                                                                       
                                                                       
                                                                       
                                                                       
                                                                       
                                                                       
                                                                       
                                                                       
                                                                       
                                                                       
                                                                
 recalc freqs check OK
 Zero-point lengths:
 10.0000 10.0000 10.0000 10.0000 10.0000 10.0000 95.0660 78.9430 61.6239 50.7949
 48.0941 39.8242 35.6102 33.5799 31.9669 28.0825 26.3953 25.4452 24.2147 23.4423
 22.9099 19.5853 19.0674 18.6019 17.8357 17.7602 17.3489 17.1952 16.9353 16.6229
 16.1995 16.1638 15.5524 15.4373 14.8055 14.4544 14.4399 13.8714 13.6108 13.3912
 13.1098 12.7766 12.5197 12.4365 12.1518 12.0292 11.9043 11.8238 11.7955 11.7555
 11.6591 11.6441 11.5793 11.4417 11.3437 11.1640 11.0696 11.0477 10.9201 10.8474
 10.8390 10.5937 10.5464 10.3074 10.2788 10.1914 10.1874  9.9954  9.9348  9.9160
  9.8673  9.6418  9.6145  9.6021  9.4657  9.3242  9.3028  9.2026  9.0898  9.0655
  9.0323  9.0199  8.9784  8.9419  8.8706  8.8397  8.7794  8.7375  8.6798  8.6462
  8.6370  8.6029  8.5916  8.5465  8.4972  8.4801  8.4747  8.3167  8.2691  8.2172
  8.1272  8.0852  8.0713  8.0193  7.9679  7.9453  7.9314  7.9310  7.8937  7.8814
  7.6911  7.5842  7.4976  7.4580  7.4159  7.3153  7.2947  7.2606  7.2520  7.2335
  7.2244  7.1868  7.1540  7.1160  7.0881  7.0749  7.0505  7.0128  6.9504  6.9250
  6.8898  6.8662  6.8121  6.8086  6.7222  6.7190  6.6990  6.6634  6.6585  6.6432
  6.6377  6.6313  6.5984  6.5763  6.5695  6.5419  6.5040  6.4951  6.4676  6.4409
  6.4393  6.4353  6.4352  6.4091  6.3872  6.3514  6.3088  6.2877  6.2718  6.2474
  6.2213  6.2120  6.1694  6.1595  6.1318  6.0407  5.9759  5.8419  5.8379  5.3108
  5.2098  4.5039  4.5005  4.4619  4.4596  4.4458  4.4299  4.4230  4.3870  4.3868
  4.3836  4.3835  4.3762  4.3760  4.3647  4.3646  4.3635  4.3583  4.3505
 highest evec of mol 1
  0.0000 -0.0000  0.0000
  0.0000  0.0000  0.0000
  0.0000 -0.0000  0.0000
 -0.0000  0.0000 -0.0000
  0.0000 -0.0000  0.0000
 -0.0000 -0.0000 -0.0000
 -0.0000  0.0000 -0.0000
  0.0000  0.0000  0.0000
  0.0000  0.0000  0.0000
 -0.0000 -0.0000 -0.0000
  0.0000 -0.0000  0.0000
  0.0000  0.0000  0.0000
  0.0000  0.0000  0.0000
 -0.0000  0.0000 -0.0000
  0.0000  0.0000  0.0001
 -0.0000 -0.0000 -0.0000
 -0.0000  0.0001 -0.0001
  0.0000 -0.0000  0.0001
  0.0000 -0.0000  0.0001
 -0.0001  0.0001 -0.0002
  0.0001 -0.0000  0.0002
 -0.0001 -0.0006 -0.0001
  0.0028  0.0054  0.0069
 -0.0012  0.0011 -0.0039
 -0.0008 -0.0014 -0.0021
  0.0555 -0.1603  0.2084
  0.0387  0.0889  0.0933
 -0.0026  0.0028 -0.0085
  0.0001 -0.0003  0.0004
 -0.0000 -0.0001  0.0000
  0.0000  0.0000  0.0000
 -0.0000  0.0000 -0.0000
 -0.0000 -0.0000 -0.0000
 -0.0000 -0.0001 -0.0000
  0.0000 -0.0000  0.0000
  0.0000  0.0000 -0.0000
 -0.0000 -0.0000 -0.0000
 -0.0000 -0.0000  0.0000
 -0.0000  0.0000 -0.0000
  0.0000 -0.0000  0.0000
 -0.0000  0.0000 -0.0000
 -0.0000  0.0000 -0.0000
 -0.0000  0.0000 -0.0000
 -0.0000  0.0000 -0.0000
  0.0000 -0.0000  0.0000
 -0.0000  0.0000 -0.0000
  0.0000 -0.0000  0.0000
  0.0000 -0.0000  0.0000
 -0.0000 -0.0000 -0.0000
 -0.0000 -0.0000  0.0000
 -0.0000  0.0000 -0.0000
 -0.0000  0.0000  0.0000
 -0.0000 -0.0000 -0.0001
 -0.0000 -0.0001 -0.0000
 -0.0001 -0.0001 -0.0002
 -0.0000 -0.0001  0.0000
 -0.0084 -0.0165 -0.0209
 -0.1883  0.4827 -0.6909
 -0.1209 -0.2406 -0.3006
  0.0000  0.0000  0.0000
  0.0000  0.0002  0.0000
  0.0000  0.0000  0.0001
  0.0000  0.0001 -0.0000
 generating redundant internal coords
         300        3600          63
 Adding extra bonds for z output only
           6           6           6           7           6           8
           6           6           6           6           6           6
           6           6           6           8           7           6
           6           6           6           6           6           6
          16           6           6           6          16           6
           8           6           6           6           6           6
           6           6           6           6           8           6
           6           6           6           1           1           1
           1           1           1           1           1           1
           1           1           1           1           1           1
           1           1           1
 search for int coords
   1 str   2   1   1.533
   2 str   3   2   1.533
   3 str   4   2   1.493
   4 str   5   4   1.412
   5 str   6   5   1.224
   6 str   7   5   1.471
   7 str   8   7   1.395
   8 str   9   8   1.382
   9 str  10   9   1.413
  10 str  11  10   1.447
  11 str  12  11   1.418
  12 str  13  12   1.370
  13 str  14  13   1.407
  14 str  15  14   1.439
  15 str  16  15   1.207
  16 str  17  15   1.491
  17 str  18  17   1.309
  18 str  19  18   1.225
  19 str  20  19   1.326
  20 str  21  20   1.233
  21 str  22  21   1.367
  22 str  23  22   1.410
  23 str  24  23   1.388
  24 str  25  24   1.749
  25 str  26  25   1.738
  26 str  27  26   1.375
  27 str  28  24   1.413
  28 str  28  27   1.407
  29 str  29  22   1.781
  30 str  29  28   1.736
  31 str  30  17   1.491
  32 str  31  30   1.207
  33 str  32  30   1.439
  34 str  33  32   1.407
  35 str  34  33   1.370
  36 str  35  34   1.418
  37 str  36  35   1.447
  38 str  37  36   1.413
  39 str  38  37   1.382
  40 str  39  38   1.395
  41 str  40   4   1.404
  42 str  40  39   1.472
  43 str  41  40   1.225
  44 str  42   7   1.411
  45 str  42  39   1.411
  46 str  43  10   1.427
  47 str  43  36   1.427
  48 str  43  42   1.434
  49 str  44  11   1.431
  50 str  44  35   1.431
  51 str  45  14   1.420
  52 str  45  32   1.420
  53 str  45  44   1.444
  54 str  46   1   1.094
  55 str  47   1   1.089
  56 str  48   1   1.093
  57 str  49   2   1.088
  58 str  50   3   1.089
  59 str  51   3   1.094
  60 str  52   3   1.093
  61 str  53   8   1.083
  62 str  54   9   1.081
  63 str  55  12   1.080
  64 str  56  13   1.083
  65 str  57  23   1.080
  66 str  58  26   1.080
  67 str  59  27   1.080
  68 str  60  33   1.083
  69 str  61  34   1.080
  70 str  62  37   1.081
  71 str  63  38   1.083
 nber stretches=          71
  72 ben   1   2   3
  73 prop tor   1   2   3  50
  74 prop tor   1   2   3  51
  75 prop tor   1   2   3  52
  76 ben   1   2   4
  77 prop tor   1   2   4   5
  78 prop tor   1   2   4  40
  79 ben   1   2  49
  80 ben   2   1  46
  81 ben   2   1  47
  82 ben   2   1  48
  83 ben   2   3  50
  84 ben   2   3  51
  85 ben   2   3  52
  86 ben   2   4   5
  87 prop tor   2   4   5   6
  88 prop tor   2   4   5   7
  89 ben   2   4  40
  90 prop tor   2   4  40  39
  91 prop tor   2   4  40  41
  92 ben   3   2   4
  93 prop tor   3   2   4   5
  94 prop tor   3   2   4  40
  95 ben   3   2  49
  96 prop tor   4   2   3  50
  97 prop tor   4   2   3  51
  98 prop tor   4   2   3  52
  99 ben   4   2  49
 100 ben   4   5   6
 101 ben   4   5   7
 102 prop tor   4   5   7   8
 103 prop tor   4   5   7  42
 104 ben   4  40  39
 105 ben   4  40  41
 106 ben   5   4  40
 107 prop tor   5   4  40  39
 108 prop tor   5   4  40  41
 109 ben   5   7   8
 110 prop tor   5   7   8   9
 111 prop tor   5   7   8  53
 112 ben   5   7  42
 113 prop tor   5   7  42  39
 114 prop tor   5   7  42  43
 115 ben   6   5   7
 116 prop tor   6   5   7   8
 117 prop tor   6   5   7  42
 118 ben   7   8   9
 119 prop tor   7   8   9  10
 120 prop tor   7   8   9  54
 121 ben   7   8  53
 122 ben   7  42  39
 123 ben   7  42  43
 124 prop tor   7  42  43  10
 125 prop tor   7  42  43  36
 126 ben   8   7  42
 127 prop tor   8   7  42  39
 128 prop tor   8   7  42  43
 129 ben   8   9  10
 130 prop tor   8   9  10  11
 131 prop tor   8   9  10  43
 132 ben   8   9  54
 133 ben   9   8  53
 134 ben   9  10  11
 135 prop tor   9  10  11  12
 136 prop tor   9  10  11  44
 137 ben   9  10  43
 138 prop tor   9  10  43  36
 139 prop tor   9  10  43  42
 140 ben  10   9  54
 141 ben  10  11  12
 142 prop tor  10  11  12  13
 143 prop tor  10  11  12  55
 144 ben  10  11  44
 145 prop tor  10  11  44  35
 146 prop tor  10  11  44  45
 147 ben  10  43  36
 148 ben  10  43  42
 149 ben  11  10  43
 150 prop tor  11  10  43  36
 151 prop tor  11  10  43  42
 152 ben  11  12  13
 153 prop tor  11  12  13  14
 154 prop tor  11  12  13  56
 155 ben  11  12  55
 156 ben  11  44  35
 157 ben  11  44  45
 158 prop tor  11  44  45  14
 159 prop tor  11  44  45  32
 160 ben  12  11  44
 161 prop tor  12  11  44  35
 162 prop tor  12  11  44  45
 163 ben  12  13  14
 164 prop tor  12  13  14  15
 165 prop tor  12  13  14  45
 166 ben  12  13  56
 167 ben  13  12  55
 168 ben  13  14  15
 169 prop tor  13  14  15  16
 170 prop tor  13  14  15  17
 171 ben  13  14  45
 172 prop tor  13  14  45  32
 173 prop tor  13  14  45  44
 174 ben  14  13  56
 175 ben  14  15  16
 176 ben  14  15  17
 177 prop tor  14  15  17  18
 178 prop tor  14  15  17  30
 179 ben  14  45  32
 180 ben  14  45  44
 181 ben  15  14  45
 182 prop tor  15  14  45  32
 183 prop tor  15  14  45  44
 184 ben  15  17  18
 185 prop tor  15  17  18  19
 186 ben  15  17  30
 187 prop tor  15  17  30  31
 188 prop tor  15  17  30  32
 189 ben  16  15  17
 190 prop tor  16  15  17  18
 191 prop tor  16  15  17  30
 192 lin ben  17  18  19
 194 ben  17  30  31
 195 ben  17  30  32
 196 prop tor  17  30  32  33
 197 prop tor  17  30  32  45
 198 ben  18  17  30
 199 prop tor  18  17  30  31
 200 prop tor  18  17  30  32
 Extend lin bond           1          17          18          20
 201 lin ben  18  19  20
 203 lin ben  19  20  21
 Extend lin bond           2          19          20          22
 205 lin ben  20  21  22
 207 ben  21  22  23
 208 prop tor  21  22  23  24
 209 prop tor  21  22  23  57
 210 ben  21  22  29
 211 prop tor  21  22  29  28
 212 ben  22  23  24
 213 prop tor  22  23  24  25
 214 prop tor  22  23  24  28
 215 ben  22  23  57
 216 ben  22  29  28
 217 ben  23  22  29
 218 prop tor  23  22  29  28
 219 ben  23  24  25
 220 prop tor  23  24  25  26
 221 ben  23  24  28
 222 prop tor  23  24  28  27
 223 prop tor  23  24  28  29
 224 ben  24  23  57
 225 ben  24  25  26
 226 prop tor  24  25  26  27
 227 prop tor  24  25  26  58
 228 ben  24  28  27
 229 ben  24  28  29
 230 prop tor  24  28  29  22
 231 ben  25  24  28
 232 prop tor  25  24  28  27
 233 prop tor  25  24  28  29
 234 ben  25  26  27
 235 prop tor  25  26  27  28
 236 prop tor  25  26  27  59
 237 ben  25  26  58
 238 ben  26  27  28
 239 prop tor  26  27  28  24
 240 prop tor  26  27  28  29
 241 ben  26  27  59
 242 ben  27  26  58
 243 ben  27  28  29
 244 prop tor  27  28  29  22
 245 prop tor  28  24  25  26
 246 ben  28  27  59
 247 prop tor  29  22  23  24
 248 prop tor  29  22  23  57
 249 prop tor  30  17  18  19
 250 ben  30  32  33
 251 prop tor  30  32  33  34
 252 prop tor  30  32  33  60
 253 ben  30  32  45
 254 prop tor  30  32  45  14
 255 prop tor  30  32  45  44
 256 ben  31  30  32
 257 prop tor  31  30  32  33
 258 prop tor  31  30  32  45
 259 ben  32  33  34
 260 prop tor  32  33  34  35
 261 prop tor  32  33  34  61
 262 ben  32  33  60
 263 ben  32  45  44
 264 ben  33  32  45
 265 prop tor  33  32  45  14
 266 prop tor  33  32  45  44
 267 ben  33  34  35
 268 prop tor  33  34  35  36
 269 prop tor  33  34  35  44
 270 ben  33  34  61
 271 ben  34  33  60
 272 ben  34  35  36
 273 prop tor  34  35  36  37
 274 prop tor  34  35  36  43
 275 ben  34  35  44
 276 prop tor  34  35  44  11
 277 prop tor  34  35  44  45
 278 ben  35  34  61
 279 ben  35  36  37
 280 prop tor  35  36  37  38
 281 prop tor  35  36  37  62
 282 ben  35  36  43
 283 prop tor  35  36  43  10
 284 prop tor  35  36  43  42
 285 ben  35  44  45
 286 prop tor  35  44  45  14
 287 prop tor  35  44  45  32
 288 ben  36  35  44
 289 prop tor  36  35  44  11
 290 prop tor  36  35  44  45
 291 ben  36  37  38
 292 prop tor  36  37  38  39
 293 prop tor  36  37  38  63
 294 ben  36  37  62
 295 ben  36  43  42
 296 ben  37  36  43
 297 prop tor  37  36  43  10
 298 prop tor  37  36  43  42
 299 ben  37  38  39
 300 prop tor  37  38  39  40
 301 prop tor  37  38  39  42
 302 ben  37  38  63
 303 ben  38  37  62
 304 ben  38  39  40
 305 prop tor  38  39  40   4
 306 prop tor  38  39  40  41
 307 ben  38  39  42
 308 prop tor  38  39  42   7
 309 prop tor  38  39  42  43
 310 ben  39  38  63
 311 ben  39  40  41
 312 ben  39  42  43
 313 prop tor  39  42  43  10
 314 prop tor  39  42  43  36
 315 prop tor  40   4   5   6
 316 prop tor  40   4   5   7
 317 ben  40  39  42
 318 prop tor  40  39  42   7
 319 prop tor  40  39  42  43
 320 prop tor  42   7   8   9
 321 prop tor  42   7   8  53
 322 prop tor  42  39  40   4
 323 prop tor  42  39  40  41
 324 prop tor  43  10  11  12
 325 prop tor  43  10  11  44
 326 prop tor  43  36  37  38
 327 prop tor  43  36  37  62
 328 prop tor  44  11  12  13
 329 prop tor  44  11  12  55
 330 prop tor  44  35  36  37
 331 prop tor  44  35  36  43
 332 prop tor  45  14  15  16
 333 prop tor  45  14  15  17
 334 prop tor  45  32  33  34
 335 prop tor  45  32  33  60
 336 prop tor  46   1   2   3
 337 prop tor  46   1   2   4
 338 prop tor  46   1   2  49
 339 ben  46   1  47
 340 ben  46   1  48
 341 prop tor  47   1   2   3
 342 prop tor  47   1   2   4
 343 prop tor  47   1   2  49
 344 ben  47   1  48
 345 prop tor  48   1   2   3
 346 prop tor  48   1   2   4
 347 prop tor  48   1   2  49
 348 prop tor  49   2   3  50
 349 prop tor  49   2   3  51
 350 prop tor  49   2   3  52
 351 prop tor  49   2   4   5
 352 prop tor  49   2   4  40
 353 ben  50   3  51
 354 ben  50   3  52
 355 ben  51   3  52
 356 prop tor  53   8   9  10
 357 prop tor  53   8   9  54
 358 prop tor  54   9  10  11
 359 prop tor  54   9  10  43
 360 prop tor  55  12  13  14
 361 prop tor  55  12  13  56
 362 prop tor  56  13  14  15
 363 prop tor  56  13  14  45
 364 prop tor  57  23  24  25
 365 prop tor  57  23  24  28
 366 prop tor  58  26  27  28
 367 prop tor  58  26  27  59
 368 prop tor  59  27  28  24
 369 prop tor  59  27  28  29
 370 prop tor  60  33  34  35
 371 prop tor  60  33  34  61
 372 prop tor  61  34  35  36
 373 prop tor  61  34  35  44
 374 prop tor  62  37  38  39
 375 prop tor  62  37  38  63
 376 prop tor  63  38  39  40
 377 prop tor  63  38  39  42
 378 lin bend prop tor  15  17  20  19
 379 lin bend prop tor  15  17  20  21
 380 lin bend prop tor  18  17  20  19
 381 lin bend prop tor  18  17  20  21
 382 lin bend prop tor  30  17  20  19
 383 lin bend prop tor  30  17  20  21
 384 lin bend prop tor  18  19  22  21
 385 lin bend prop tor  18  19  22  23
 386 lin bend prop tor  18  19  22  29
 387 lin bend prop tor  20  19  22  21
 388 lin bend prop tor  20  19  22  23
 389 lin bend prop tor  20  19  22  29
 nber bend=             124
 nber lin bend=           2
 nber prop tor=         194
 nber impr tor=           0
 nber tot redund int=         389
 Reading file: 
 ./TT-PDI_5_C0S3.log                                                            
                                          
  Entering Gaussian System, Link 0=g16                                          
  
 Gaussian format, type: g94, g98, g03= F F F
  #P Geom=AllCheck Guess=TCheck SCRF=Check GenChk RB3LYP TD(FC,Read)/6-3    
 energy type= TD      
 Original G94 input coords:
  6  1.417559  0.926122  0.467039
  6  2.539760  0.000874 -0.017310
  6  3.793110  0.757186 -0.472349
  7  2.860861 -1.056263  0.984341
  6  2.614038 -2.393000  0.599220
  8  2.156834 -2.654640 -0.507230
  6  2.930301 -3.437097  1.581503
  6  2.706487 -4.775539  1.252678
  6  2.993724 -5.782373  2.153770
  6  3.521604 -5.507681  3.436324
  6  3.826528 -6.553332  4.388435
  6  3.611947 -7.921412  4.089034
  6  3.903000 -8.910454  4.995474
  6  4.427622 -8.600202  6.261025
  6  4.712080 -9.689047  7.167054
  8  4.551112-10.875570  6.970290
  7  5.255183 -9.269055  8.459450
  6  5.536710-10.231422  9.335762
  6  5.792994-11.105869 10.132952
  6  6.079571-12.079859 11.023448
  6  6.336113-12.958811 11.822649
  6  6.636571-13.948132 12.759707
  6  6.653522-15.317020 12.644379
  6  7.016579-15.954396 13.881471
 16  7.221478-17.575684 14.385541
  6  7.659021-17.098556 16.011430
  6  7.648114-15.743092 16.160253
  6  7.277214-15.088382 14.933271
 16  7.078653-13.463639 14.427805
  6  5.518332 -7.892977  8.880837
  8  5.972628 -7.709350  9.991190
  6  5.193139 -6.895708  7.887334
  6  5.413493 -5.545554  8.206077
  6  5.124656 -4.550334  7.305702
  6  4.595342 -4.839590  6.023757
  6  4.289903 -3.794097  5.071469
  6  4.498621 -2.425385  5.357505
  6  4.203573 -1.435695  4.439878
  6  3.683506 -1.757386  3.185024
  6  3.382004 -0.679582  2.233238
  8  3.572063  0.501685  2.503374
  6  3.456352 -3.109888  2.850261
  6  3.758510 -4.146305  3.794269
  6  4.359919 -6.206239  5.670331
  6  4.664294 -7.247978  6.618901
  1  1.119605  1.588754 -0.351060
  1  1.737861  1.533433  1.312547
  1  0.540717  0.343265  0.761446
  1  2.164120 -0.568693 -0.864711
  1  4.212476  1.356694  0.334520
  1  3.532183  1.417884 -1.304523
  1  4.554986  0.057817 -0.826895
  1  2.302579 -5.000709  0.273841
  1  2.804172 -6.803497  1.854801
  1  3.209858 -8.205987  3.127716
  1  3.734390 -9.952490  4.754710
  1  6.417413-15.826293 11.722369
  1  7.891176-17.858767 16.739079
  1  7.887643-15.238025 17.084773
  1  5.817965 -5.311515  9.182725
  1  5.310031 -3.525821  7.593455
  1  4.899706 -2.128761  6.316239
  1  4.368436 -0.391121  4.671756
 nber atoms=          63
  Total Energy, E(TD-HF/TD-DFT) =  -2627.95718138                               
  
          32          49 "  -2627.95718138"
After scan for Atom:   Atom  AN      X      Y      Z        X      Y      Z        X      Y      Z   
After scan for Atom:   Atom  AN      X      Y      Z        X      Y      Z        X      Y      Z   
After scan for Atom:   Atom  AN      X      Y      Z        X      Y      Z        X      Y      Z   
After scan for Atom:   Atom  AN      X      Y      Z        X      Y      Z        X      Y      Z   
After scan for Atom:   Atom  AN      X      Y      Z        X      Y      Z        X      Y      Z   
After scan for Atom:   Atom  AN      X      Y      Z        X      Y      Z        X      Y      Z   
After scan for Atom:   Atom  AN      X      Y      Z        X      Y      Z        X      Y      Z   
After scan for Atom:   Atom  AN      X      Y      Z        X      Y      Z        X      Y      Z   
After scan for Atom:   Atom  AN      X      Y      Z        X      Y      Z        X      Y      Z   
After scan for Atom:   Atom  AN      X      Y      Z        X      Y      Z        X      Y      Z   
After scan for Atom:   Atom  AN      X      Y      Z        X      Y      Z        X      Y      Z   
After scan for Atom:   Atom  AN      X      Y      Z        X      Y      Z        X      Y      Z   
After scan for Atom:   Atom  AN      X      Y      Z        X      Y      Z        X      Y      Z   
After scan for Atom:   Atom  AN      X      Y      Z        X      Y      Z        X      Y      Z   
After scan for Atom:   Atom  AN      X      Y      Z        X      Y      Z        X      Y      Z   
After scan for Atom:   Atom  AN      X      Y      Z        X      Y      Z        X      Y      Z   
After scan for Atom:   Atom  AN      X      Y      Z        X      Y      Z        X      Y      Z   
After scan for Atom:   Atom  AN      X      Y      Z        X      Y      Z        X      Y      Z   
After scan for Atom:   Atom  AN      X      Y      Z        X      Y      Z        X      Y      Z   
After scan for Atom:   Atom  AN      X      Y      Z        X      Y      Z        X      Y      Z   
After scan for Atom:   Atom  AN      X      Y      Z        X      Y      Z        X      Y      Z   
After scan for Atom:   Atom  AN      X      Y      Z        X      Y      Z        X      Y      Z   
After scan for Atom:   Atom  AN      X      Y      Z        X      Y      Z        X      Y      Z   
After scan for Atom:   Atom  AN      X      Y      Z        X      Y      Z        X      Y      Z   
After scan for Atom:   Atom  AN      X      Y      Z        X      Y      Z        X      Y      Z   
After scan for Atom:   Atom  AN      X      Y      Z        X      Y      Z        X      Y      Z   
After scan for Atom:   Atom  AN      X      Y      Z        X      Y      Z        X      Y      Z   
After scan for Atom:   Atom  AN      X      Y      Z        X      Y      Z        X      Y      Z   
After scan for Atom:   Atom  AN      X      Y      Z        X      Y      Z        X      Y      Z   
After scan for Atom:   Atom  AN      X      Y      Z        X      Y      Z        X      Y      Z   
After scan for Atom:   Atom  AN      X      Y      Z        X      Y      Z        X      Y      Z   
After scan for Atom:   Atom  AN      X      Y      Z        X      Y      Z        X      Y      Z   
After scan for Atom:   Atom  AN      X      Y      Z        X      Y      Z        X      Y      Z   
After scan for Atom:   Atom  AN      X      Y      Z        X      Y      Z        X      Y      Z   
After scan for Atom:   Atom  AN      X      Y      Z        X      Y      Z        X      Y      Z   
After scan for Atom:   Atom  AN      X      Y      Z        X      Y      Z        X      Y      Z   
After scan for Atom:   Atom  AN      X      Y      Z        X      Y      Z        X      Y      Z   
After scan for Atom:   Atom  AN      X      Y      Z        X      Y      Z        X      Y      Z   
After scan for Atom:   Atom  AN      X      Y      Z        X      Y      Z        X      Y      Z   
After scan for Atom:   Atom  AN      X      Y      Z        X      Y      Z        X      Y      Z   
After scan for Atom:   Atom  AN      X      Y      Z        X      Y      Z        X      Y      Z   
After scan for Atom:   Atom  AN      X      Y      Z        X      Y      Z        X      Y      Z   
After scan for Atom:   Atom  AN      X      Y      Z        X      Y      Z        X      Y      Z   
After scan for Atom:   Atom  AN      X      Y      Z        X      Y      Z        X      Y      Z   
After scan for Atom:   Atom  AN      X      Y      Z        X      Y      Z        X      Y      Z   
After scan for Atom:   Atom  AN      X      Y      Z        X      Y      Z        X      Y      Z   
After scan for Atom:   Atom  AN      X      Y      Z        X      Y      Z        X      Y      Z   
After scan for Atom:   Atom  AN      X      Y      Z        X      Y      Z        X      Y      Z   
After scan for Atom:   Atom  AN      X      Y      Z        X      Y      Z        X      Y      Z   
After scan for Atom:   Atom  AN      X      Y      Z        X      Y      Z        X      Y      Z   
After scan for Atom:   Atom  AN      X      Y      Z        X      Y      Z        X      Y      Z   
After scan for Atom:   Atom  AN      X      Y      Z        X      Y      Z        X      Y      Z   
After scan for Atom:   Atom  AN      X      Y      Z        X      Y      Z        X      Y      Z   
After scan for Atom:   Atom  AN      X      Y      Z        X      Y      Z        X      Y      Z   
After scan for Atom:   Atom  AN      X      Y      Z        X      Y      Z        X      Y      Z   
After scan for Atom:   Atom  AN      X      Y      Z        X      Y      Z        X      Y      Z   
After scan for Atom:   Atom  AN      X      Y      Z        X      Y      Z        X      Y      Z   
After scan for Atom:   Atom  AN      X      Y      Z        X      Y      Z        X      Y      Z   
After scan for Atom:   Atom  AN      X      Y      Z        X      Y      Z        X      Y      Z   
After scan for Atom:   Atom  AN      X      Y      Z        X      Y      Z        X      Y      Z   
After scan for Atom:   Atom  AN      X      Y      Z        X      Y      Z        X      Y      Z   
 g94    frequencies=
     0.0    0.0    0.0    0.0    0.0    0.0   -8.6    8.5    8.9   22.9
    24.1   36.4   47.9   56.3   60.6   79.5   89.0   90.9  105.5  111.6
   116.8  144.1  166.2  170.1  177.7  188.7  195.6  205.8  212.0  222.6
   234.6  235.5  243.9  261.4  275.2  281.7  293.9  297.4  319.1  343.3
   357.8  378.5  391.9  397.3  417.1  418.2  434.8  440.4  440.8  442.0
   453.8  456.2  464.6  467.1  478.1  492.8  496.0  499.2  503.6  516.4
   522.2  522.8  547.9  578.9  582.0  589.1  589.8  593.0  594.7  623.6
   624.8  625.4  655.8  661.1  666.3  701.3  706.1  716.3  721.3  729.3
   748.2  754.5  757.1  768.4  780.2  785.8  803.9  809.0  814.7  818.2
   824.2  828.2  828.7  830.9  841.3  844.2  855.4  900.3  901.7  921.4
   943.0  943.7  955.4  968.2  971.5  974.9  975.1  984.0  987.2 1011.1
  1042.3 1068.8 1090.2 1101.3 1112.2 1146.1 1155.2 1160.3 1163.4 1173.6
  1174.6 1188.1 1199.1 1202.8 1208.4 1226.9 1235.8 1246.3 1259.8 1280.2
  1293.9 1296.9 1314.6 1326.1 1343.0 1357.7 1361.4 1370.0 1384.2 1390.1
  1392.7 1397.6 1404.0 1410.6 1423.5 1435.8 1441.9 1459.1 1468.0 1475.9
  1482.9 1484.0 1495.7 1499.0 1507.0 1523.7 1534.6 1559.0 1571.5 1574.3
  1579.0 1589.3 1612.7 1619.6 1630.9 1679.9 1716.4 1742.6 1772.0 2268.7
  2338.0 3028.1 3032.9 3085.4 3088.5 3108.3 3131.3 3140.9 3191.0 3191.2
  3196.6 3196.9 3207.2 3207.5 3222.2 3222.4 3234.9 3244.7 3268.7
 g94    symmetries=
                                                 A      A      A      A
       A      A      A      A      A      A      A      A      A      A
       A      A      A      A      A      A      A      A      A      A
       A      A      A      A      A      A      A      A      A      A
       A      A      A      A      A      A      A      A      A      A
       A      A      A      A      A      A      A      A      A      A
       A      A      A      A      A      A      A      A      A      A
       A      A      A      A      A      A      A      A      A      A
       A      A      A      A      A      A      A      A      A      A
       A      A      A      A      A      A      A      A      A      A
       A      A      A      A      A      A      A      A      A      A
       A      A      A      A      A      A      A      A      A      A
       A      A      A      A      A      A      A      A      A      A
       A      A      A      A      A      A      A      A      A      A
       A      A      A      A      A      A      A      A      A      A
       A      A      A      A      A      A      A      A      A      A
       A      A      A      A      A      A      A      A      A      A
       A      A      A      A      A      A      A      A      A      A
       A      A      A      A      A      A      A      A      A
 atomic masses:
 12.0000 12.0000 12.0000 14.0031 12.0000 15.9949 12.0000 12.0000 12.0000 12.0000
 12.0000 12.0000 12.0000 12.0000 12.0000 15.9949 14.0031 12.0000 12.0000 12.0000
 12.0000 12.0000 12.0000 12.0000 31.9721 12.0000 12.0000 12.0000 31.9721 12.0000
 15.9949 12.0000 12.0000 12.0000 12.0000 12.0000 12.0000 12.0000 12.0000 12.0000
 15.9949 12.0000 12.0000 12.0000 12.0000  1.0078  1.0078  1.0078  1.0078  1.0078
  1.0078  1.0078  1.0078  1.0078  1.0078  1.0078  1.0078  1.0078  1.0078  1.0078
  1.0078  1.0078  1.0078
 looking for force constants in 
 ./TT-PDI_5_C0S3.fchk                                                           
  
 Cartesian Force Constants                  R   N=       17955                  
  
 n3=         189       17955
 g94-fc frequencies=
    -9.8   -2.6   -0.4   -0.0    0.0    0.0    2.5    8.5    9.0   22.9
    24.1   36.4   47.9   56.3   60.6   79.5   89.0   90.9  105.5  111.6
   116.8  144.1  166.2  170.1  177.7  188.7  195.6  205.8  212.0  222.6
   234.6  235.5  243.9  261.4  275.2  281.7  294.0  297.4  319.1  343.4
   357.8  378.5  391.9  397.3  417.1  418.2  434.8  440.4  440.8  442.0
   453.8  456.2  464.6  467.1  478.2  492.8  496.0  499.2  503.6  516.4
   522.2  522.8  547.9  578.9  582.0  589.1  589.8  593.0  594.7  623.6
   624.8  625.4  655.8  661.2  666.4  701.3  706.1  716.4  721.3  729.3
   748.2  754.6  757.2  768.4  780.2  785.8  804.0  809.0  814.7  818.2
   824.3  828.3  828.7  830.9  841.3  844.2  855.4  900.3  901.7  921.4
   943.0  943.7  955.5  968.3  971.5  974.9  975.1  984.0  987.2 1011.1
  1042.4 1068.8 1090.2 1101.3 1112.2 1146.1 1155.3 1160.3 1163.5 1173.6
  1174.6 1188.1 1199.1 1202.8 1208.5 1226.9 1235.9 1246.3 1259.8 1280.2
  1293.9 1296.9 1314.6 1326.1 1343.1 1357.7 1361.4 1370.0 1384.2 1390.1
  1392.7 1397.7 1404.0 1410.6 1423.6 1435.8 1441.9 1459.1 1468.0 1475.9
  1483.0 1484.0 1495.7 1499.0 1507.0 1523.8 1534.6 1559.1 1571.5 1574.3
  1579.0 1589.4 1612.7 1619.6 1630.9 1680.0 1716.5 1742.6 1772.0 2268.7
  2338.0 3028.2 3033.0 3085.4 3088.6 3108.3 3131.4 3141.0 3191.0 3191.2
  3196.7 3196.9 3207.3 3207.6 3222.3 3222.5 3235.0 3244.8 3268.7
 at 99999: n3=         189
 symm operator            1 :  F  nop=           0
 symm operator            2 :  F  nop=           0
 symm operator            3 :  F  nop=           0
 symm operator            4 :  F  nop=           0
 symm operator            5 :  F  nop=           0
 symm operator            6 :  F  nop=           0
 symm operator            7 :  F  nop=           0
 The point group of the molecule is  C1
 Symmetry rotation matrix:
   1.00000   0.00000   0.00000
   0.00000   1.00000   0.00000
   0.00000   0.00000   1.00000

 Projecting out zero-frequency components
 generating redundant internal coords
         300        3600          63
 search for int coords
   1 str   2   1   1.533
   2 str   3   2   1.533
   3 str   4   2   1.491
   4 str   5   4   1.413
   5 str   6   5   1.225
   6 str   7   5   1.468
   7 str   8   7   1.396
   8 str   9   8   1.381
   9 str  10   9   1.414
  10 str  11  10   1.447
  11 str  12  11   1.417
  12 str  13  12   1.373
  13 str  14  13   1.405
  14 str  15  14   1.445
  15 str  16  15   1.213
  16 str  17  15   1.463
  17 str  18  17   1.332
  18 str  19  18   1.211
  19 str  20  19   1.350
  20 str  21  20   1.215
  21 str  22  21   1.395
  22 str  23  22   1.374
  23 str  24  23   1.438
  24 str  25  24   1.710
  25 str  26  25   1.750
  26 str  27  26   1.364
  27 str  28  24   1.387
  28 str  28  25   2.548
  29 str  28  27   1.439
  30 str  29  22   1.792
  31 str  29  28   1.713
  32 str  30  17   1.463
  33 str  31  30   1.214
  34 str  32  30   1.445
  35 str  33  32   1.405
  36 str  34  33   1.373
  37 str  35  34   1.417
  38 str  36  35   1.447
  39 str  37  36   1.414
  40 str  38  37   1.382
  41 str  39  38   1.396
  42 str  40   4   1.405
  43 str  40  39   1.469
  44 str  41  40   1.227
  45 str  42   7   1.412
  46 str  42  39   1.412
  47 str  43  10   1.427
  48 str  43  36   1.427
  49 str  43  42   1.434
  50 str  44  11   1.431
  51 str  44  35   1.431
  52 str  45  14   1.419
  53 str  45  32   1.419
  54 str  45  44   1.441
  55 str  46   1   1.094
  56 str  47   1   1.089
  57 str  48   1   1.093
  58 str  49   2   1.088
  59 str  50   3   1.089
  60 str  51   3   1.094
  61 str  52   3   1.093
  62 str  53   8   1.083
  63 str  54   9   1.081
  64 str  55  12   1.080
  65 str  56  13   1.083
  66 str  57  23   1.079
  67 str  58  26   1.078
  68 str  59  27   1.080
  69 str  60  33   1.083
  70 str  61  34   1.080
  71 str  62  37   1.081
  72 str  63  38   1.083
 nber stretches=          72
  73 ben   1   2   3
  74 prop tor   1   2   3  50
  75 prop tor   1   2   3  51
  76 prop tor   1   2   3  52
  77 ben   1   2   4
  78 prop tor   1   2   4   5
  79 prop tor   1   2   4  40
  80 ben   1   2  49
  81 ben   2   1  46
  82 ben   2   1  47
  83 ben   2   1  48
  84 ben   2   3  50
  85 ben   2   3  51
  86 ben   2   3  52
  87 ben   2   4   5
  88 prop tor   2   4   5   6
  89 prop tor   2   4   5   7
  90 ben   2   4  40
  91 prop tor   2   4  40  39
  92 prop tor   2   4  40  41
  93 ben   3   2   4
  94 prop tor   3   2   4   5
  95 prop tor   3   2   4  40
  96 ben   3   2  49
  97 prop tor   4   2   3  50
  98 prop tor   4   2   3  51
  99 prop tor   4   2   3  52
 100 ben   4   2  49
 101 ben   4   5   6
 102 ben   4   5   7
 103 prop tor   4   5   7   8
 104 prop tor   4   5   7  42
 105 ben   4  40  39
 106 ben   4  40  41
 107 ben   5   4  40
 108 prop tor   5   4  40  39
 109 prop tor   5   4  40  41
 110 ben   5   7   8
 111 prop tor   5   7   8   9
 112 prop tor   5   7   8  53
 113 ben   5   7  42
 114 prop tor   5   7  42  39
 115 prop tor   5   7  42  43
 116 ben   6   5   7
 117 prop tor   6   5   7   8
 118 prop tor   6   5   7  42
 119 ben   7   8   9
 120 prop tor   7   8   9  10
 121 prop tor   7   8   9  54
 122 ben   7   8  53
 123 ben   7  42  39
 124 ben   7  42  43
 125 prop tor   7  42  43  10
 126 prop tor   7  42  43  36
 127 ben   8   7  42
 128 prop tor   8   7  42  39
 129 prop tor   8   7  42  43
 130 ben   8   9  10
 131 prop tor   8   9  10  11
 132 prop tor   8   9  10  43
 133 ben   8   9  54
 134 ben   9   8  53
 135 ben   9  10  11
 136 prop tor   9  10  11  12
 137 prop tor   9  10  11  44
 138 ben   9  10  43
 139 prop tor   9  10  43  36
 140 prop tor   9  10  43  42
 141 ben  10   9  54
 142 ben  10  11  12
 143 prop tor  10  11  12  13
 144 prop tor  10  11  12  55
 145 ben  10  11  44
 146 prop tor  10  11  44  35
 147 prop tor  10  11  44  45
 148 ben  10  43  36
 149 ben  10  43  42
 150 ben  11  10  43
 151 prop tor  11  10  43  36
 152 prop tor  11  10  43  42
 153 ben  11  12  13
 154 prop tor  11  12  13  14
 155 prop tor  11  12  13  56
 156 ben  11  12  55
 157 ben  11  44  35
 158 ben  11  44  45
 159 prop tor  11  44  45  14
 160 prop tor  11  44  45  32
 161 ben  12  11  44
 162 prop tor  12  11  44  35
 163 prop tor  12  11  44  45
 164 ben  12  13  14
 165 prop tor  12  13  14  15
 166 prop tor  12  13  14  45
 167 ben  12  13  56
 168 ben  13  12  55
 169 ben  13  14  15
 170 prop tor  13  14  15  16
 171 prop tor  13  14  15  17
 172 ben  13  14  45
 173 prop tor  13  14  45  32
 174 prop tor  13  14  45  44
 175 ben  14  13  56
 176 ben  14  15  16
 177 ben  14  15  17
 178 prop tor  14  15  17  18
 179 prop tor  14  15  17  30
 180 ben  14  45  32
 181 ben  14  45  44
 182 ben  15  14  45
 183 prop tor  15  14  45  32
 184 prop tor  15  14  45  44
 185 ben  15  17  18
 186 prop tor  15  17  18  19
 187 ben  15  17  30
 188 prop tor  15  17  30  31
 189 prop tor  15  17  30  32
 190 ben  16  15  17
 191 prop tor  16  15  17  18
 192 prop tor  16  15  17  30
 193 lin ben  17  18  19
 195 ben  17  30  31
 196 ben  17  30  32
 197 prop tor  17  30  32  33
 198 prop tor  17  30  32  45
 199 ben  18  17  30
 200 prop tor  18  17  30  31
 201 prop tor  18  17  30  32
 Extend lin bond           1          17          18          20
 202 lin ben  18  19  20
 204 lin ben  19  20  21
 Extend lin bond           2          19          20          22
 206 lin ben  20  21  22
 208 ben  21  22  23
 209 prop tor  21  22  23  24
 210 prop tor  21  22  23  57
 211 ben  21  22  29
 212 prop tor  21  22  29  28
 213 ben  22  23  24
 214 prop tor  22  23  24  25
 215 prop tor  22  23  24  28
 216 ben  22  23  57
 217 ben  22  29  28
 218 ben  23  22  29
 219 prop tor  23  22  29  28
 220 ben  23  24  25
 221 prop tor  23  24  25  26
 222 prop tor  23  24  25  28
 223 ben  23  24  28
 224 prop tor  23  24  28  25
 225 prop tor  23  24  28  27
 226 prop tor  23  24  28  29
 227 ben  24  23  57
 228 ben  24  25  26
 229 prop tor  24  25  26  27
 230 prop tor  24  25  26  58
 231 ben  24  25  28
 232 prop tor  24  25  28  27
 233 prop tor  24  25  28  29
 234 ben  24  28  25
 235 ben  24  28  27
 236 ben  24  28  29
 237 prop tor  24  28  29  22
 238 ben  25  24  28
 239 prop tor  25  24  28  27
 240 prop tor  25  24  28  29
 241 ben  25  26  27
 242 prop tor  25  26  27  28
 243 prop tor  25  26  27  59
 244 ben  25  26  58
 245 ben  25  28  27
 246 ben  25  28  29
 247 prop tor  25  28  29  22
 248 ben  26  25  28
[...]
 302 ben  35  44  45
 303 prop tor  35  44  45  14
 304 prop tor  35  44  45  32
 305 ben  36  35  44
 306 prop tor  36  35  44  11
 307 prop tor  36  35  44  45
 308 ben  36  37  38
 309 prop tor  36  37  38  39
 310 prop tor  36  37  38  63
 311 ben  36  37  62
 312 ben  36  43  42
 313 ben  37  36  43
 314 prop tor  37  36  43  10
 315 prop tor  37  36  43  42
 316 ben  37  38  39
 317 prop tor  37  38  39  40
 318 prop tor  37  38  39  42
 319 ben  37  38  63
 320 ben  38  37  62
 321 ben  38  39  40
 322 prop tor  38  39  40   4
 323 prop tor  38  39  40  41
 324 ben  38  39  42
 325 prop tor  38  39  42   7
 326 prop tor  38  39  42  43
 327 ben  39  38  63
 328 ben  39  40  41
 329 ben  39  42  43
 330 prop tor  39  42  43  10
 331 prop tor  39  42  43  36
 332 prop tor  40   4   5   6
 333 prop tor  40   4   5   7
 334 ben  40  39  42
 335 prop tor  40  39  42   7
 336 prop tor  40  39  42  43
 337 prop tor  42   7   8   9
 338 prop tor  42   7   8  53
 339 prop tor  42  39  40   4
 340 prop tor  42  39  40  41
 341 prop tor  43  10  11  12
 342 prop tor  43  10  11  44
 343 prop tor  43  36  37  38
 344 prop tor  43  36  37  62
 345 prop tor  44  11  12  13
 346 prop tor  44  11  12  55
 347 prop tor  44  35  36  37
 348 prop tor  44  35  36  43
 349 prop tor  45  14  15  16
 350 prop tor  45  14  15  17
 351 prop tor  45  32  33  34
 352 prop tor  45  32  33  60
 353 prop tor  46   1   2   3
 354 prop tor  46   1   2   4
 355 prop tor  46   1   2  49
 356 ben  46   1  47
 357 ben  46   1  48
 358 prop tor  47   1   2   3
 359 prop tor  47   1   2   4
 360 prop tor  47   1   2  49
 361 ben  47   1  48
 362 prop tor  48   1   2   3
 363 prop tor  48   1   2   4
 364 prop tor  48   1   2  49
 365 prop tor  49   2   3  50
 366 prop tor  49   2   3  51
 367 prop tor  49   2   3  52
 368 prop tor  49   2   4   5
 369 prop tor  49   2   4  40
 370 ben  50   3  51
 371 ben  50   3  52
 372 ben  51   3  52
 373 prop tor  53   8   9  10
 374 prop tor  53   8   9  54
 375 prop tor  54   9  10  11
 376 prop tor  54   9  10  43
 377 prop tor  55  12  13  14
 378 prop tor  55  12  13  56
 379 prop tor  56  13  14  15
 380 prop tor  56  13  14  45
 381 prop tor  57  23  24  25
 382 prop tor  57  23  24  28
 383 prop tor  58  26  27  28
 384 prop tor  58  26  27  59
 385 prop tor  59  27  28  24
 386 prop tor  59  27  28  25
 387 prop tor  59  27  28  29
 388 prop tor  60  33  34  35
 389 prop tor  60  33  34  61
 390 prop tor  61  34  35  36
 391 prop tor  61  34  35  44
 392 prop tor  62  37  38  39
 393 prop tor  62  37  38  63
 394 prop tor  63  38  39  40
 395 prop tor  63  38  39  42
 396 lin bend prop tor  15  17  20  19
 397 lin bend prop tor  15  17  20  21
 398 lin bend prop tor  18  17  20  19
 399 lin bend prop tor  18  17  20  21
 400 lin bend prop tor  30  17  20  19
 401 lin bend prop tor  30  17  20  21
 402 lin bend prop tor  18  19  22  21
 403 lin bend prop tor  18  19  22  23
 404 lin bend prop tor  18  19  22  29
 405 lin bend prop tor  20  19  22  21
 406 lin bend prop tor  20  19  22  23
 407 lin bend prop tor  20  19  22  29
 nber bend=             129
 nber lin bend=           2
 nber prop tor=         206
 nber impr tor=           0
 nber tot redund int=         407
 Eigenvalues of G in red int coords
    Gval -0.00000000 -0.00000000 -0.00000000 -0.00000000 -0.00000000 -0.00000000 -0.00000000 -0.00000000
    Gval -0.00000000 -0.00000000 -0.00000000 -0.00000000 -0.00000000 -0.00000000 -0.00000000 -0.00000000
    Gval -0.00000000 -0.00000000 -0.00000000 -0.00000000 -0.00000000 -0.00000000 -0.00000000 -0.00000000
    Gval -0.00000000 -0.00000000 -0.00000000 -0.00000000 -0.00000000 -0.00000000 -0.00000000 -0.00000000
    Gval -0.00000000 -0.00000000 -0.00000000 -0.00000000 -0.00000000 -0.00000000 -0.00000000 -0.00000000
    Gval -0.00000000 -0.00000000 -0.00000000 -0.00000000 -0.00000000 -0.00000000 -0.00000000 -0.00000000
    Gval -0.00000000 -0.00000000 -0.00000000 -0.00000000 -0.00000000 -0.00000000 -0.00000000 -0.00000000
    Gval -0.00000000 -0.00000000 -0.00000000 -0.00000000 -0.00000000 -0.00000000 -0.00000000 -0.00000000
    Gval -0.00000000 -0.00000000 -0.00000000 -0.00000000 -0.00000000 -0.00000000 -0.00000000 -0.00000000
    Gval -0.00000000 -0.00000000 -0.00000000 -0.00000000 -0.00000000 -0.00000000 -0.00000000 -0.00000000
    Gval -0.00000000 -0.00000000 -0.00000000 -0.00000000 -0.00000000 -0.00000000 -0.00000000 -0.00000000
    Gval -0.00000000 -0.00000000 -0.00000000 -0.00000000 -0.00000000 -0.00000000 -0.00000000 -0.00000000
    Gval -0.00000000 -0.00000000 -0.00000000 -0.00000000 -0.00000000 -0.00000000 -0.00000000 -0.00000000
    Gval -0.00000000 -0.00000000 -0.00000000 -0.00000000 -0.00000000 -0.00000000 -0.00000000 -0.00000000
    Gval  0.00000000  0.00000000  0.00000000  0.00000000  0.00000000  0.00000000  0.00000000  0.00000000
    Gval  0.00000000  0.00000000  0.00000000  0.00000000  0.00000000  0.00000000  0.00000000  0.00000000
    Gval  0.00000000  0.00000000  0.00000000  0.00000000  0.00000000  0.00000000  0.00000000  0.00000000
    Gval  0.00000000  0.00000000  0.00000000  0.00000000  0.00000000  0.00000000  0.00000000  0.00000000
    Gval  0.00000000  0.00000000  0.00000000  0.00000000  0.00000000  0.00000000  0.00000000  0.00000000
    Gval  0.00000000  0.00000000  0.00000000  0.00000000  0.00000000  0.00000000  0.00000000  0.00000000
    Gval  0.00000000  0.00000000  0.00000000  0.00000000  0.00000000  0.00000000  0.00000000  0.00000000
    Gval  0.00000000  0.00000000  0.00000000  0.00000000  0.00000000  0.00000000  0.00000000  0.00000000
    Gval  0.00000000  0.00000000  0.00000000  0.00000000  0.00000000  0.00000000  0.00000000  0.00000000
    Gval  0.00000000  0.00000000  0.00000000  0.00000000  0.00000000  0.00000000  0.00000000  0.00000000
    Gval  0.00000000  0.00000000  0.00000000  0.00000000  0.00000000  0.00000000  0.00000000  0.00000000
    Gval  0.00000000  0.00000000  0.00000000  0.00000000  0.00000000  0.00000000  0.00000000  0.00000000
    Gval  0.00000000  0.00000000  0.00000000  0.00000000  0.00000000  0.00000000  0.00000000  0.00000000
    Gval  0.00000000  0.00000000  0.00000000  0.00000000  0.00000000  0.00000000  0.00000000  0.00000000
    Gval  0.00000000  0.00000015  0.00000050  0.00000070  0.00000110  0.00000255  0.00000327  0.00000479
    Gval  0.00000613  0.00000865  0.00001099  0.00001103  0.00001188  0.00001222  0.00001594  0.00001629
    Gval  0.00001684  0.00001782  0.00001830  0.00001885  0.00002141  0.00002203  0.00002355  0.00002479
    Gval  0.00002498  0.00002538  0.00002989  0.00003321  0.00003576  0.00003995  0.00003997  0.00004444
    Gval  0.00004890  0.00004903  0.00005112  0.00005278  0.00005450  0.00005493  0.00005926  0.00006242
    Gval  0.00006372  0.00006589  0.00006907  0.00007082  0.00007505  0.00007675  0.00008148  0.00008242
    Gval  0.00008605  0.00008661  0.00008982  0.00009318  0.00009476  0.00010086  0.00010736  0.00011780
    Gval  0.00012229  0.00012278  0.00012995  0.00013625  0.00013723  0.00014059  0.00014374  0.00014949
    Gval  0.00015865  0.00016029  0.00016403  0.00016769  0.00017287  0.00018209  0.00018297  0.00020113
    Gval  0.00020362  0.00021113  0.00022211  0.00022762  0.00023144  0.00023467  0.00026959  0.00027246
    Gval  0.00028602  0.00028823  0.00029873  0.00034343  0.00034590  0.00036069  0.00036485  0.00038281
    Gval  0.00038727  0.00039045  0.00039267  0.00039806  0.00041795  0.00041798  0.00043027  0.00043344
    Gval  0.00043557  0.00044059  0.00044192  0.00044352  0.00046329  0.00046513  0.00046882  0.00049304
    Gval  0.00051873  0.00053292  0.00053557  0.00053732  0.00055357  0.00055544  0.00055592  0.00055928
    Gval  0.00059829  0.00059852  0.00059925  0.00059958  0.00059986  0.00060222  0.00060541  0.00062313
    Gval  0.00063056  0.00064141  0.00064492  0.00064570  0.00064750  0.00066849  0.00069212  0.00069682
    Gval  0.00078127  0.00080723  0.00089808  0.00098522  0.00106648  0.00108749  0.00109349  0.00109445
    Gval  0.00109508  0.00109566  0.00111671  0.00114584  0.00114674  0.00116449  0.00116499  0.00116603
    Gval  0.00116654  0.00116803  0.00116857  0.00119137  0.00121090  0.00129158  0.00130083  0.00149279
    Gval  0.00150200  0.00172299  0.00174358  0.00190897  0.00206154  0.00227599  0.00233995  0.00251936
    Gval  0.00252096  0.00255671  0.00277764  0.00292509  0.00295876  0.00302187  0.00304265  0.00308324
    Gval  0.00309089  0.00356978  0.00366384  0.00366550  0.00371162  0.00371315  0.00393103  0.00488001
    Gval  0.01360779  0.06164724  0.46511160  0.81700406 57.40679666 84.86541825924.15961682
  1.544872380536689E-007  1.544872380536689E-007
  4.968895822427896E-007  1.544872380536689E-007
  6.955505311337975E-007  1.544872380536689E-007
  1.100096795854501E-006  1.544872380536689E-007
  2.549467797482717E-006  1.544872380536689E-007
  3.274542292251626E-006  1.544872380536689E-007
  4.788925022344853E-006  1.544872380536689E-007
  6.128462516169819E-006  1.544872380536689E-007
  8.650884608288793E-006  1.544872380536689E-007
  1.098631187458472E-005  1.544872380536689E-007
  1.102575767551453E-005  1.544872380536689E-007
  1.187548449275012E-005  1.544872380536689E-007
  1.221961841937157E-005  1.544872380536689E-007
  1.594348821276095E-005  1.544872380536689E-007
  1.629094313532869E-005  1.544872380536689E-007
  1.683602779366671E-005  1.544872380536689E-007
  1.782403127640737E-005  1.544872380536689E-007
  1.829864906221916E-005  1.544872380536689E-007
  1.884803221075056E-005  1.544872380536689E-007
  2.141047448505360E-005  1.544872380536689E-007
  2.203470734235507E-005  1.544872380536689E-007
  2.354853176192599E-005  1.544872380536689E-007
  2.479275592649976E-005  1.544872380536689E-007
  2.498122790670240E-005  1.544872380536689E-007
  2.538234614292954E-005  1.544872380536689E-007
  2.989282553839312E-005  1.544872380536689E-007
  3.321332724568156E-005  1.544872380536689E-007
  3.575782522929366E-005  1.544872380536689E-007
  3.994878614428351E-005  1.544872380536689E-007
  3.996750623218211E-005  1.544872380536689E-007
  4.443758372443946E-005  1.544872380536689E-007
  4.890311108906339E-005  1.544872380536689E-007
  4.903067441317146E-005  1.544872380536689E-007
  5.111579308351624E-005  1.544872380536689E-007
  5.278064957733391E-005  1.544872380536689E-007
  5.450236914280367E-005  1.544872380536689E-007
  5.492669349890471E-005  1.544872380536689E-007
  5.926074318707431E-005  1.544872380536689E-007
  6.241999768297004E-005  1.544872380536689E-007
  6.371639938292116E-005  1.544872380536689E-007
  6.589263527904310E-005  1.544872380536689E-007
  6.906518378562827E-005  1.544872380536689E-007
  7.081559860343674E-005  1.544872380536689E-007
  7.505268957130401E-005  1.544872380536689E-007
  7.675291805031365E-005  1.544872380536689E-007
  8.147705762294430E-005  1.544872380536689E-007
  8.241529377085067E-005  1.544872380536689E-007
  8.605321496189802E-005  1.544872380536689E-007
  8.660647862797101E-005  1.544872380536689E-007
  8.981544207629611E-005  1.544872380536689E-007
  9.318007750820831E-005  1.544872380536689E-007
  9.476150206263705E-005  1.544872380536689E-007
  1.008593419907754E-004  1.544872380536689E-007
  1.073597888449008E-004  1.544872380536689E-007
  1.178017402673668E-004  1.544872380536689E-007
  1.222932790516832E-004  1.544872380536689E-007
  1.227783283527738E-004  1.544872380536689E-007
  1.299520832458577E-004  1.544872380536689E-007
  1.362482172845054E-004  1.544872380536689E-007
  1.372302458282886E-004  1.544872380536689E-007
  1.405904659086685E-004  1.544872380536689E-007
  1.437422401059188E-004  1.544872380536689E-007
  1.494919074529069E-004  1.544872380536689E-007
  1.586548692094967E-004  1.544872380536689E-007
  1.602868032943910E-004  1.544872380536689E-007
  1.640253826885843E-004  1.544872380536689E-007
  1.676918906157834E-004  1.544872380536689E-007
  1.728735370650948E-004  1.544872380536689E-007
  1.820933724385415E-004  1.544872380536689E-007
  1.829728104857482E-004  1.544872380536689E-007
  2.011279783207438E-004  1.544872380536689E-007
  2.036182198333112E-004  1.544872380536689E-007
  2.111267433019919E-004  1.544872380536689E-007
  2.221063824680959E-004  1.544872380536689E-007
  2.276202126581431E-004  1.544872380536689E-007
  2.314385635571499E-004  1.544872380536689E-007
  2.346706567532135E-004  1.544872380536689E-007
  2.695860290675008E-004  1.544872380536689E-007
  2.724583817079340E-004  1.544872380536689E-007
  2.860179871055199E-004  1.544872380536689E-007
  2.882283850276004E-004  1.544872380536689E-007
  2.987328038323557E-004  1.544872380536689E-007
  3.434267608395719E-004  1.544872380536689E-007
  3.458971933466087E-004  1.544872380536689E-007
  3.606939352447399E-004  1.544872380536689E-007
  3.648467123600471E-004  1.544872380536689E-007
  3.828091727305952E-004  1.544872380536689E-007
  3.872657355660913E-004  1.544872380536689E-007
  3.904453270481172E-004  1.544872380536689E-007
  3.926661146759595E-004  1.544872380536689E-007
  3.980632084761421E-004  1.544872380536689E-007
  4.179539054457596E-004  1.544872380536689E-007
  4.179845541384915E-004  1.544872380536689E-007
  4.302733674050049E-004  1.544872380536689E-007
  4.334446293963290E-004  1.544872380536689E-007
  4.355721068829671E-004  1.544872380536689E-007
  4.405879380371186E-004  1.544872380536689E-007
  4.419157560718879E-004  1.544872380536689E-007
  4.435172208451706E-004  1.544872380536689E-007
  4.632885399252884E-004  1.544872380536689E-007
  4.651268631888508E-004  1.544872380536689E-007
  4.688198534028119E-004  1.544872380536689E-007
  4.930422179294597E-004  1.544872380536689E-007
  5.187317291481310E-004  1.544872380536689E-007
  5.329162988937926E-004  1.544872380536689E-007
  5.355709329773066E-004  1.544872380536689E-007
  5.373193768770787E-004  1.544872380536689E-007
  5.535660696963151E-004  1.544872380536689E-007
  5.554362420227136E-004  1.544872380536689E-007
  5.559161070244984E-004  1.544872380536689E-007
  5.592843017708693E-004  1.544872380536689E-007
  5.982903633016004E-004  1.544872380536689E-007
  5.985226585353429E-004  1.544872380536689E-007
  5.992510541084394E-004  1.544872380536689E-007
  5.995773257067281E-004  1.544872380536689E-007
  5.998606039138600E-004  1.544872380536689E-007
  6.022171275775817E-004  1.544872380536689E-007
  6.054112673035734E-004  1.544872380536689E-007
  6.231267491428616E-004  1.544872380536689E-007
  6.305613915510970E-004  1.544872380536689E-007
  6.414119295530598E-004  1.544872380536689E-007
  6.449230084801587E-004  1.544872380536689E-007
  6.457001546377639E-004  1.544872380536689E-007
  6.474989001766307E-004  1.544872380536689E-007
  6.684900227745278E-004  1.544872380536689E-007
  6.921151289558779E-004  1.544872380536689E-007
  6.968227031218384E-004  1.544872380536689E-007
  7.812713761656840E-004  1.544872380536689E-007
  8.072315384912462E-004  1.544872380536689E-007
  8.980833745326984E-004  1.544872380536689E-007
  9.852244738247935E-004  1.544872380536689E-007
  1.066477131371675E-003  1.544872380536689E-007
  1.087485554171928E-003  1.544872380536689E-007
  1.093487156805809E-003  1.544872380536689E-007
  1.094445171032640E-003  1.544872380536689E-007
  1.095084431678176E-003  1.544872380536689E-007
  1.095658833911529E-003  1.544872380536689E-007
  1.116708122212366E-003  1.544872380536689E-007
  1.145844505326492E-003  1.544872380536689E-007
  1.146737503618000E-003  1.544872380536689E-007
  1.164486605227718E-003  1.544872380536689E-007
  1.164991784817050E-003  1.544872380536689E-007
  1.166026098084443E-003  1.544872380536689E-007
  1.166538958129239E-003  1.544872380536689E-007
  1.168030785285245E-003  1.544872380536689E-007
  1.168568190137532E-003  1.544872380536689E-007
  1.191368472915125E-003  1.544872380536689E-007
  1.210898611188812E-003  1.544872380536689E-007
  1.291584043812360E-003  1.544872380536689E-007
  1.300829688025415E-003  1.544872380536689E-007
  1.492791394308381E-003  1.544872380536689E-007
  1.501998458246043E-003  1.544872380536689E-007
  1.722989124028959E-003  1.544872380536689E-007
  1.743581143087512E-003  1.544872380536689E-007
  1.908974433546991E-003  1.544872380536689E-007
  2.061539554629615E-003  1.544872380536689E-007
  2.275988049201848E-003  1.544872380536689E-007
  2.339948759636942E-003  1.544872380536689E-007
  2.519362167894962E-003  1.544872380536689E-007
  2.520959422145863E-003  1.544872380536689E-007
  2.556712422452050E-003  1.544872380536689E-007
  2.777644349956711E-003  1.544872380536689E-007
  2.925087168958839E-003  1.544872380536689E-007
  2.958755120713241E-003  1.544872380536689E-007
  3.021872526865293E-003  1.544872380536689E-007
  3.042647010860970E-003  1.544872380536689E-007
  3.083241409211668E-003  1.544872380536689E-007
  3.090891760070812E-003  1.544872380536689E-007
  3.569777130164311E-003  1.544872380536689E-007
  3.663837550263380E-003  1.544872380536689E-007
  3.665504376704714E-003  1.544872380536689E-007
  3.711615236166805E-003  1.544872380536689E-007
  3.713146386398029E-003  1.544872380536689E-007
  3.931034384351221E-003  1.544872380536689E-007
  4.880013669225152E-003  1.544872380536689E-007
  1.360779046958709E-002  1.544872380536689E-007
  6.164724286459531E-002  1.544872380536689E-007
  0.465111599181185       1.544872380536689E-007
  0.817004058387962       1.544872380536689E-007
   57.4067966607843       1.544872380536689E-007
   84.8654182520931       1.544872380536689E-007
   924.159616817723       1.544872380536689E-007
 cut=1d-8, nber non-redundant internal coords=         182
 Check on Eigenvals of non-red overlap matrix:
  0.00000015  0.00000050  0.00000070  0.00000110  0.00000255  0.00000327  0.00000479  0.00000613
  0.00000865  0.00001099  0.00001103  0.00001188  0.00001222  0.00001594  0.00001629  0.00001684
  0.00001782  0.00001830  0.00001885  0.00002141  0.00002203  0.00002355  0.00002479  0.00002498
  0.00002538  0.00002989  0.00003321  0.00003576  0.00003995  0.00003997  0.00004444  0.00004890
  0.00004903  0.00005112  0.00005278  0.00005450  0.00005493  0.00005926  0.00006242  0.00006372
  0.00006589  0.00006907  0.00007082  0.00007505  0.00007675  0.00008148  0.00008242  0.00008605
  0.00008661  0.00008982  0.00009318  0.00009476  0.00010086  0.00010736  0.00011780  0.00012229
  0.00012278  0.00012995  0.00013625  0.00013723  0.00014059  0.00014374  0.00014949  0.00015865
  0.00016029  0.00016403  0.00016769  0.00017287  0.00018209  0.00018297  0.00020113  0.00020362
  0.00021113  0.00022211  0.00022762  0.00023144  0.00023467  0.00026959  0.00027246  0.00028602
  0.00028823  0.00029873  0.00034343  0.00034590  0.00036069  0.00036485  0.00038281  0.00038727
  0.00039045  0.00039267  0.00039806  0.00041795  0.00041798  0.00043027  0.00043344  0.00043557
  0.00044059  0.00044192  0.00044352  0.00046329  0.00046513  0.00046882  0.00049304  0.00051873
  0.00053292  0.00053557  0.00053732  0.00055357  0.00055544  0.00055592  0.00055928  0.00059829
  0.00059852  0.00059925  0.00059958  0.00059986  0.00060222  0.00060541  0.00062313  0.00063056
  0.00064141  0.00064492  0.00064570  0.00064750  0.00066849  0.00069212  0.00069682  0.00078127
  0.00080723  0.00089808  0.00098522  0.00106648  0.00108749  0.00109349  0.00109445  0.00109508
  0.00109566  0.00111671  0.00114584  0.00114674  0.00116449  0.00116499  0.00116603  0.00116654
  0.00116803  0.00116857  0.00119137  0.00121090  0.00129158  0.00130083  0.00149279  0.00150200
  0.00172299  0.00174358  0.00190897  0.00206154  0.00227599  0.00233995  0.00251936  0.00252096
  0.00255671  0.00277764  0.00292509  0.00295876  0.00302187  0.00304265  0.00308324  0.00309089
  0.00356978  0.00366384  0.00366550  0.00371162  0.00371315  0.00393103  0.00488001  0.01360779
  0.06164724  0.46511160  0.81700406 57.40679666 84.86541825924.15961682
 int defn changed for coord          28
          28          27           0           0
          28          25           0           0
