 Enter ifcurve (0=recti, 1=orth curvi, 2=apprx curvi, -1 = skip
 And atom ordering flag, 0= never changes, 1= use the first order thenceforth,
  2= deduce it (does read on fail), 3= always read it
 Reading file: 
 ./Non-cov-phenyl-N_1_C0S0.log                                                  
                                          
  Entering Gaussian System, Link 0=g16                                          
  
 Gaussian format, type: g94, g98, g03= F F F
  #P Geom=AllCheck Guess=TCheck SCRF=Check GenChk RB3LYP/6-311G(d,p) Fre    
 energy type= B3LYP   
 Original G94 input coords:
  6  7.636843  0.000000  0.000000
  6  6.929384 -1.199243  0.000000
  6  5.538866 -1.197796  0.000000
  6  4.802642  0.000000  0.000000
  6  3.312820  0.000000  0.000000
  6  2.567080  1.189825  0.000000
  6  1.180328  1.190076  0.000000
  6  0.434469  0.000000  0.000000
  6 -1.052532  0.000000  0.000000
  6 -1.791865  1.197115  0.000000
  6 -3.178181  1.200727  0.000000
  6 -3.898268  0.000000  0.000000
  6 -5.378346  0.000000  0.000000
  7 -6.000708  1.191967  0.000000
  6 -7.331274  1.179603  0.000000
  6 -8.068642  0.000000  0.000000
  6 -7.331274 -1.179603  0.000000
  7 -6.000708 -1.191967  0.000000
  6 -3.178181 -1.200727  0.000000
  6 -1.791865 -1.197115  0.000000
  6  1.180328 -1.190076  0.000000
  6  2.567080 -1.189825  0.000000
  6  5.538866  1.197796  0.000000
  6  6.929384  1.199243  0.000000
  1  8.720677  0.000000  0.000000
  1  7.460943 -2.144358  0.000000
  1  5.029652 -2.152211  0.000000
  1  3.068115  2.148844  0.000000
  1  0.678980  2.148645  0.000000
  1 -1.284935  2.152775  0.000000
  1 -3.723480  2.135354  0.000000
  1 -7.822248  2.149614  0.000000
  1 -9.150977  0.000000  0.000000
  1 -7.822248 -2.149614  0.000000
  1 -3.723480 -2.135354  0.000000
  1 -1.284935 -2.152775  0.000000
  1  0.678980 -2.148645  0.000000
  1  3.068115 -2.148844  0.000000
  1  5.029652  2.152211  0.000000
  1  7.460943  2.144358  0.000000
 nber atoms=          40
 Original standard coords:
  6  0.000000  0.000000  7.907955
  6  0.000000  1.199243  7.200496
  6  0.000000  1.197796  5.809978
  6  0.000000  0.000000  5.073754
  6  0.000000  0.000000  3.583932
  6  0.000000 -1.189825  2.838192
  6  0.000000 -1.190076  1.451440
  6  0.000000  0.000000  0.705581
  6  0.000000  0.000000 -0.781419
  6  0.000000 -1.197115 -1.520753
  6  0.000000 -1.200727 -2.907069
  6  0.000000  0.000000 -3.627156
  6  0.000000  0.000000 -5.107234
  7  0.000000 -1.191967 -5.729596
  6  0.000000 -1.179603 -7.060162
  6  0.000000  0.000000 -7.797530
  6  0.000000  1.179603 -7.060162
  7  0.000000  1.191967 -5.729596
  6  0.000000  1.200727 -2.907069
  6  0.000000  1.197115 -1.520753
  6  0.000000  1.190076  1.451440
  6  0.000000  1.189825  2.838192
  6  0.000000 -1.197796  5.809978
  6  0.000000 -1.199243  7.200496
  1  0.000000  0.000000  8.991789
  1  0.000000  2.144358  7.732055
  1  0.000000  2.152211  5.300765
  1  0.000000 -2.148844  3.339227
  1  0.000000 -2.148645  0.950092
  1  0.000000 -2.152775 -1.013823
  1  0.000000 -2.135354 -3.452368
  1  0.000000 -2.149614 -7.551136
  1  0.000000  0.000000 -8.879864
  1  0.000000  2.149614 -7.551136
  1  0.000000  2.135354 -3.452368
  1  0.000000  2.152775 -1.013823
  1  0.000000  2.148645  0.950092
  1  0.000000  2.148844  3.339227
  1  0.000000 -2.152211  5.300765
  1  0.000000 -2.144358  7.732055
  SCF Done:  E(RB3LYP) =  -957.720291844     A.U. after    1 cycles             
  
          23          40 "  -957.720291844"
After scan for Atom:   Atom  AN      X      Y      Z        X      Y      Z        X      Y      Z   
After scan for Atom:   Atom  AN      X      Y      Z        X      Y      Z        X      Y      Z   
After scan for Atom:   Atom  AN      X      Y      Z        X      Y      Z        X      Y      Z   
After scan for Atom:   Atom  AN      X      Y      Z        X      Y      Z        X      Y      Z   
After scan for Atom:   Atom  AN      X      Y      Z        X      Y      Z        X      Y      Z   
After scan for Atom:   Atom  AN      X      Y      Z        X      Y      Z        X      Y      Z   
After scan for Atom:   Atom  AN      X      Y      Z        X      Y      Z        X      Y      Z   
After scan for Atom:   Atom  AN      X      Y      Z        X      Y      Z        X      Y      Z   
After scan for Atom:   Atom  AN      X      Y      Z        X      Y      Z        X      Y      Z   
After scan for Atom:   Atom  AN      X      Y      Z        X      Y      Z        X      Y      Z   
After scan for Atom:   Atom  AN      X      Y      Z        X      Y      Z        X      Y      Z   
After scan for Atom:   Atom  AN      X      Y      Z        X      Y      Z        X      Y      Z   
After scan for Atom:   Atom  AN      X      Y      Z        X      Y      Z        X      Y      Z   
After scan for Atom:   Atom  AN      X      Y      Z        X      Y      Z        X      Y      Z   
After scan for Atom:   Atom  AN      X      Y      Z        X      Y      Z        X      Y      Z   
After scan for Atom:   Atom  AN      X      Y      Z        X      Y      Z        X      Y      Z   
After scan for Atom:   Atom  AN      X      Y      Z        X      Y      Z        X      Y      Z   
After scan for Atom:   Atom  AN      X      Y      Z        X      Y      Z        X      Y      Z   
After scan for Atom:   Atom  AN      X      Y      Z        X      Y      Z        X      Y      Z   
After scan for Atom:   Atom  AN      X      Y      Z        X      Y      Z        X      Y      Z   
After scan for Atom:   Atom  AN      X      Y      Z        X      Y      Z        X      Y      Z   
After scan for Atom:   Atom  AN      X      Y      Z        X      Y      Z        X      Y      Z   
After scan for Atom:   Atom  AN      X      Y      Z        X      Y      Z        X      Y      Z   
After scan for Atom:   Atom  AN      X      Y      Z        X      Y      Z        X      Y      Z   
After scan for Atom:   Atom  AN      X      Y      Z        X      Y      Z        X      Y      Z   
After scan for Atom:   Atom  AN      X      Y      Z        X      Y      Z        X      Y      Z   
After scan for Atom:   Atom  AN      X      Y      Z        X      Y      Z        X      Y      Z   
After scan for Atom:   Atom  AN      X      Y      Z        X      Y      Z        X      Y      Z   
After scan for Atom:   Atom  AN      X      Y      Z        X      Y      Z        X      Y      Z   
After scan for Atom:   Atom  AN      X      Y      Z        X      Y      Z        X      Y      Z   
After scan for Atom:   Atom  AN      X      Y      Z        X      Y      Z        X      Y      Z   
After scan for Atom:   Atom  AN      X      Y      Z        X      Y      Z        X      Y      Z   
After scan for Atom:   Atom  AN      X      Y      Z        X      Y      Z        X      Y      Z   
After scan for Atom:   Atom  AN      X      Y      Z        X      Y      Z        X      Y      Z   
After scan for Atom:   Atom  AN      X      Y      Z        X      Y      Z        X      Y      Z   
After scan for Atom:   Atom  AN      X      Y      Z        X      Y      Z        X      Y      Z   
After scan for Atom:   Atom  AN      X      Y      Z        X      Y      Z        X      Y      Z   
After scan for Atom:   Atom  AN      X      Y      Z        X      Y      Z        X      Y      Z   
 g94    frequencies=
     0.0    0.0    0.0    0.0    0.0    0.0  -96.3  -53.1   21.6   50.4
    57.9   59.4  119.6  134.3  167.7  172.3  223.4  254.6  335.7  336.4
   370.9  386.7  406.8  410.1  418.0  445.5  453.6  485.0  487.5  510.4
   554.7  573.4  631.4  641.0  642.2  655.1  668.4  694.9  707.6  729.2
   743.9  769.9  780.1  806.7  812.2  817.1  826.1  835.6  849.9  854.2
   879.6  919.2  949.3  956.8  973.3  995.8  996.7  997.8 1001.7 1007.9
  1008.1 1013.0 1018.0 1023.0 1033.5 1054.6 1064.8 1075.0 1111.5 1111.7
  1113.1 1142.7 1168.2 1188.1 1206.5 1218.7 1236.7 1251.0 1274.7 1287.8
  1293.0 1302.9 1310.4 1326.5 1341.5 1353.5 1361.4 1370.0 1433.4 1444.6
  1448.8 1468.1 1483.8 1521.9 1543.0 1570.7 1580.0 1596.0 1614.0 1614.1
  1623.5 1637.7 1647.0 1658.7 3141.9 3143.9 3162.0 3170.0 3181.1 3182.6
  3186.4 3190.8 3192.1 3201.4 3201.6 3202.0 3207.4 3209.1 3211.9 3214.3
 g94    symmetries=
                                                A2     A2     B1     A2
      B2     B1     B1     B2     B1     A1     B2     B1     B1     A1
      B2     A2     A2     A2     A2     B2     B1     A1     B2     B1
      B1     B1     B2     A1     B2     B2     B2     B1     A1     B1
      B1     A1     B1     A2     A1     B1     B1     A2     A2     B1
      B1     B1     A2     B1     A2     B1     A2     B1     A2     B1
      A1     A1     A1     A1     A1     A1     A1     A1     B2     B2
      A1     B2     B2     B2     A1     A1     B2     A1     B2     A1
      B2     A1     B2     B2     B2     A1     B2     B2     B2     B2
      A1     B2     B2     A1     A1     A1     B2     B2     A1     B2
      B2     A1     A1     A1     A1     B2     A1     B2     A1     B2
      A1     B2     A1     B2     A1     A1     B2     A1     B2     A1
 atomic masses:
 12.0000 12.0000 12.0000 12.0000 12.0000 12.0000 12.0000 12.0000 12.0000 12.0000
 12.0000 12.0000 12.0000 14.0031 12.0000 12.0000 12.0000 14.0031 12.0000 12.0000
 12.0000 12.0000 12.0000 12.0000  1.0078  1.0078  1.0078  1.0078  1.0078  1.0078
  1.0078  1.0078  1.0078  1.0078  1.0078  1.0078  1.0078  1.0078  1.0078  1.0078
 looking for force constants in 
 ./Non-cov-phenyl-N_1_C0S0.fchk                                                 
  
 Cartesian Force Constants                  R   N=        7260                  
  
 n3=         120        7260
 g94-fc frequencies=
   -96.3  -53.1   -1.0   -0.0    0.0    0.0    0.8    1.0   21.6   50.4
    57.9   59.4  119.6  134.3  167.7  172.4  223.4  254.6  335.7  336.4
   370.9  386.7  406.8  410.1  418.0  445.5  453.6  485.0  487.5  510.5
   554.7  573.4  631.4  641.0  642.2  655.1  668.4  694.9  707.6  729.3
   743.9  769.9  780.1  806.7  812.2  817.1  826.2  835.6  850.0  854.2
   879.6  919.3  949.3  956.8  973.3  995.8  996.7  997.9 1001.7 1008.0
  1008.1 1013.0 1018.1 1023.0 1033.6 1054.6 1064.9 1075.0 1111.5 1111.8
  1113.2 1142.7 1168.2 1188.1 1206.5 1218.8 1236.7 1251.0 1274.8 1287.8
  1293.0 1302.9 1310.4 1326.6 1341.5 1353.5 1361.5 1370.1 1433.4 1444.7
  1448.8 1468.1 1483.8 1521.9 1543.0 1570.7 1580.0 1596.0 1614.0 1614.1
  1623.5 1637.7 1647.1 1658.7 3141.9 3143.9 3162.0 3170.1 3181.1 3182.7
  3186.4 3190.9 3192.1 3201.5 3201.7 3202.0 3207.5 3209.2 3211.9 3214.4
 at 99999: n3=         120
 symm operator            1 :  T  nop=           1
 symm operator            2 :  F  nop=           1
 symm operator            3 :  F  nop=           1
 symm operator            4 :  F  nop=           1
 symm operator            5 :  F  nop=           1
 symm operator            6 :  T  nop=           2
 symm operator            7 :  T  nop=           3
 The point group of the molecule is C2V
 enforcing symm op           1  jsymt=          -1          -1           1
 enforcing symm op           6  jsymt=           1          -1           1
 enforcing symm op           7  jsymt=          -1           1           1
 cartesian coord symmetries:
 A1 :   40 A2 :   15 B1 :   25 B2 :   40
 Symmetry rotation matrix:
   1.00000   0.00000   0.00000
   0.00000   1.00000   0.00000
   0.00000   0.00000   1.00000

 Projecting out zero-frequency components
 generating redundant internal coords
         300        3600          40
 search for int coords
   1 str   2   1   1.392
   2 str   3   2   1.391
   3 str   4   3   1.406
   4 str   5   4   1.490
   5 str   6   5   1.404
   6 str   7   6   1.387
   7 str   8   7   1.404
   8 str   9   8   1.487
   9 str  10   9   1.407
  10 str  11  10   1.386
  11 str  12  11   1.400
  12 str  13  12   1.480
  13 str  14  13   1.345
  14 str  15  14   1.331
  15 str  16  15   1.391
  16 str  17  16   1.391
  17 str  18  13   1.345
  18 str  18  17   1.331
  19 str  19  12   1.400
  20 str  20   9   1.407
  21 str  20  19   1.386
  22 str  21   8   1.404
  23 str  22   5   1.404
  24 str  22  21   1.387
  25 str  23   4   1.406
  26 str  24   1   1.392
  27 str  24  23   1.391
  28 str  25   1   1.084
  29 str  26   2   1.084
  30 str  27   3   1.082
  31 str  28   6   1.082
  32 str  29   7   1.082
  33 str  30  10   1.082
  34 str  31  11   1.082
  35 str  32  15   1.087
  36 str  33  16   1.082
  37 str  34  17   1.087
  38 str  35  19   1.082
  39 str  36  20   1.082
  40 str  37  21   1.082
  41 str  38  22   1.082
  42 str  39  23   1.082
  43 str  40  24   1.084
 nber stretches=          43
  44 ben   1   2   3
  45 prop tor   1   2   3   4
  46 prop tor   1   2   3  27
  47 ben   1   2  26
  48 ben   1  24  23
  49 ben   1  24  40
  50 ben   2   1  24
  51 prop tor   2   1  24  23
  52 prop tor   2   1  24  40
  53 ben   2   1  25
  54 ben   2   3   4
  55 prop tor   2   3   4   5
  56 prop tor   2   3   4  23
  57 ben   2   3  27
  58 ben   3   2  26
  59 ben   3   4   5
  60 prop tor   3   4   5   6
  61 prop tor   3   4   5  22
  62 ben   3   4  23
  63 prop tor   3   4  23  24
  64 prop tor   3   4  23  39
  65 ben   4   3  27
  66 ben   4   5   6
  67 prop tor   4   5   6   7
  68 prop tor   4   5   6  28
  69 ben   4   5  22
  70 prop tor   4   5  22  21
  71 prop tor   4   5  22  38
  72 ben   4  23  24
  73 prop tor   4  23  24   1
  74 prop tor   4  23  24  40
  75 ben   4  23  39
  76 ben   5   4  23
  77 prop tor   5   4  23  24
  78 prop tor   5   4  23  39
  79 ben   5   6   7
  80 prop tor   5   6   7   8
  81 prop tor   5   6   7  29
  82 ben   5   6  28
  83 ben   5  22  21
  84 ben   5  22  38
  85 ben   6   5  22
  86 prop tor   6   5  22  21
  87 prop tor   6   5  22  38
  88 ben   6   7   8
  89 prop tor   6   7   8   9
  90 prop tor   6   7   8  21
  91 ben   6   7  29
  92 ben   7   6  28
  93 ben   7   8   9
  94 prop tor   7   8   9  10
  95 prop tor   7   8   9  20
  96 ben   7   8  21
  97 prop tor   7   8  21  22
  98 prop tor   7   8  21  37
  99 ben   8   7  29
 100 ben   8   9  10
 101 prop tor   8   9  10  11
 102 prop tor   8   9  10  30
 103 ben   8   9  20
 104 prop tor   8   9  20  19
 105 prop tor   8   9  20  36
 106 ben   8  21  22
 107 prop tor   8  21  22   5
 108 prop tor   8  21  22  38
 109 ben   8  21  37
 110 ben   9   8  21
 111 prop tor   9   8  21  22
 112 prop tor   9   8  21  37
 113 ben   9  10  11
 114 prop tor   9  10  11  12
 115 prop tor   9  10  11  31
 116 ben   9  10  30
 117 ben   9  20  19
 118 ben   9  20  36
 119 ben  10   9  20
 120 prop tor  10   9  20  19
 121 prop tor  10   9  20  36
 122 ben  10  11  12
 123 prop tor  10  11  12  13
 124 prop tor  10  11  12  19
 125 ben  10  11  31
 126 ben  11  10  30
 127 ben  11  12  13
 128 prop tor  11  12  13  14
 129 prop tor  11  12  13  18
 130 ben  11  12  19
 131 prop tor  11  12  19  20
 132 prop tor  11  12  19  35
 133 ben  12  11  31
 134 ben  12  13  14
 135 prop tor  12  13  14  15
 136 ben  12  13  18
 137 prop tor  12  13  18  17
 138 ben  12  19  20
 139 prop tor  12  19  20   9
 140 prop tor  12  19  20  36
 141 ben  12  19  35
 142 ben  13  12  19
 143 prop tor  13  12  19  20
 144 prop tor  13  12  19  35
 145 ben  13  14  15
 146 prop tor  13  14  15  16
 147 prop tor  13  14  15  32
 148 ben  13  18  17
 149 ben  14  13  18
 150 prop tor  14  13  18  17
 151 ben  14  15  16
 152 prop tor  14  15  16  17
 153 prop tor  14  15  16  33
 154 ben  14  15  32
 155 ben  15  16  17
 156 prop tor  15  16  17  18
 157 prop tor  15  16  17  34
 158 ben  15  16  33
 159 ben  16  15  32
 160 ben  16  17  18
 161 prop tor  16  17  18  13
 162 ben  16  17  34
 163 ben  17  16  33
 164 prop tor  18  13  14  15
 165 ben  18  17  34
 166 prop tor  19  12  13  14
 167 prop tor  19  12  13  18
 168 ben  19  20  36
 169 prop tor  20   9  10  11
 170 prop tor  20   9  10  30
 171 ben  20  19  35
 172 prop tor  21   8   9  10
 173 prop tor  21   8   9  20
 174 ben  21  22  38
 175 prop tor  22   5   6   7
 176 prop tor  22   5   6  28
 177 ben  22  21  37
 178 prop tor  23   4   5   6
 179 prop tor  23   4   5  22
 180 ben  23  24  40
 181 prop tor  24   1   2   3
 182 prop tor  24   1   2  26
 183 ben  24   1  25
 184 ben  24  23  39
 185 prop tor  25   1   2   3
 186 prop tor  25   1   2  26
 187 prop tor  25   1  24  23
 188 prop tor  25   1  24  40
 189 prop tor  26   2   3   4
 190 prop tor  26   2   3  27
 191 prop tor  27   3   4   5
 192 prop tor  27   3   4  23
 193 prop tor  28   6   7   8
 194 prop tor  28   6   7  29
 195 prop tor  29   7   8   9
 196 prop tor  29   7   8  21
 197 prop tor  30  10  11  12
 198 prop tor  30  10  11  31
 199 prop tor  31  11  12  13
 200 prop tor  31  11  12  19
 201 prop tor  32  15  16  17
 202 prop tor  32  15  16  33
 203 prop tor  33  16  17  18
 204 prop tor  33  16  17  34
 205 prop tor  34  17  18  13
 206 prop tor  35  19  20   9
 207 prop tor  35  19  20  36
 208 prop tor  37  21  22   5
 209 prop tor  37  21  22  38
 210 prop tor  39  23  24   1
 211 prop tor  39  23  24  40
 nber bend=              68
 nber lin bend=           0
 nber prop tor=         100
 nber impr tor=           0
 nber tot redund int=         211
 Eigenvalues of G in red int coords
    Gval -0.00000000 -0.00000000 -0.00000000 -0.00000000 -0.00000000 -0.00000000 -0.00000000 -0.00000000
    Gval -0.00000000 -0.00000000 -0.00000000 -0.00000000 -0.00000000 -0.00000000 -0.00000000 -0.00000000
    Gval -0.00000000 -0.00000000 -0.00000000 -0.00000000 -0.00000000 -0.00000000 -0.00000000 -0.00000000
    Gval -0.00000000 -0.00000000 -0.00000000 -0.00000000 -0.00000000 -0.00000000 -0.00000000 -0.00000000
    Gval -0.00000000 -0.00000000 -0.00000000 -0.00000000 -0.00000000 -0.00000000 -0.00000000 -0.00000000
    Gval -0.00000000 -0.00000000 -0.00000000 -0.00000000 -0.00000000 -0.00000000 -0.00000000 -0.00000000
    Gval -0.00000000 -0.00000000 -0.00000000  0.00000000  0.00000000  0.00000000  0.00000000  0.00000000
    Gval  0.00000000  0.00000000  0.00000000  0.00000000  0.00000000  0.00000000  0.00000000  0.00000000
    Gval  0.00000000  0.00000000  0.00000000  0.00000000  0.00000000  0.00000000  0.00000000  0.00000000
    Gval  0.00000000  0.00000000  0.00000000  0.00000000  0.00000000  0.00000000  0.00000000  0.00000000
    Gval  0.00000000  0.00000000  0.00000000  0.00000000  0.00000000  0.00000000  0.00000000  0.00000000
    Gval  0.00000000  0.00000000  0.00000000  0.00000000  0.00000000  0.00000000  0.00000000  0.00000000
    Gval  0.00000000  0.00000050  0.00000198  0.00000204  0.00000298  0.00000778  0.00000843  0.00001282
    Gval  0.00001390  0.00001541  0.00002020  0.00002794  0.00003008  0.00004239  0.00004522  0.00004568
    Gval  0.00004888  0.00005059  0.00005209  0.00005601  0.00005649  0.00005862  0.00005902  0.00006699
    Gval  0.00006772  0.00007832  0.00008253  0.00009174  0.00009970  0.00010643  0.00010846  0.00011678
    Gval  0.00011688  0.00011710  0.00012085  0.00012288  0.00012713  0.00013369  0.00017178  0.00021544
    Gval  0.00023426  0.00025112  0.00026170  0.00027317  0.00028307  0.00028900  0.00030577  0.00035242
    Gval  0.00036288  0.00038183  0.00039187  0.00039294  0.00039624  0.00041398  0.00043165  0.00051435
    Gval  0.00053690  0.00058057  0.00059308  0.00059343  0.00059364  0.00059657  0.00059853  0.00059975
    Gval  0.00060014  0.00060208  0.00060406  0.00060426  0.00062320  0.00062458  0.00063364  0.00064170
    Gval  0.00064320  0.00064903  0.00065129  0.00066105  0.00072897  0.00091409  0.00104149  0.00106045
    Gval  0.00106684  0.00107741  0.00108125  0.00110939  0.00111071  0.00111217  0.00112860  0.00113905
    Gval  0.00115102  0.00115403  0.00116840  0.00117022  0.00117194  0.00117312  0.00117465  0.00140288
    Gval  0.00143056  0.00145332  0.00158922  0.00175020  0.00195106  0.00226198  0.00234300  0.00235041
    Gval  0.00236573  0.00239740  0.00266263  0.00314243  0.00357222  0.00365486  0.00367003  0.00370914
    Gval  0.00372447  0.00373680  0.00406717
  4.962251561289187E-007  4.962251561289187E-007
  1.977305003023236E-006  4.962251561289187E-007
  2.044298209071173E-006  4.962251561289187E-007
  2.981898221001459E-006  4.962251561289187E-007
  7.776747142304262E-006  4.962251561289187E-007
  8.430956765116993E-006  4.962251561289187E-007
  1.281534708202904E-005  4.962251561289187E-007
  1.390054128572034E-005  4.962251561289187E-007
  1.540697001123760E-005  4.962251561289187E-007
  2.020138620864490E-005  4.962251561289187E-007
  2.793943349630009E-005  4.962251561289187E-007
  3.008202314907469E-005  4.962251561289187E-007
  4.239382207591233E-005  4.962251561289187E-007
  4.522146469093668E-005  4.962251561289187E-007
  4.568346036820905E-005  4.962251561289187E-007
  4.887960058892643E-005  4.962251561289187E-007
  5.058874079893182E-005  4.962251561289187E-007
  5.209386543131016E-005  4.962251561289187E-007
  5.601290413277766E-005  4.962251561289187E-007
  5.648842455070493E-005  4.962251561289187E-007
  5.861901391781652E-005  4.962251561289187E-007
  5.902211822697931E-005  4.962251561289187E-007
  6.699169467806565E-005  4.962251561289187E-007
  6.772205701414633E-005  4.962251561289187E-007
  7.831866751766289E-005  4.962251561289187E-007
  8.252651572360232E-005  4.962251561289187E-007
  9.173630237892949E-005  4.962251561289187E-007
  9.970241713273885E-005  4.962251561289187E-007
  1.064337359650663E-004  4.962251561289187E-007
  1.084575077321564E-004  4.962251561289187E-007
  1.167826931719236E-004  4.962251561289187E-007
  1.168783163680567E-004  4.962251561289187E-007
  1.171043750822402E-004  4.962251561289187E-007
  1.208492304939676E-004  4.962251561289187E-007
  1.228815309301010E-004  4.962251561289187E-007
  1.271328747861408E-004  4.962251561289187E-007
  1.336859884020275E-004  4.962251561289187E-007
  1.717785392925331E-004  4.962251561289187E-007
  2.154406655988848E-004  4.962251561289187E-007
  2.342573680778260E-004  4.962251561289187E-007
  2.511155105157576E-004  4.962251561289187E-007
  2.616954634506511E-004  4.962251561289187E-007
  2.731652553967986E-004  4.962251561289187E-007
  2.830734959495905E-004  4.962251561289187E-007
  2.889973350452399E-004  4.962251561289187E-007
  3.057723234844824E-004  4.962251561289187E-007
  3.524212706273894E-004  4.962251561289187E-007
  3.628755597392140E-004  4.962251561289187E-007
  3.818254004603093E-004  4.962251561289187E-007
  3.918703082029485E-004  4.962251561289187E-007
  3.929401417246054E-004  4.962251561289187E-007
  3.962434705163824E-004  4.962251561289187E-007
  4.139791818909649E-004  4.962251561289187E-007
  4.316507574380573E-004  4.962251561289187E-007
  5.143523700030765E-004  4.962251561289187E-007
  5.369010799631128E-004  4.962251561289187E-007
  5.805714431931429E-004  4.962251561289187E-007
  5.930755083057243E-004  4.962251561289187E-007
  5.934302830483775E-004  4.962251561289187E-007
  5.936441173128042E-004  4.962251561289187E-007
  5.965745794660225E-004  4.962251561289187E-007
  5.985272118264794E-004  4.962251561289187E-007
  5.997479164899414E-004  4.962251561289187E-007
  6.001399049542405E-004  4.962251561289187E-007
  6.020765402391215E-004  4.962251561289187E-007
  6.040644287131454E-004  4.962251561289187E-007
  6.042619177521804E-004  4.962251561289187E-007
  6.231962596713995E-004  4.962251561289187E-007
  6.245829783166736E-004  4.962251561289187E-007
  6.336429173902112E-004  4.962251561289187E-007
  6.416991457911412E-004  4.962251561289187E-007
  6.432000122674109E-004  4.962251561289187E-007
  6.490275038758069E-004  4.962251561289187E-007
  6.512943874736674E-004  4.962251561289187E-007
  6.610535640677967E-004  4.962251561289187E-007
  7.289741623539123E-004  4.962251561289187E-007
  9.140887607796881E-004  4.962251561289187E-007
  1.041492795281015E-003  4.962251561289187E-007
  1.060451451206743E-003  4.962251561289187E-007
  1.066842197567957E-003  4.962251561289187E-007
  1.077408728773988E-003  4.962251561289187E-007
  1.081250308966851E-003  4.962251561289187E-007
  1.109388735311795E-003  4.962251561289187E-007
  1.110705016069207E-003  4.962251561289187E-007
  1.112171081146671E-003  4.962251561289187E-007
  1.128599249556658E-003  4.962251561289187E-007
  1.139047640072390E-003  4.962251561289187E-007
  1.151020692780268E-003  4.962251561289187E-007
  1.154033948737069E-003  4.962251561289187E-007
  1.168400680681843E-003  4.962251561289187E-007
  1.170218882822908E-003  4.962251561289187E-007
  1.171941771009297E-003  4.962251561289187E-007
  1.173116563312160E-003  4.962251561289187E-007
  1.174645963124029E-003  4.962251561289187E-007
  1.402877822916193E-003  4.962251561289187E-007
  1.430556428482563E-003  4.962251561289187E-007
  1.453322119624298E-003  4.962251561289187E-007
  1.589219595536635E-003  4.962251561289187E-007
  1.750201268390847E-003  4.962251561289187E-007
  1.951063936424268E-003  4.962251561289187E-007
  2.261976355909656E-003  4.962251561289187E-007
  2.342999710205916E-003  4.962251561289187E-007
  2.350414601180322E-003  4.962251561289187E-007
  2.365730942692738E-003  4.962251561289187E-007
  2.397398857407435E-003  4.962251561289187E-007
  2.662626872050022E-003  4.962251561289187E-007
  3.142426664455937E-003  4.962251561289187E-007
  3.572223201472919E-003  4.962251561289187E-007
  3.654858249563738E-003  4.962251561289187E-007
  3.670028871681092E-003  4.962251561289187E-007
  3.709138119010878E-003  4.962251561289187E-007
  3.724465679155559E-003  4.962251561289187E-007
  3.736798546952017E-003  4.962251561289187E-007
  4.067173898783786E-003  4.962251561289187E-007
 cut=1d-8, nber non-redundant internal coords=         114
 Check on Eigenvals of non-red overlap matrix:
  0.00000050  0.00000198  0.00000204  0.00000298  0.00000778  0.00000843  0.00001282  0.00001390
  0.00001541  0.00002020  0.00002794  0.00003008  0.00004239  0.00004522  0.00004568  0.00004888
  0.00005059  0.00005209  0.00005601  0.00005649  0.00005862  0.00005902  0.00006699  0.00006772
  0.00007832  0.00008253  0.00009174  0.00009970  0.00010643  0.00010846  0.00011678  0.00011688
  0.00011710  0.00012085  0.00012288  0.00012713  0.00013369  0.00017178  0.00021544  0.00023426
  0.00025112  0.00026170  0.00027317  0.00028307  0.00028900  0.00030577  0.00035242  0.00036288
  0.00038183  0.00039187  0.00039294  0.00039624  0.00041398  0.00043165  0.00051435  0.00053690
  0.00058057  0.00059308  0.00059343  0.00059364  0.00059657  0.00059853  0.00059975  0.00060014
  0.00060208  0.00060406  0.00060426  0.00062320  0.00062458  0.00063364  0.00064170  0.00064320
  0.00064903  0.00065129  0.00066105  0.00072897  0.00091409  0.00104149  0.00106045  0.00106684
  0.00107741  0.00108125  0.00110939  0.00111071  0.00111217  0.00112860  0.00113905  0.00115102
  0.00115403  0.00116840  0.00117022  0.00117194  0.00117312  0.00117465  0.00140288  0.00143056
  0.00145332  0.00158922  0.00175020  0.00195106  0.00226198  0.00234300  0.00235041  0.00236573
  0.00239740  0.00266263  0.00314243  0.00357222  0.00365486  0.00367003  0.00370914  0.00372447
  0.00373680  0.00406717
 Checking for correct frequencies
 recalc frequencies=
   -96.3  -53.1   -0.0   -0.0   -0.0    0.0    0.0    0.0   21.6   50.4
    57.9   59.4  119.6  134.3  167.7  172.4  223.4  254.6  335.7  336.4
   370.9  386.7  406.8  410.1  418.0  445.5  453.6  485.0  487.5  510.5
   554.7  573.4  631.4  641.0  642.2  655.1  668.4  694.9  707.6  729.3
   743.9  769.9  780.1  806.7  812.2  817.1  826.2  835.6  850.0  854.2
   879.6  919.3  949.3  956.8  973.3  995.8  996.7  997.9 1001.7 1008.0
  1008.1 1013.0 1018.1 1023.0 1033.6 1054.6 1064.9 1075.0 1111.5 1111.8
  1113.2 1142.7 1168.2 1188.1 1206.5 1218.8 1236.7 1251.0 1274.8 1287.8
  1293.0 1302.9 1310.4 1326.6 1341.5 1353.5 1361.5 1370.1 1433.4 1444.7
  1448.8 1468.1 1483.8 1521.9 1543.0 1570.7 1580.0 1596.0 1614.0 1614.1
  1623.5 1637.7 1647.1 1658.7 3141.9 3143.9 3162.0 3170.1 3181.1 3182.7
  3186.4 3190.9 3192.1 3201.5 3201.7 3202.0 3207.5 3209.2 3211.9 3214.4
 recalc symmetries=
     A2     A2     A1     B1     A2     B1     B2     B2     B1     A2 
     B2     B1     B1     B2     B1     A1     B2     B1     B1     A1 
     B2     A2     A2     A2     A2     B2     B1     A1     B2     B1 
     B1     B1     B2     A1     B2     B2     B2     B1     A1     B1 
     B1     A1     B1     A2     A1     B1     B1     A2     A2     B1 
     B1     B1     A2     B1     A2     B1     A2     B1     A2     B1 
     A1     A1     A1     A1     A1     A1     A1     A1     B2     B2 
     A1     B2     B2     B2     A1     A1     B2     A1     B2     A1 
     B2     A1     B2     B2     B2     A1     B2     B2     B2     B2 
     A1     B2     B2     A1     A1     A1     B2     B2     A1     B2 
     B2     A1     A1     A1     A1     B2     A1     B2     A1     B2 
     A1     B2     A1     B2     A1     A1     B2     A1     B2     A1 
 recalc freqs check OK
 Zero-point lengths:
 25.2597 34.0128 10.0000 10.0000 10.0000 10.0000 10.0000 10.0000 53.3738 34.9089
 32.5881 32.1635 22.6729 21.3901 19.1431 18.8836 16.5870 15.5374 13.5297 13.5156
 12.8723 12.6067 12.2912 12.2413 12.1253 11.7453 11.6400 11.2568 11.2278 10.9728
 10.5259 10.3530  9.8661  9.7921  9.7830  9.6857  9.5893  9.4046  9.3195  9.1802
  9.0893  8.9348  8.8758  8.7285  8.6986  8.6726  8.6251  8.5761  8.5035  8.4825
  8.3589  8.1767  8.0462  8.0146  7.9465  7.8562  7.8527  7.8480  7.8330  7.8086
  7.8081  7.7892  7.7698  7.7510  7.7113  7.6341  7.5971  7.5611  7.4360  7.4351
  7.4305  7.3337  7.2534  7.1924  7.1372  7.1012  7.0496  7.0091  6.9435  6.9083
  6.8943  6.8681  6.8485  6.8066  6.7685  6.7384  6.7188  6.6977  6.5480  6.5225
  6.5131  6.4701  6.4358  6.3548  6.3112  6.2553  6.2369  6.2055  6.1708  6.1707
  6.1527  6.1260  6.1086  6.0870  4.4228  4.4214  4.4087  4.4031  4.3955  4.3944
  4.3918  4.3887  4.3879  4.3815  4.3813  4.3811  4.3774  4.3762  4.3743  4.3727
 highest evec of mol 1
  0.0000  0.0000 -0.0072
  0.0000 -0.0121 -0.0081
  0.0000 -0.0449  0.0241
  0.0000  0.0000  0.0017
  0.0000  0.0000 -0.0037
  0.0000  0.0690 -0.0387
  0.0000  0.0938  0.0505
  0.0000  0.0000  0.0046
  0.0000  0.0000 -0.0047
  0.0000  0.0938 -0.0532
  0.0000  0.0856  0.0515
  0.0000  0.0000  0.0044
  0.0000  0.0000  0.0013
  0.0000 -0.0006 -0.0000
  0.0000 -0.0001  0.0001
  0.0000  0.0000 -0.0008
  0.0000  0.0001  0.0001
  0.0000  0.0006 -0.0000
  0.0000 -0.0856  0.0515
  0.0000 -0.0938 -0.0532
  0.0000 -0.0938  0.0505
  0.0000 -0.0690 -0.0387
  0.0000  0.0449  0.0241
  0.0000  0.0121 -0.0081
  0.0000  0.0000  0.0216
  0.0000  0.0383  0.0221
  0.0000  0.1501 -0.0834
  0.0000 -0.2279  0.1237
  0.0000 -0.3118 -0.1690
  0.0000 -0.3136  0.1732
  0.0000 -0.2807 -0.1614
  0.0000  0.0000 -0.0000
  0.0000  0.0000  0.0022
  0.0000 -0.0000 -0.0000
  0.0000  0.2807 -0.1614
  0.0000  0.3136  0.1732
  0.0000  0.3118 -0.1690
  0.0000  0.2279  0.1237
  0.0000 -0.1501 -0.0834
  0.0000 -0.0383  0.0221
 generating redundant internal coords
         300        3600          40
 Adding extra bonds for z output only
           6           6           6           6           6           6
           6           6           6           6           6           6
           6           7           6           6           6           7
           6           6           6           6           6           6
           1           1           1           1           1           1
           1           1           1           1           1           1
           1           1           1           1
 search for int coords
   1 str   2   1   1.392
   2 str   3   2   1.391
   3 str   4   3   1.406
   4 str   5   4   1.490
   5 str   6   5   1.404
   6 str   7   6   1.387
   7 str   8   7   1.404
   8 str   9   8   1.487
   9 str  10   9   1.407
  10 str  11  10   1.386
  11 str  12  11   1.400
  12 str  13  12   1.480
  13 str  14  13   1.345
  14 str  15  14   1.331
  15 str  16  15   1.391
  16 str  17  16   1.391
  17 str  18  13   1.345
  18 str  18  17   1.331
  19 str  19  12   1.400
  20 str  20   9   1.407
  21 str  20  19   1.386
  22 str  21   8   1.404
  23 str  22   5   1.404
  24 str  22  21   1.387
  25 str  23   4   1.406
  26 str  24   1   1.392
  27 str  24  23   1.391
  28 str  25   1   1.084
  29 str  26   2   1.084
  30 str  27   3   1.082
  31 str  28   6   1.082
  32 str  29   7   1.082
  33 str  30  10   1.082
  34 str  31  11   1.082
  35 str  32  15   1.087
  36 str  33  16   1.082
  37 str  34  17   1.087
  38 str  35  19   1.082
  39 str  36  20   1.082
  40 str  37  21   1.082
  41 str  38  22   1.082
  42 str  39  23   1.082
  43 str  40  24   1.084
 nber stretches=          43
  44 ben   1   2   3
  45 prop tor   1   2   3   4
  46 prop tor   1   2   3  27
  47 ben   1   2  26
  48 ben   1  24  23
  49 ben   1  24  40
  50 ben   2   1  24
  51 prop tor   2   1  24  23
  52 prop tor   2   1  24  40
  53 ben   2   1  25
  54 ben   2   3   4
  55 prop tor   2   3   4   5
  56 prop tor   2   3   4  23
  57 ben   2   3  27
  58 ben   3   2  26
  59 ben   3   4   5
  60 prop tor   3   4   5   6
  61 prop tor   3   4   5  22
  62 ben   3   4  23
  63 prop tor   3   4  23  24
  64 prop tor   3   4  23  39
  65 ben   4   3  27
  66 ben   4   5   6
  67 prop tor   4   5   6   7
  68 prop tor   4   5   6  28
  69 ben   4   5  22
  70 prop tor   4   5  22  21
  71 prop tor   4   5  22  38
  72 ben   4  23  24
  73 prop tor   4  23  24   1
  74 prop tor   4  23  24  40
  75 ben   4  23  39
  76 ben   5   4  23
  77 prop tor   5   4  23  24
  78 prop tor   5   4  23  39
  79 ben   5   6   7
  80 prop tor   5   6   7   8
  81 prop tor   5   6   7  29
  82 ben   5   6  28
  83 ben   5  22  21
  84 ben   5  22  38
  85 ben   6   5  22
  86 prop tor   6   5  22  21
  87 prop tor   6   5  22  38
  88 ben   6   7   8
  89 prop tor   6   7   8   9
  90 prop tor   6   7   8  21
  91 ben   6   7  29
  92 ben   7   6  28
  93 ben   7   8   9
  94 prop tor   7   8   9  10
  95 prop tor   7   8   9  20
  96 ben   7   8  21
  97 prop tor   7   8  21  22
  98 prop tor   7   8  21  37
  99 ben   8   7  29
 100 ben   8   9  10
 101 prop tor   8   9  10  11
 102 prop tor   8   9  10  30
 103 ben   8   9  20
 104 prop tor   8   9  20  19
 105 prop tor   8   9  20  36
 106 ben   8  21  22
 107 prop tor   8  21  22   5
 108 prop tor   8  21  22  38
 109 ben   8  21  37
 110 ben   9   8  21
 111 prop tor   9   8  21  22
 112 prop tor   9   8  21  37
 113 ben   9  10  11
 114 prop tor   9  10  11  12
 115 prop tor   9  10  11  31
 116 ben   9  10  30
 117 ben   9  20  19
 118 ben   9  20  36
 119 ben  10   9  20
 120 prop tor  10   9  20  19
 121 prop tor  10   9  20  36
 122 ben  10  11  12
 123 prop tor  10  11  12  13
 124 prop tor  10  11  12  19
 125 ben  10  11  31
 126 ben  11  10  30
 127 ben  11  12  13
 128 prop tor  11  12  13  14
 129 prop tor  11  12  13  18
 130 ben  11  12  19
 131 prop tor  11  12  19  20
 132 prop tor  11  12  19  35
 133 ben  12  11  31
 134 ben  12  13  14
 135 prop tor  12  13  14  15
 136 ben  12  13  18
 137 prop tor  12  13  18  17
 138 ben  12  19  20
 139 prop tor  12  19  20   9
 140 prop tor  12  19  20  36
 141 ben  12  19  35
 142 ben  13  12  19
 143 prop tor  13  12  19  20
 144 prop tor  13  12  19  35
 145 ben  13  14  15
 146 prop tor  13  14  15  16
 147 prop tor  13  14  15  32
 148 ben  13  18  17
 149 ben  14  13  18
 150 prop tor  14  13  18  17
 151 ben  14  15  16
 152 prop tor  14  15  16  17
 153 prop tor  14  15  16  33
 154 ben  14  15  32
 155 ben  15  16  17
 156 prop tor  15  16  17  18
 157 prop tor  15  16  17  34
 158 ben  15  16  33
 159 ben  16  15  32
 160 ben  16  17  18
 161 prop tor  16  17  18  13
 162 ben  16  17  34
 163 ben  17  16  33
 164 prop tor  18  13  14  15
 165 ben  18  17  34
 166 prop tor  19  12  13  14
 167 prop tor  19  12  13  18
 168 ben  19  20  36
 169 prop tor  20   9  10  11
 170 prop tor  20   9  10  30
 171 ben  20  19  35
 172 prop tor  21   8   9  10
 173 prop tor  21   8   9  20
 174 ben  21  22  38
 175 prop tor  22   5   6   7
 176 prop tor  22   5   6  28
 177 ben  22  21  37
 178 prop tor  23   4   5   6
 179 prop tor  23   4   5  22
 180 ben  23  24  40
 181 prop tor  24   1   2   3
 182 prop tor  24   1   2  26
 183 ben  24   1  25
 184 ben  24  23  39
 185 prop tor  25   1   2   3
 186 prop tor  25   1   2  26
 187 prop tor  25   1  24  23
 188 prop tor  25   1  24  40
 189 prop tor  26   2   3   4
 190 prop tor  26   2   3  27
 191 prop tor  27   3   4   5
 192 prop tor  27   3   4  23
 193 prop tor  28   6   7   8
 194 prop tor  28   6   7  29
 195 prop tor  29   7   8   9
 196 prop tor  29   7   8  21
 197 prop tor  30  10  11  12
 198 prop tor  30  10  11  31
 199 prop tor  31  11  12  13
 200 prop tor  31  11  12  19
 201 prop tor  32  15  16  17
 202 prop tor  32  15  16  33
 203 prop tor  33  16  17  18
 204 prop tor  33  16  17  34
 205 prop tor  34  17  18  13
 206 prop tor  35  19  20   9
 207 prop tor  35  19  20  36
 208 prop tor  37  21  22   5
 209 prop tor  37  21  22  38
 210 prop tor  39  23  24   1
 211 prop tor  39  23  24  40
 nber bend=              68
 nber lin bend=           0
 nber prop tor=         100
 nber impr tor=           0
 nber tot redund int=         211
 Reading file: 
 ./Non-cov-phenyl-N_1_C1S0.log                                                  
                                          
  Entering Gaussian System, Link 0=g16                                          
  
 Gaussian format, type: g94, g98, g03= F F F
  #P Geom=AllCheck Guess=TCheck SCRF=Check GenChk UB3LYP/6-311G(d,p) Fre    
 energy type= B3LYP   
 Original G94 input coords:
  6  7.581227  0.000000  0.000000
  6  6.879981 -1.209101  0.000000
  6  5.497027 -1.211298  0.000000
  6  4.758698  0.000000  0.000000
  6  3.300073  0.000000  0.000000
  6  2.546781  1.206643  0.000000
  6  1.175475  1.207420  0.000000
  6  0.421005  0.000000  0.000000
  6 -1.029569  0.000000  0.000000
  6 -1.774439  1.212998  0.000000
  6 -3.150211  1.213515  0.000000
  6 -3.867483  0.000000  0.000000
  6 -5.344375  0.000000  0.000000
  7 -5.954139  1.194902  0.000000
  6 -7.285519  1.186096  0.000000
  6 -8.016686  0.000000  0.000000
  6 -7.285519 -1.186096  0.000000
  7 -5.954139 -1.194902  0.000000
  6 -3.150211 -1.213515  0.000000
  6 -1.774439 -1.212998  0.000000
  6  1.175475 -1.207420  0.000000
  6  2.546781 -1.206643  0.000000
  6  5.497027  1.211298  0.000000
  6  6.879981  1.209101  0.000000
  1  8.664693  0.000000  0.000000
  1  7.419094 -2.148395  0.000000
  1  4.989311 -2.165078  0.000000
  1  3.051657  2.161596  0.000000
  1  0.671490  2.162793  0.000000
  1 -1.267575  2.167138  0.000000
  1 -3.705329  2.141586  0.000000
  1 -7.777981  2.153612  0.000000
  1 -9.098829  0.000000  0.000000
  1 -7.777981 -2.153612  0.000000
  1 -3.705329 -2.141586  0.000000
  1 -1.267575 -2.167138  0.000000
  1  0.671490 -2.162793  0.000000
  1  3.051657 -2.161596  0.000000
  1  4.989311  2.165078  0.000000
  1  7.419094  2.148395  0.000000
 nber atoms=          40
 Original standard coords:
  6  0.000000  0.000000  7.850019
  6  0.000000  1.209101  7.148773
  6  0.000000  1.211298  5.765819
  6  0.000000  0.000000  5.027490
  6  0.000000  0.000000  3.568865
  6  0.000000 -1.206643  2.815573
  6  0.000000 -1.207420  1.444267
  6  0.000000  0.000000  0.689796
  6  0.000000  0.000000 -0.760777
  6  0.000000 -1.212998 -1.505648
  6  0.000000 -1.213515 -2.881419
  6  0.000000  0.000000 -3.598692
  6  0.000000  0.000000 -5.075583
  7  0.000000 -1.194902 -5.685347
  6  0.000000 -1.186096 -7.016727
  6  0.000000  0.000000 -7.747894
  6  0.000000  1.186096 -7.016727
  7  0.000000  1.194902 -5.685347
  6  0.000000  1.213515 -2.881419
  6  0.000000  1.212998 -1.505648
  6  0.000000  1.207420  1.444267
  6  0.000000  1.206643  2.815573
  6  0.000000 -1.211298  5.765819
  6  0.000000 -1.209101  7.148773
  1  0.000000  0.000000  8.933485
  1  0.000000  2.148395  7.687885
  1  0.000000  2.165078  5.258102
  1  0.000000 -2.161596  3.320449
  1  0.000000 -2.162793  0.940281
  1  0.000000 -2.167138 -0.998783
  1  0.000000 -2.141586 -3.436537
  1  0.000000 -2.153612 -7.509190
  1  0.000000  0.000000 -8.830038
  1  0.000000  2.153612 -7.509190
  1  0.000000  2.141586 -3.436537
  1  0.000000  2.167138 -0.998783
  1  0.000000  2.162793  0.940281
  1  0.000000  2.161596  3.320449
  1  0.000000 -2.165078  5.258102
  1  0.000000 -2.148395  7.687885
  SCF Done:  E(UB3LYP) =  -957.463796711     A.U. after    1 cycles             
  
          23          40 "  -957.463796711"
After scan for Atom:   Atom  AN      X      Y      Z        X      Y      Z        X      Y      Z   
After scan for Atom:   Atom  AN      X      Y      Z        X      Y      Z        X      Y      Z   
After scan for Atom:   Atom  AN      X      Y      Z        X      Y      Z        X      Y      Z   
After scan for Atom:   Atom  AN      X      Y      Z        X      Y      Z        X      Y      Z   
After scan for Atom:   Atom  AN      X      Y      Z        X      Y      Z        X      Y      Z   
After scan for Atom:   Atom  AN      X      Y      Z        X      Y      Z        X      Y      Z   
After scan for Atom:   Atom  AN      X      Y      Z        X      Y      Z        X      Y      Z   
After scan for Atom:   Atom  AN      X      Y      Z        X      Y      Z        X      Y      Z   
After scan for Atom:   Atom  AN      X      Y      Z        X      Y      Z        X      Y      Z   
After scan for Atom:   Atom  AN      X      Y      Z        X      Y      Z        X      Y      Z   
After scan for Atom:   Atom  AN      X      Y      Z        X      Y      Z        X      Y      Z   
After scan for Atom:   Atom  AN      X      Y      Z        X      Y      Z        X      Y      Z   
After scan for Atom:   Atom  AN      X      Y      Z        X      Y      Z        X      Y      Z   
After scan for Atom:   Atom  AN      X      Y      Z        X      Y      Z        X      Y      Z   
After scan for Atom:   Atom  AN      X      Y      Z        X      Y      Z        X      Y      Z   
After scan for Atom:   Atom  AN      X      Y      Z        X      Y      Z        X      Y      Z   
After scan for Atom:   Atom  AN      X      Y      Z        X      Y      Z        X      Y      Z   
After scan for Atom:   Atom  AN      X      Y      Z        X      Y      Z        X      Y      Z   
After scan for Atom:   Atom  AN      X      Y      Z        X      Y      Z        X      Y      Z   
After scan for Atom:   Atom  AN      X      Y      Z        X      Y      Z        X      Y      Z   
After scan for Atom:   Atom  AN      X      Y      Z        X      Y      Z        X      Y      Z   
After scan for Atom:   Atom  AN      X      Y      Z        X      Y      Z        X      Y      Z   
After scan for Atom:   Atom  AN      X      Y      Z        X      Y      Z        X      Y      Z   
After scan for Atom:   Atom  AN      X      Y      Z        X      Y      Z        X      Y      Z   
After scan for Atom:   Atom  AN      X      Y      Z        X      Y      Z        X      Y      Z   
After scan for Atom:   Atom  AN      X      Y      Z        X      Y      Z        X      Y      Z   
After scan for Atom:   Atom  AN      X      Y      Z        X      Y      Z        X      Y      Z   
After scan for Atom:   Atom  AN      X      Y      Z        X      Y      Z        X      Y      Z   
After scan for Atom:   Atom  AN      X      Y      Z        X      Y      Z        X      Y      Z   
After scan for Atom:   Atom  AN      X      Y      Z        X      Y      Z        X      Y      Z   
After scan for Atom:   Atom  AN      X      Y      Z        X      Y      Z        X      Y      Z   
After scan for Atom:   Atom  AN      X      Y      Z        X      Y      Z        X      Y      Z   
After scan for Atom:   Atom  AN      X      Y      Z        X      Y      Z        X      Y      Z   
After scan for Atom:   Atom  AN      X      Y      Z        X      Y      Z        X      Y      Z   
After scan for Atom:   Atom  AN      X      Y      Z        X      Y      Z        X      Y      Z   
After scan for Atom:   Atom  AN      X      Y      Z        X      Y      Z        X      Y      Z   
After scan for Atom:   Atom  AN      X      Y      Z        X      Y      Z        X      Y      Z   
After scan for Atom:   Atom  AN      X      Y      Z        X      Y      Z        X      Y      Z   
 g94    frequencies=
     0.0    0.0    0.0    0.0    0.0    0.0  -71.0  -37.0   19.5   54.7
    56.4   59.9  113.7  137.2  155.9  174.3  226.1  238.6  314.3  337.4
   373.6  380.9  391.0  394.0  410.8  439.1  447.4  478.5  488.5  491.4
   541.5  569.2  613.1  626.5  636.0  644.5  654.3  669.5  706.5  727.1
   747.3  764.6  792.7  798.4  807.0  820.0  825.2  828.2  833.0  863.8
   887.5  944.9  978.5  983.1  994.7  996.1 1003.2 1007.8 1008.0 1011.8
  1015.0 1017.5 1019.2 1024.2 1027.0 1030.3 1051.1 1067.9 1106.3 1122.1
  1122.1 1152.0 1171.6 1195.0 1211.9 1223.4 1257.3 1261.1 1279.9 1306.1
  1309.1 1326.1 1338.4 1339.8 1355.4 1355.4 1361.7 1374.8 1435.4 1456.8
  1466.6 1470.4 1495.7 1501.4 1526.8 1531.2 1539.1 1552.8 1584.8 1593.8
  1594.6 1618.7 1640.3 1646.2 3166.9 3169.3 3184.6 3193.5 3201.8 3206.6
  3207.0 3211.6 3212.4 3212.8 3219.8 3220.5 3228.3 3229.0 3235.1 3236.9
 g94    symmetries=
                                                A2     A2     B1     B1
      A2     B2     B1     B2     B1     A1     B2     B1     B1     A1
      B2     A2     A2     A2     A2     B1     B2     B1     B2     A1
      B1     B1     B2     B2     A1     B2     B2     B1     A1     B1
      B1     A1     B1     A2     A1     B1     A2     A2     B1     B1
      B1     B1     A2     B1     A1     A2     A1     A1     A2     A1
      B1     A2     A1     B1     B1     A1     A1     A1     A1     B2
      B2     B2     B2     B2     A1     A1     B2     A1     B2     B2
      B2     A1     A1     B2     A1     B2     B2     B2     A1     B2
      B2     B2     B2     A1     A1     B2     B2     A1     B2     B2
      A1     A1     A1     A1     A1     B2     A1     B2     A1     A1
      B2     A1     B2     A1     B2     A1     B2     A1     B2     A1
 atomic masses:
 12.0000 12.0000 12.0000 12.0000 12.0000 12.0000 12.0000 12.0000 12.0000 12.0000
 12.0000 12.0000 12.0000 14.0031 12.0000 12.0000 12.0000 14.0031 12.0000 12.0000
 12.0000 12.0000 12.0000 12.0000  1.0078  1.0078  1.0078  1.0078  1.0078  1.0078
  1.0078  1.0078  1.0078  1.0078  1.0078  1.0078  1.0078  1.0078  1.0078  1.0078
 looking for force constants in 
 ./Non-cov-phenyl-N_1_C1S0.fchk                                                 
  
 Cartesian Force Constants                  R   N=        7260                  
  
 n3=         120        7260
 g94-fc frequencies=
   -71.0  -37.0   -6.5   -1.1   -0.0    0.0    0.0    1.0   19.5   54.7
    56.4   59.9  113.7  137.2  155.9  174.3  226.1  238.6  314.3  337.4
   373.6  380.9  391.0  394.0  410.8  439.1  447.4  478.5  488.5  491.4
   541.5  569.2  613.1  626.5  636.0  644.5  654.4  669.5  706.6  727.2
   747.3  764.6  792.7  798.4  807.0  820.0  825.2  828.2  833.1  863.8
   887.6  944.9  978.5  983.1  994.7  996.2 1003.2 1007.8 1008.0 1011.8
  1015.0 1017.5 1019.2 1024.3 1027.1 1030.3 1051.1 1067.9 1106.4 1122.1
  1122.1 1152.1 1171.7 1195.1 1211.9 1223.4 1257.3 1261.2 1279.9 1306.1
  1309.1 1326.1 1338.4 1339.8 1355.4 1355.4 1361.7 1374.8 1435.4 1456.9
  1466.6 1470.5 1495.8 1501.5 1526.9 1531.2 1539.2 1552.8 1584.8 1593.8
  1594.6 1618.8 1640.4 1646.2 3166.9 3169.4 3184.7 3193.5 3201.9 3206.6
  3207.0 3211.7 3212.5 3212.9 3219.9 3220.5 3228.4 3229.0 3235.2 3237.0
 at 99999: n3=         120
 symm operator            1 :  T  nop=           1
 symm operator            2 :  F  nop=           1
 symm operator            3 :  F  nop=           1
 symm operator            4 :  F  nop=           1
 symm operator            5 :  F  nop=           1
 symm operator            6 :  T  nop=           2
 symm operator            7 :  T  nop=           3
 The point group of the molecule is C2V
 enforcing symm op           1  jsymt=          -1          -1           1
 enforcing symm op           6  jsymt=           1          -1           1
 enforcing symm op           7  jsymt=          -1           1           1
 cartesian coord symmetries:
 A1 :   40 A2 :   15 B1 :   25 B2 :   40
 Symmetry rotation matrix:
   1.00000   0.00000   0.00000
   0.00000   1.00000   0.00000
   0.00000   0.00000   1.00000

 Projecting out zero-frequency components
 generating redundant internal coords
         300        3600          40
 search for int coords
   1 str   2   1   1.398
   2 str   3   2   1.383
   3 str   4   3   1.419
   4 str   5   4   1.459
   5 str   6   5   1.422
   6 str   7   6   1.371
   7 str   8   7   1.424
   8 str   9   8   1.451
   9 str  10   9   1.423
  10 str  11  10   1.376
  11 str  12  11   1.410
  12 str  13  12   1.477
  13 str  14  13   1.341
  14 str  15  14   1.331
  15 str  16  15   1.393
  16 str  17  16   1.393
  17 str  18  13   1.341
  18 str  18  17   1.331
  19 str  19  12   1.410
  20 str  20   9   1.423
  21 str  20  19   1.376
  22 str  21   8   1.424
  23 str  22   5   1.422
  24 str  22  21   1.371
  25 str  23   4   1.419
  26 str  24   1   1.398
  27 str  24  23   1.383
  28 str  25   1   1.083
  29 str  26   2   1.083
  30 str  27   3   1.080
  31 str  28   6   1.080
  32 str  29   7   1.080
  33 str  30  10   1.080
  34 str  31  11   1.081
  35 str  32  15   1.086
  36 str  33  16   1.082
  37 str  34  17   1.086
  38 str  35  19   1.081
  39 str  36  20   1.080
  40 str  37  21   1.080
  41 str  38  22   1.080
  42 str  39  23   1.080
  43 str  40  24   1.083
 nber stretches=          43
  44 ben   1   2   3
  45 prop tor   1   2   3   4
  46 prop tor   1   2   3  27
  47 ben   1   2  26
  48 ben   1  24  23
  49 ben   1  24  40
  50 ben   2   1  24
  51 prop tor   2   1  24  23
  52 prop tor   2   1  24  40
  53 ben   2   1  25
  54 ben   2   3   4
  55 prop tor   2   3   4   5
  56 prop tor   2   3   4  23
  57 ben   2   3  27
  58 ben   3   2  26
  59 ben   3   4   5
  60 prop tor   3   4   5   6
  61 prop tor   3   4   5  22
  62 ben   3   4  23
  63 prop tor   3   4  23  24
  64 prop tor   3   4  23  39
  65 ben   4   3  27
  66 ben   4   5   6
  67 prop tor   4   5   6   7
  68 prop tor   4   5   6  28
  69 ben   4   5  22
  70 prop tor   4   5  22  21
  71 prop tor   4   5  22  38
  72 ben   4  23  24
  73 prop tor   4  23  24   1
  74 prop tor   4  23  24  40
  75 ben   4  23  39
  76 ben   5   4  23
  77 prop tor   5   4  23  24
  78 prop tor   5   4  23  39
  79 ben   5   6   7
  80 prop tor   5   6   7   8
  81 prop tor   5   6   7  29
  82 ben   5   6  28
  83 ben   5  22  21
  84 ben   5  22  38
  85 ben   6   5  22
  86 prop tor   6   5  22  21
  87 prop tor   6   5  22  38
  88 ben   6   7   8
  89 prop tor   6   7   8   9
  90 prop tor   6   7   8  21
  91 ben   6   7  29
  92 ben   7   6  28
  93 ben   7   8   9
  94 prop tor   7   8   9  10
  95 prop tor   7   8   9  20
  96 ben   7   8  21
  97 prop tor   7   8  21  22
  98 prop tor   7   8  21  37
  99 ben   8   7  29
 100 ben   8   9  10
 101 prop tor   8   9  10  11
 102 prop tor   8   9  10  30
 103 ben   8   9  20
 104 prop tor   8   9  20  19
 105 prop tor   8   9  20  36
 106 ben   8  21  22
 107 prop tor   8  21  22   5
 108 prop tor   8  21  22  38
 109 ben   8  21  37
 110 ben   9   8  21
 111 prop tor   9   8  21  22
 112 prop tor   9   8  21  37
 113 ben   9  10  11
 114 prop tor   9  10  11  12
 115 prop tor   9  10  11  31
 116 ben   9  10  30
 117 ben   9  20  19
 118 ben   9  20  36
 119 ben  10   9  20
 120 prop tor  10   9  20  19
 121 prop tor  10   9  20  36
 122 ben  10  11  12
 123 prop tor  10  11  12  13
 124 prop tor  10  11  12  19
 125 ben  10  11  31
 126 ben  11  10  30
 127 ben  11  12  13
 128 prop tor  11  12  13  14
 129 prop tor  11  12  13  18
 130 ben  11  12  19
 131 prop tor  11  12  19  20
 132 prop tor  11  12  19  35
 133 ben  12  11  31
 134 ben  12  13  14
 135 prop tor  12  13  14  15
 136 ben  12  13  18
 137 prop tor  12  13  18  17
 138 ben  12  19  20
 139 prop tor  12  19  20   9
 140 prop tor  12  19  20  36
 141 ben  12  19  35
 142 ben  13  12  19
 143 prop tor  13  12  19  20
 144 prop tor  13  12  19  35
 145 ben  13  14  15
 146 prop tor  13  14  15  16
 147 prop tor  13  14  15  32
 148 ben  13  18  17
 149 ben  14  13  18
 150 prop tor  14  13  18  17
 151 ben  14  15  16
 152 prop tor  14  15  16  17
 153 prop tor  14  15  16  33
 154 ben  14  15  32
 155 ben  15  16  17
 156 prop tor  15  16  17  18
 157 prop tor  15  16  17  34
 158 ben  15  16  33
 159 ben  16  15  32
 160 ben  16  17  18
 161 prop tor  16  17  18  13
 162 ben  16  17  34
 163 ben  17  16  33
 164 prop tor  18  13  14  15
 165 ben  18  17  34
 166 prop tor  19  12  13  14
 167 prop tor  19  12  13  18
 168 ben  19  20  36
 169 prop tor  20   9  10  11
 170 prop tor  20   9  10  30
 171 ben  20  19  35
 172 prop tor  21   8   9  10
 173 prop tor  21   8   9  20
 174 ben  21  22  38
 175 prop tor  22   5   6   7
 176 prop tor  22   5   6  28
 177 ben  22  21  37
 178 prop tor  23   4   5   6
 179 prop tor  23   4   5  22
 180 ben  23  24  40
 181 prop tor  24   1   2   3
 182 prop tor  24   1   2  26
 183 ben  24   1  25
 184 ben  24  23  39
 185 prop tor  25   1   2   3
 186 prop tor  25   1   2  26
 187 prop tor  25   1  24  23
 188 prop tor  25   1  24  40
 189 prop tor  26   2   3   4
 190 prop tor  26   2   3  27
 191 prop tor  27   3   4   5
 192 prop tor  27   3   4  23
 193 prop tor  28   6   7   8
 194 prop tor  28   6   7  29
 195 prop tor  29   7   8   9
 196 prop tor  29   7   8  21
 197 prop tor  30  10  11  12
 198 prop tor  30  10  11  31
 199 prop tor  31  11  12  13
 200 prop tor  31  11  12  19
 201 prop tor  32  15  16  17
 202 prop tor  32  15  16  33
 203 prop tor  33  16  17  18
 204 prop tor  33  16  17  34
 205 prop tor  34  17  18  13
 206 prop tor  35  19  20   9
 207 prop tor  35  19  20  36
 208 prop tor  37  21  22   5
 209 prop tor  37  21  22  38
 210 prop tor  39  23  24   1
 211 prop tor  39  23  24  40
 nber bend=              68
 nber lin bend=           0
 nber prop tor=         100
 nber impr tor=           0
 nber tot redund int=         211
 Eigenvalues of G in red int coords
    Gval -0.00000000 -0.00000000 -0.00000000 -0.00000000 -0.00000000 -0.00000000 -0.00000000 -0.00000000
    Gval -0.00000000 -0.00000000 -0.00000000 -0.00000000 -0.00000000 -0.00000000 -0.00000000 -0.00000000
    Gval -0.00000000 -0.00000000 -0.00000000 -0.00000000 -0.00000000 -0.00000000 -0.00000000 -0.00000000
    Gval -0.00000000 -0.00000000 -0.00000000 -0.00000000 -0.00000000 -0.00000000 -0.00000000 -0.00000000
    Gval -0.00000000 -0.00000000 -0.00000000 -0.00000000 -0.00000000 -0.00000000 -0.00000000 -0.00000000
    Gval -0.00000000 -0.00000000 -0.00000000 -0.00000000 -0.00000000 -0.00000000 -0.00000000 -0.00000000
    Gval -0.00000000 -0.00000000 -0.00000000 -0.00000000 -0.00000000  0.00000000  0.00000000  0.00000000
    Gval  0.00000000  0.00000000  0.00000000  0.00000000  0.00000000  0.00000000  0.00000000  0.00000000
    Gval  0.00000000  0.00000000  0.00000000  0.00000000  0.00000000  0.00000000  0.00000000  0.00000000
    Gval  0.00000000  0.00000000  0.00000000  0.00000000  0.00000000  0.00000000  0.00000000  0.00000000
    Gval  0.00000000  0.00000000  0.00000000  0.00000000  0.00000000  0.00000000  0.00000000  0.00000000
    Gval  0.00000000  0.00000000  0.00000000  0.00000000  0.00000000  0.00000000  0.00000000  0.00000000
    Gval  0.00000000  0.00000050  0.00000199  0.00000204  0.00000301  0.00000777  0.00000842  0.00001268
    Gval  0.00001399  0.00001538  0.00002038  0.00002781  0.00002981  0.00004237  0.00004495  0.00004512
    Gval  0.00004868  0.00005032  0.00005204  0.00005619  0.00005629  0.00005879  0.00005881  0.00006689
    Gval  0.00006817  0.00007829  0.00008083  0.00009258  0.00009972  0.00010634  0.00010914  0.00011669
    Gval  0.00011686  0.00011693  0.00012071  0.00012248  0.00012765  0.00013317  0.00017338  0.00021551
    Gval  0.00023594  0.00025112  0.00025936  0.00027174  0.00028263  0.00028744  0.00030335  0.00035206
    Gval  0.00036113  0.00037977  0.00039046  0.00039505  0.00040159  0.00041605  0.00043536  0.00050702
    Gval  0.00053167  0.00057532  0.00059305  0.00059347  0.00059364  0.00059655  0.00059858  0.00059956
    Gval  0.00060003  0.00060154  0.00060390  0.00060419  0.00062111  0.00062308  0.00063341  0.00064148
    Gval  0.00064339  0.00064808  0.00065025  0.00066052  0.00073385  0.00091480  0.00104323  0.00106251
    Gval  0.00107205  0.00107844  0.00108273  0.00110985  0.00111146  0.00111308  0.00113219  0.00114146
    Gval  0.00115646  0.00115800  0.00117293  0.00117365  0.00117410  0.00117491  0.00117543  0.00140202
    Gval  0.00142564  0.00145782  0.00157730  0.00174206  0.00194543  0.00227706  0.00234334  0.00235389
    Gval  0.00236558  0.00239339  0.00266496  0.00314797  0.00359153  0.00367581  0.00368830  0.00372486
    Gval  0.00373206  0.00374709  0.00406377
  5.019932596302598E-007  5.019932596302598E-007
  1.993156842813801E-006  5.019932596302598E-007
  2.039949255887100E-006  5.019932596302598E-007
  3.006590996803440E-006  5.019932596302598E-007
  7.769395346338699E-006  5.019932596302598E-007
  8.417387647119714E-006  5.019932596302598E-007
  1.267842685150647E-005  5.019932596302598E-007
  1.398716936363727E-005  5.019932596302598E-007
  1.537627757624953E-005  5.019932596302598E-007
  2.038053759409773E-005  5.019932596302598E-007
  2.780935027955189E-005  5.019932596302598E-007
  2.981032776747959E-005  5.019932596302598E-007
  4.237115706445583E-005  5.019932596302598E-007
  4.494552298656078E-005  5.019932596302598E-007
  4.512407337060782E-005  5.019932596302598E-007
  4.867546720595772E-005  5.019932596302598E-007
  5.031545389764742E-005  5.019932596302598E-007
  5.203873648969558E-005  5.019932596302598E-007
  5.619150203255471E-005  5.019932596302598E-007
  5.629202730401205E-005  5.019932596302598E-007
  5.879351604034813E-005  5.019932596302598E-007
  5.881356341664040E-005  5.019932596302598E-007
  6.689346399301522E-005  5.019932596302598E-007
  6.816970708603312E-005  5.019932596302598E-007
  7.829291961880219E-005  5.019932596302598E-007
  8.083385212590196E-005  5.019932596302598E-007
  9.258251504159478E-005  5.019932596302598E-007
  9.972308399196992E-005  5.019932596302598E-007
  1.063436705917379E-004  5.019932596302598E-007
  1.091393539564778E-004  5.019932596302598E-007
  1.166921344620347E-004  5.019932596302598E-007
  1.168608725053178E-004  5.019932596302598E-007
  1.169328109176680E-004  5.019932596302598E-007
  1.207121016450484E-004  5.019932596302598E-007
  1.224822117195841E-004  5.019932596302598E-007
  1.276450116069352E-004  5.019932596302598E-007
  1.331712529164326E-004  5.019932596302598E-007
  1.733829883709601E-004  5.019932596302598E-007
  2.155084630480396E-004  5.019932596302598E-007
  2.359357300470839E-004  5.019932596302598E-007
  2.511239102033709E-004  5.019932596302598E-007
  2.593570363299155E-004  5.019932596302598E-007
  2.717405120895242E-004  5.019932596302598E-007
  2.826281795414932E-004  5.019932596302598E-007
  2.874350315277841E-004  5.019932596302598E-007
  3.033462146995521E-004  5.019932596302598E-007
  3.520627567690679E-004  5.019932596302598E-007
  3.611273845753328E-004  5.019932596302598E-007
  3.797739404926823E-004  5.019932596302598E-007
  3.904585350259071E-004  5.019932596302598E-007
  3.950453524649836E-004  5.019932596302598E-007
  4.015932342152200E-004  5.019932596302598E-007
  4.160463635488862E-004  5.019932596302598E-007
  4.353612368922291E-004  5.019932596302598E-007
  5.070197574857492E-004  5.019932596302598E-007
  5.316726593811967E-004  5.019932596302598E-007
  5.753225239965605E-004  5.019932596302598E-007
  5.930527049761998E-004  5.019932596302598E-007
  5.934673091486366E-004  5.019932596302598E-007
  5.936393982991894E-004  5.019932596302598E-007
  5.965506801496852E-004  5.019932596302598E-007
  5.985812469105222E-004  5.019932596302598E-007
  5.995633399173016E-004  5.019932596302598E-007
  6.000265476329299E-004  5.019932596302598E-007
  6.015412033032753E-004  5.019932596302598E-007
  6.038995542756877E-004  5.019932596302598E-007
  6.041944915125695E-004  5.019932596302598E-007
  6.211130858749548E-004  5.019932596302598E-007
  6.230820350838935E-004  5.019932596302598E-007
  6.334123245469111E-004  5.019932596302598E-007
  6.414768896129486E-004  5.019932596302598E-007
  6.433936174448065E-004  5.019932596302598E-007
  6.480826902949649E-004  5.019932596302598E-007
  6.502501198162339E-004  5.019932596302598E-007
  6.605234168251976E-004  5.019932596302598E-007
  7.338530982476175E-004  5.019932596302598E-007
  9.148000674285288E-004  5.019932596302598E-007
  1.043231840594211E-003  5.019932596302598E-007
  1.062509399828609E-003  5.019932596302598E-007
  1.072054923412376E-003  5.019932596302598E-007
  1.078441398219573E-003  5.019932596302598E-007
  1.082729027722841E-003  5.019932596302598E-007
  1.109848973765036E-003  5.019932596302598E-007
  1.111456416857738E-003  5.019932596302598E-007
  1.113082704946207E-003  5.019932596302598E-007
  1.132190955904917E-003  5.019932596302598E-007
  1.141461642421090E-003  5.019932596302598E-007
  1.156461052106317E-003  5.019932596302598E-007
  1.157998312056841E-003  5.019932596302598E-007
  1.172929077019546E-003  5.019932596302598E-007
  1.173650757779127E-003  5.019932596302598E-007
  1.174100310341334E-003  5.019932596302598E-007
  1.174911551120264E-003  5.019932596302598E-007
  1.175426777537638E-003  5.019932596302598E-007
  1.402024289883848E-003  5.019932596302598E-007
  1.425642413323124E-003  5.019932596302598E-007
  1.457820075485250E-003  5.019932596302598E-007
  1.577304160862399E-003  5.019932596302598E-007
  1.742056366409723E-003  5.019932596302598E-007
  1.945431972976042E-003  5.019932596302598E-007
  2.277063453477614E-003  5.019932596302598E-007
  2.343340152329251E-003  5.019932596302598E-007
  2.353885944184075E-003  5.019932596302598E-007
  2.365579441952518E-003  5.019932596302598E-007
  2.393389947856003E-003  5.019932596302598E-007
  2.664956487664681E-003  5.019932596302598E-007
  3.147967964204414E-003  5.019932596302598E-007
  3.591525110756738E-003  5.019932596302598E-007
  3.675813705227606E-003  5.019932596302598E-007
  3.688297236707921E-003  5.019932596302598E-007
  3.724855094374304E-003  5.019932596302598E-007
  3.732064417229743E-003  5.019932596302598E-007
  3.747087024893258E-003  5.019932596302598E-007
  4.063773277066274E-003  5.019932596302598E-007
 cut=1d-8, nber non-redundant internal coords=         114
 Check on Eigenvals of non-red overlap matrix:
  0.00000050  0.00000199  0.00000204  0.00000301  0.00000777  0.00000842  0.00001268  0.00001399
  0.00001538  0.00002038  0.00002781  0.00002981  0.00004237  0.00004495  0.00004512  0.00004868
  0.00005032  0.00005204  0.00005619  0.00005629  0.00005879  0.00005881  0.00006689  0.00006817
  0.00007829  0.00008083  0.00009258  0.00009972  0.00010634  0.00010914  0.00011669  0.00011686
  0.00011693  0.00012071  0.00012248  0.00012765  0.00013317  0.00017338  0.00021551  0.00023594
  0.00025112  0.00025936  0.00027174  0.00028263  0.00028744  0.00030335  0.00035206  0.00036113
  0.00037977  0.00039046  0.00039505  0.00040159  0.00041605  0.00043536  0.00050702  0.00053167
  0.00057532  0.00059305  0.00059347  0.00059364  0.00059655  0.00059858  0.00059956  0.00060003
  0.00060154  0.00060390  0.00060419  0.00062111  0.00062308  0.00063341  0.00064148  0.00064339
  0.00064808  0.00065025  0.00066052  0.00073385  0.00091480  0.00104323  0.00106251  0.00107205
  0.00107844  0.00108273  0.00110985  0.00111146  0.00111308  0.00113219  0.00114146  0.00115646
  0.00115800  0.00117293  0.00117365  0.00117410  0.00117491  0.00117543  0.00140202  0.00142564
  0.00145782  0.00157730  0.00174206  0.00194543  0.00227706  0.00234334  0.00235389  0.00236558
  0.00239339  0.00266496  0.00314797  0.00359153  0.00367581  0.00368830  0.00372486  0.00373206
  0.00374709  0.00406377
 Checking for correct frequencies
 recalc frequencies=
   -71.0  -37.0   -0.0   -0.0   -0.0   -0.0    0.0    0.0   19.5   54.7
    56.4   59.9  113.7  137.2  155.9  174.3  226.1  238.6  314.3  337.4
   373.6  380.9  391.0  394.0  410.8  439.1  447.4  478.5  488.5  491.4
   541.5  569.2  613.1  626.5  636.0  644.5  654.4  669.5  706.6  727.2
   747.3  764.6  792.7  798.4  807.0  820.0  825.2  828.2  833.1  863.8
   887.6  944.9  978.5  983.1  994.7  996.2 1003.2 1007.8 1008.0 1011.8
  1015.0 1017.5 1019.2 1024.3 1027.1 1030.3 1051.1 1067.9 1106.4 1122.1
  1122.1 1152.1 1171.7 1195.1 1211.9 1223.4 1257.3 1261.2 1279.9 1306.1
  1309.1 1326.1 1338.4 1339.8 1355.4 1355.4 1361.7 1374.8 1435.4 1456.9
  1466.6 1470.5 1495.8 1501.5 1526.9 1531.2 1539.2 1552.8 1584.8 1593.8
  1594.6 1618.8 1640.4 1646.2 3166.9 3169.4 3184.7 3193.5 3201.9 3206.6
  3207.0 3211.7 3212.5 3212.9 3219.9 3220.5 3228.4 3229.0 3235.2 3237.0
 recalc symmetries=
     A2     A2     A1     B1     B1     B2     A2     B2     B1     B1 
     A2     B2     B1     B2     B1     A1     B2     B1     B1     A1 
     B2     A2     A2     A2     A2     B1     B2     B1     B2     A1 
     B1     B1     B2     B2     A1     B2     B2     B1     A1     B1 
     B1     A1     B1     A2     A1     B1     A2     A2     B1     B1 
     B1     B1     A2     B1     A1     A2     A1     A1     A2     A1 
     B1     A2     A1     B1     B1     A1     A1     A1     A1     B2 
     B2     B2     B2     B2     A1     A1     B2     A1     B2     B2 
     B2     A1     A1     B2     A1     B2     B2     B2     A1     B2 
     B2     B2     B2     A1     A1     B2     B2     A1     B2     B2 
     A1     A1     A1     A1     A1     B2     A1     B2     A1     A1 
     B2     A1     B2     A1     B2     A1     B2     A1     B2     A1 
 recalc freqs check OK
 Zero-point lengths:
 29.4191 40.7778 10.0000 10.0000 10.0000 10.0000 10.0000 10.0000 56.0893 33.5279
 33.0213 32.0405 23.2523 21.1665 19.8555 18.7785 16.4883 16.0484 13.9827 13.4958
 12.8260 12.7017 12.5368 12.4892 12.2321 11.8310 11.7205 11.3328 11.2165 11.1836
 10.6534 10.3907 10.0122  9.9042  9.8300  9.7654  9.6915  9.5813  9.3265  9.1935
  9.0686  8.9656  8.8050  8.7737  8.7267  8.6576  8.6303  8.6145  8.5893  8.4351
  8.3214  8.0650  7.9254  7.9067  7.8604  7.8547  7.8270  7.8091  7.8086  7.7937
  7.7815  7.7720  7.7654  7.7462  7.7357  7.7235  7.6467  7.5862  7.4533  7.4009
  7.4007  7.3039  7.2426  7.1713  7.1214  7.0877  6.9915  6.9809  6.9296  6.8597
  6.8518  6.8077  6.7764  6.7729  6.7338  6.7337  6.7182  6.6860  6.5435  6.4951
  6.4734  6.4650  6.4101  6.3979  6.3445  6.3355  6.3191  6.2912  6.2274  6.2098
  6.2082  6.1617  6.1210  6.1101  4.4053  4.4036  4.3930  4.3869  4.3812  4.3779
  4.3777  4.3745  4.3739  4.3737  4.3689  4.3685  4.3632  4.3627  4.3586  4.3574
 highest evec of mol 2
  0.0000  0.0000  0.0043
  0.0000  0.0111  0.0081
  0.0000  0.0548 -0.0293
  0.0000  0.0000 -0.0020
  0.0000  0.0000  0.0044
  0.0000 -0.0996  0.0578
  0.0000 -0.1121 -0.0638
  0.0000  0.0000 -0.0047
  0.0000  0.0000  0.0029
  0.0000 -0.0739  0.0406
  0.0000 -0.0281 -0.0190
  0.0000  0.0000 -0.0018
  0.0000  0.0000 -0.0001
  0.0000  0.0001 -0.0001
  0.0000 -0.0002 -0.0000
  0.0000  0.0000 -0.0001
  0.0000  0.0002 -0.0000
  0.0000 -0.0001 -0.0001
  0.0000  0.0281 -0.0190
  0.0000  0.0739  0.0406
  0.0000  0.1121 -0.0638
  0.0000  0.0996  0.0578
  0.0000 -0.0548 -0.0293
  0.0000 -0.0111  0.0081
  0.0000  0.0000 -0.0115
  0.0000 -0.0350 -0.0207
  0.0000 -0.1829  0.1026
  0.0000  0.3295 -0.1814
  0.0000  0.3711  0.2039
  0.0000  0.2470 -0.1380
  0.0000  0.0909  0.0538
  0.0000  0.0006  0.0003
  0.0000  0.0000  0.0003
  0.0000 -0.0006  0.0003
  0.0000 -0.0909  0.0538
  0.0000 -0.2470 -0.1380
  0.0000 -0.3711  0.2039
  0.0000 -0.3295 -0.1814
  0.0000  0.1829  0.1026
  0.0000  0.0350 -0.0207
 Enter nber and list of atoms to keep of mol #2
 keep list:          40           1           2           3           4
           5           6           7           8           9          10
          11          12          13          14          15          16
          17          18          19          20          21          22
          23          24          25          26          27          28
          29          30          31          32          33          34
          35          36          37          38          39          40
 reordering atoms
           1   7.92293056285474     
           2   7.22168456285474     
           3   5.83873056285474     
           4   5.10040156285474     
           5   3.64177656285474     
           6   2.88848456285474     
           7   1.51717856285474     
           8  0.762707562854740     
           9 -0.687865437145260     
          10  -1.43273643714526     
          11  -2.80850743714526     
          12  -3.52578043714526     
          13  -5.00267143714526     
          14  -5.61243543714526     
          15  -6.94381543714526     
          16  -7.67498243714526     
          17  -6.94381543714526     
          18  -5.61243543714526     
          19  -2.80850743714526     
          20  -1.43273643714526     
          21   1.51717856285474     
          22   2.88848456285474     
          23   5.83873056285474     
          24   7.22168456285474     
          25   9.00639656285474     
          26   7.76079656285474     
          27   5.33101356285474     
          28   3.39336056285474     
          29   1.01319256285474     
          30 -0.925871437145260     
          31  -3.36362543714526     
          32  -7.43627843714526     
          33  -8.75712643714526     
          34  -7.43627843714526     
          35  -3.36362543714526     
          36 -0.925871437145260     
          37   1.01319256285474     
          38   3.39336056285474     
          39   5.33101356285474     
          40   7.76079656285474     
           1           1
           2           2
           3           3
           4           4
           5           5
           6           6
           7           7
           8           8
           9           9
          10          10
          11          11
          12          12
          13          13
          14          14
          15          15
          16          16
          17          17
          18          18
          19          19
          20          20
          21          21
          22          22
          23          23
          24          24
          25          25
          26          26
          27          27
          28          28
          29          29
          30          30
          31          31
          32          32
          33          33
          34          34
          35          35
          36          36
          37          37
          38          38
          39          39
          40          40
 initial cartes coords mol 1
   6   0.00000   0.00000   7.98151
   6   0.00000  -1.19924   7.27405
   6   0.00000  -1.19780   5.88353
   6   0.00000   0.00000   5.14731
   6   0.00000   0.00000   3.65749
   6   0.00000   1.18982   2.91175
   6   0.00000   1.19008   1.52499
   6   0.00000   0.00000   0.77914
   6   0.00000   0.00000  -0.70786
   6   0.00000   1.19711  -1.44720
   6   0.00000   1.20073  -2.83351
   6   0.00000   0.00000  -3.55360
   6   0.00000   0.00000  -5.03368
   7   0.00000   1.19197  -5.65604
   6   0.00000   1.17960  -6.98661
   6   0.00000   0.00000  -7.72398
   6   0.00000  -1.17960  -6.98661
   7   0.00000  -1.19197  -5.65604
   6   0.00000  -1.20073  -2.83351
   6   0.00000  -1.19711  -1.44720
   6   0.00000  -1.19008   1.52499
   6   0.00000  -1.18982   2.91175
   6   0.00000   1.19780   5.88353
   6   0.00000   1.19924   7.27405
   1   0.00000   0.00000   9.06534
   1   0.00000  -2.14436   7.80561
   1   0.00000  -2.15221   5.37432
   1   0.00000   2.14884   3.41278
   1   0.00000   2.14865   1.02365
   1   0.00000   2.15278  -0.94027
   1   0.00000   2.13535  -3.37881
   1   0.00000   2.14961  -7.47758
   1   0.00000   0.00000  -8.80631
   1   0.00000  -2.14961  -7.47758
   1   0.00000  -2.13535  -3.37881
   1   0.00000  -2.15278  -0.94027
   1   0.00000  -2.14865   1.02365
   1   0.00000  -2.14884   3.41278
   1   0.00000   2.15221   5.37432
   1   0.00000   2.14436   7.80561
 initial cartes coords mol 2
   6   0.00000  -0.00000   7.92293
   6   0.00000  -1.20910   7.22168
   6   0.00000  -1.21130   5.83873
   6   0.00000  -0.00000   5.10040
   6   0.00000  -0.00000   3.64178
   6   0.00000   1.20664   2.88848
   6   0.00000   1.20742   1.51718
   6   0.00000  -0.00000   0.76271
   6   0.00000  -0.00000  -0.68787
   6   0.00000   1.21300  -1.43274
   6   0.00000   1.21351  -2.80851
   6   0.00000  -0.00000  -3.52578
   6   0.00000  -0.00000  -5.00267
   7   0.00000   1.19490  -5.61244
   6   0.00000   1.18610  -6.94382
   6   0.00000  -0.00000  -7.67498
   6   0.00000  -1.18610  -6.94382
   7   0.00000  -1.19490  -5.61244
   6   0.00000  -1.21351  -2.80851
   6   0.00000  -1.21300  -1.43274
   6   0.00000  -1.20742   1.51718
   6   0.00000  -1.20664   2.88848
   6   0.00000   1.21130   5.83873
   6   0.00000   1.20910   7.22168
   1   0.00000  -0.00000   9.00640
   1   0.00000  -2.14839   7.76080
   1   0.00000  -2.16508   5.33101
   1   0.00000   2.16160   3.39336
   1   0.00000   2.16279   1.01319
   1   0.00000   2.16714  -0.92587
   1   0.00000   2.14159  -3.36363
   1   0.00000   2.15361  -7.43628
   1   0.00000  -0.00000  -8.75713
   1   0.00000  -2.15361  -7.43628
   1   0.00000  -2.14159  -3.36363
   1   0.00000  -2.16714  -0.92587
   1   0.00000  -2.16279   1.01319
   1   0.00000  -2.16160   3.39336
   1   0.00000   2.16508   5.33101
   1   0.00000   2.14839   7.76080
 loop 1 0
 mod cartes coords mol 2
   6   0.00000  -0.00000   7.92293
   6   0.00000  -1.20910   7.22168
   6   0.00000  -1.21130   5.83873
   6   0.00000  -0.00000   5.10040
   6   0.00000  -0.00000   3.64178
   6   0.00000   1.20664   2.88848
   6   0.00000   1.20742   1.51718
   6   0.00000  -0.00000   0.76271
   6   0.00000  -0.00000  -0.68787
   6   0.00000   1.21300  -1.43274
   6   0.00000   1.21351  -2.80851
   6   0.00000  -0.00000  -3.52578
   6   0.00000  -0.00000  -5.00267
   7   0.00000   1.19490  -5.61244
   6   0.00000   1.18610  -6.94382
   6   0.00000  -0.00000  -7.67498
   6   0.00000  -1.18610  -6.94382
   7   0.00000  -1.19490  -5.61244
   6   0.00000  -1.21351  -2.80851
   6   0.00000  -1.21300  -1.43274
   6   0.00000  -1.20742   1.51718
   6   0.00000  -1.20664   2.88848
   6   0.00000   1.21130   5.83873
   6   0.00000   1.20910   7.22168
   1   0.00000  -0.00000   9.00640
   1   0.00000  -2.14839   7.76080
   1   0.00000  -2.16508   5.33101
   1   0.00000   2.16160   3.39336
   1   0.00000   2.16279   1.01319
   1   0.00000   2.16714  -0.92587
   1   0.00000   2.14159  -3.36363
   1   0.00000   2.15361  -7.43628
   1   0.00000  -0.00000  -8.75713
   1   0.00000  -2.15361  -7.43628
   1   0.00000  -2.14159  -3.36363
   1   0.00000  -2.16714  -0.92587
   1   0.00000  -2.16279   1.01319
   1   0.00000  -2.16160   3.39336
   1   0.00000   2.16508   5.33101
   1   0.00000   2.14839   7.76080
 read in order, maxerr=  0.06 for atom  25
 final axis swaps:           1           1           1
 final xyz swap pattern=           1
 reorder list:
   1   2   3   4   5   6   7   8   9  10  11  12  13  14  15  16  17  18  19  20
  21  22  23  24  25  26  27  28  29  30  31  32  33  34  35  36  37  38  39  40
 axis signs=           1           1           1
  6     0.000000 -0.000000  7.922931     0.000000  0.000000  7.981509
  6     0.000000 -1.209101  7.221685     0.000000 -1.199243  7.274050
  6     0.000000 -1.211298  5.838731     0.000000 -1.197796  5.883532
  6     0.000000 -0.000000  5.100402     0.000000  0.000000  5.147308
  6     0.000000 -0.000000  3.641777     0.000000  0.000000  3.657486
  6     0.000000  1.206643  2.888485     0.000000  1.189825  2.911746
  6     0.000000  1.207420  1.517179     0.000000  1.190076  1.524994
  6     0.000000 -0.000000  0.762708     0.000000  0.000000  0.779135
  6     0.000000 -0.000000 -0.687865     0.000000  0.000000 -0.707865
  6     0.000000  1.212998 -1.432736     0.000000  1.197115 -1.447199
  6     0.000000  1.213515 -2.808507     0.000000  1.200727 -2.833515
  6     0.000000 -0.000000 -3.525780     0.000000  0.000000 -3.553602
  6     0.000000 -0.000000 -5.002671     0.000000  0.000000 -5.033680
  7     0.000000  1.194902 -5.612435     0.000000  1.191967 -5.656042
  6     0.000000  1.186096 -6.943815     0.000000  1.179603 -6.986608
  6     0.000000 -0.000000 -7.674982     0.000000  0.000000 -7.723976
  6     0.000000 -1.186096 -6.943815     0.000000 -1.179603 -6.986608
  7     0.000000 -1.194902 -5.612435     0.000000 -1.191967 -5.656042
  6     0.000000 -1.213515 -2.808507     0.000000 -1.200727 -2.833515
  6     0.000000 -1.212998 -1.432736     0.000000 -1.197115 -1.447199
  6     0.000000 -1.207420  1.517179     0.000000 -1.190076  1.524994
  6     0.000000 -1.206643  2.888485     0.000000 -1.189825  2.911746
  6     0.000000  1.211298  5.838731     0.000000  1.197796  5.883532
  6     0.000000  1.209101  7.221685     0.000000  1.199243  7.274050
  1     0.000000 -0.000000  9.006397     0.000000  0.000000  9.065343
  1     0.000000 -2.148395  7.760797     0.000000 -2.144358  7.805609
  1     0.000000 -2.165078  5.331014     0.000000 -2.152211  5.374319
  1     0.000000  2.161596  3.393361     0.000000  2.148844  3.412781
  1     0.000000  2.162793  1.013193     0.000000  2.148645  1.023646
  1     0.000000  2.167138 -0.925871     0.000000  2.152775 -0.940269
  1     0.000000  2.141586 -3.363625     0.000000  2.135354 -3.378814
  1     0.000000  2.153612 -7.436278     0.000000  2.149614 -7.477582
  1     0.000000 -0.000000 -8.757126     0.000000  0.000000 -8.806310
  1     0.000000 -2.153612 -7.436278     0.000000 -2.149614 -7.477582
  1     0.000000 -2.141586 -3.363625     0.000000 -2.135354 -3.378814
  1     0.000000 -2.167138 -0.925871     0.000000 -2.152775 -0.940269
  1     0.000000 -2.162793  1.013193     0.000000 -2.148645  1.023646
  1     0.000000 -2.161596  3.393361     0.000000 -2.148844  3.412781
  1     0.000000  2.165078  5.331014     0.000000  2.152211  5.374319
  1     0.000000  2.148395  7.760797     0.000000  2.144358  7.805609
 generating redundant internal coords
         300        3600          40
 Adding extra bonds for z output only
           6           6           6           6           6           6
           6           6           6           6           6           6
           6           7           6           6           6           7
           6           6           6           6           6           6
           1           1           1           1           1           1
           1           1           1           1           1           1
           1           1           1           1
 search for int coords
   1 str   2   1   1.398
   2 str   3   2   1.383
   3 str   4   3   1.419
   4 str   5   4   1.459
   5 str   6   5   1.422
   6 str   7   6   1.371
   7 str   8   7   1.424
   8 str   9   8   1.451
   9 str  10   9   1.423
  10 str  11  10   1.376
  11 str  12  11   1.410
  12 str  13  12   1.477
  13 str  14  13   1.341
  14 str  15  14   1.331
  15 str  16  15   1.393
  16 str  17  16   1.393
  17 str  18  13   1.341
  18 str  18  17   1.331
  19 str  19  12   1.410
  20 str  20   9   1.423
  21 str  20  19   1.376
  22 str  21   8   1.424
  23 str  22   5   1.422
  24 str  22  21   1.371
  25 str  23   4   1.419
  26 str  24   1   1.398
  27 str  24  23   1.383
  28 str  25   1   1.083
  29 str  26   2   1.083
  30 str  27   3   1.080
  31 str  28   6   1.080
  32 str  29   7   1.080
[...]
                -0.4773    22.8         100 B2   1594.
  98 B2   1596.  0.7016    49.2   100.4  96 B2   1531.
                 0.6011    36.1         100 B2   1594.
  99 A1   1614.  0.9631    92.8    99.8 101 A1   1595.
 100 B2   1614. -0.6226    38.8   100.4  97 B2   1539.
                -0.6348    40.3         100 B2   1594.
 101 B2   1623.  0.3925    15.4   100.5  96 B2   1531.
                -0.8864    78.6          99 B2   1585.
 102 A1   1638.  0.3570    12.7    99.6 102 A1   1619.
                 0.8852    78.4         104 A1   1646.
 103 A1   1647. -0.8903    79.3    99.6 102 A1   1619.
                 0.4026    16.2         104 A1   1646.
 104 A1   1659. -0.9694    94.0    99.6 103 A1   1640.
 105 A1   3142. -0.9996    99.9   100.0 105 A1   3167.
 106 B2   3144. -1.0000   100.0   100.0 106 B2   3169.
 107 A1   3162. -0.9886    97.7   100.0 107 A1   3185.
 108 B2   3170. -0.9994    99.9   100.0 108 B2   3193.
 109 A1   3181. -0.6960    48.4   100.0 109 A1   3202.
                -0.6568    43.1         110 A1   3207.
 110 B2   3183. -0.9628    92.7   100.0 111 B2   3207.
 111 A1   3186.  0.6640    44.1   100.0 109 A1   3202.
                -0.7204    51.9         110 A1   3207.
 112 B2   3191. -0.9529    90.8   100.0 113 B2   3212.
 113 A1   3192. -0.9317    86.8   100.0 114 A1   3213.
 114 B2   3201.  0.8242    67.9   100.0 115 B2   3220.
                 0.5114    26.2         117 B2   3228.
 115 A1   3202.  0.9702    94.1   100.0 112 A1   3212.
 116 A1   3202.  0.8595    73.9   100.0 116 A1   3220.
                 0.3819    14.6         118 A1   3229.
 117 B2   3207. -0.4014    16.1   100.0 115 B2   3220.
                 0.7794    60.7         117 B2   3228.
                 0.4218    17.8         119 B2   3235.
 118 A1   3209. -0.3292    10.8   100.0 116 A1   3220.
                 0.8426    71.0         118 A1   3229.
                 0.3499    12.2         120 A1   3237.
 119 B2   3212.  0.3482    12.1   100.0 115 B2   3220.
                 0.8892    79.1         119 B2   3235.
 120 A1   3214. -0.9199    84.6   100.0 120 A1   3237.
 nber times 1st assigned=           1           0
 nber times 1st assigned=           2           0
 nber times 1st assigned=           3           0
 nber times 1st assigned=           4           0
 nber times 1st assigned=           5           0
 nber times 1st assigned=           6           0
 nber times 1st assigned=           7           0
 nber times 1st assigned=           8           0
 nber times 1st assigned=           9           0
 nber times 1st assigned=          10           0
 nber times 1st assigned=          11           0
 nber times 1st assigned=          12           0
 nber times 1st assigned=          13           0
 nber times 1st assigned=          14           0
 nber times 1st assigned=          15           0
 nber times 1st assigned=          16           0
 nber times 1st assigned=          17           0
 nber times 1st assigned=          18           0
 nber times 1st assigned=          19           0
 nber times 1st assigned=          20           0
 nber times 1st assigned=          21           0
 nber times 1st assigned=          22           0
 nber times 1st assigned=          23           0
 nber times 1st assigned=          24           0
 nber times 1st assigned=          25           0
 nber times 1st assigned=          26           0
 nber times 1st assigned=          27           0
 nber times 1st assigned=          28           0
 nber times 1st assigned=          29           0
 nber times 1st assigned=          30           0
 nber times 1st assigned=          31           0
 nber times 1st assigned=          32           0
 nber times 1st assigned=          33           0
 nber times 1st assigned=          34           0
 nber times 1st assigned=          35           0
 nber times 1st assigned=          36           0
 nber times 1st assigned=          37           0
 nber times 1st assigned=          38           0
 nber times 1st assigned=          39           0
 nber times 1st assigned=          40           0
 nber times 1st assigned=          41           0
 nber times 1st assigned=          42           0
 nber times 1st assigned=          43           0
 nber times 1st assigned=          44           0
 nber times 1st assigned=          45           0
 nber times 1st assigned=          46           0
 nber times 1st assigned=          47           0
 nber times 1st assigned=          48           0
 nber times 1st assigned=          49           0
 nber times 1st assigned=          50           0
 nber times 1st assigned=          51           0
 nber times 1st assigned=          52           0
 nber times 1st assigned=          53           0
 nber times 1st assigned=          54           0
 nber times 1st assigned=          55           0
 nber times 1st assigned=          56           0
 nber times 1st assigned=          57           0
 nber times 1st assigned=          58           0
 nber times 1st assigned=          59           0
 nber times 1st assigned=          60           0
 nber times 1st assigned=          61           0
 nber times 1st assigned=          62           0
 nber times 1st assigned=          63           0
 nber times 1st assigned=          64           0
 nber times 1st assigned=          65           0
 nber times 1st assigned=          66           0
 nber times 1st assigned=          67           0
 nber times 1st assigned=          68           0
 nber times 1st assigned=          69           0
 nber times 1st assigned=          70           0
 nber times 1st assigned=          71           0
 nber times 1st assigned=          72           0
 nber times 1st assigned=          73           0
 nber times 1st assigned=          74           0
 nber times 1st assigned=          75           0
 nber times 1st assigned=          76           0
 nber times 1st assigned=          77           0
 nber times 1st assigned=          78           0
 nber times 1st assigned=          79           0
 nber times 1st assigned=          80           0
 nber times 1st assigned=          81           0
 nber times 1st assigned=          82           0
 nber times 1st assigned=          83           0
 nber times 1st assigned=          84           0
 nber times 1st assigned=          85           0
 nber times 1st assigned=          86           0
 nber times 1st assigned=          87           0
 nber times 1st assigned=          88           0
 nber times 1st assigned=          89           0
 nber times 1st assigned=          90           0
 nber times 1st assigned=          91           0
 nber times 1st assigned=          92           0
 nber times 1st assigned=          93           0
 nber times 1st assigned=          94           0
 nber times 1st assigned=          95           0
 nber times 1st assigned=          96           0
 nber times 1st assigned=          97           0
 nber times 1st assigned=          98           0
 nber times 1st assigned=          99           0
 nber times 1st assigned=         100           0
 nber times 1st assigned=         101           0
 nber times 1st assigned=         102           0
 nber times 1st assigned=         103           0
 nber times 1st assigned=         104           0
 nber times 1st assigned=         105           0
 nber times 1st assigned=         106           0
 nber times 1st assigned=         107           0
 nber times 1st assigned=         108           0
 nber times 1st assigned=         109           0
 nber times 1st assigned=         110           0
 nber times 1st assigned=         111           0
 nber times 1st assigned=         112           0
 nber times 1st assigned=         113           0
 nber times 1st assigned=         114           0
 nber times 1st assigned=         115           0
 nber times 1st assigned=         116           0
 nber times 1st assigned=         117           0
 nber times 1st assigned=         118           0
 nber times 1st assigned=         119           0
 nber times 1st assigned=         120           0
 modes represented=   114.022906912514     
 p1=
    0.    0.   -0.   -0.   -0.   -0.    0.   -0.   -0.    0.   -0.   -0.   -0.    0.    0.  -27.    0.    0.   -0.    2.
   -0.   -0.   -0.    0.   -0.   -0.   -0.    1.   -0.   -0.   -0.   -0.    0.    1.    0.   -0.   -0.   -0.   -1.   -0.
   -0.   -1.    0.   -0.   -4.    0.    0.   -0.    0.   -0.    0.    0.    0.   -0.    0.   -0.   -0.    0.   -0.   -0.
   -0.    1.    0.    1.   -0.    0.    1.    1.    0.   -0.   -1.    0.   -0.    0.    1.    0.    0.   -4.    0.   -2.
   -0.   -0.   -0.    0.    0.   -0.    0.   -0.    0.   -0.   -1.   -0.    0.   -0.    1.    0.    0.    0.    0.   -0.
   -0.    3.    1.    1.    0.    0.    0.   -0.    0.    0.   -0.    0.   -0.   -0.   -0.    0.    0.    0.   -0.   -0.
 p2=
   -0.   -0.    0.    0.   -0.   -0.   -0.   -0.   -0.    0.    0.   -0.   -0.   -0.    0.   27.   -0.   -0.   -0.   -2.
   -0.   -0.   -0.   -0.    0.   -0.   -0.   -0.   -0.   -1.   -0.    0.    0.    0.    1.    0.    0.    0.   -1.    0.
   -0.    1.    0.    0.   -5.    0.   -0.   -0.   -0.    0.   -0.   -0.    0.   -0.    0.    0.    0.   -0.    0.    1.
    0.   -0.    0.   -0.    0.   -0.    1.   -1.    1.    0.   -0.   -0.   -0.   -0.   -0.    0.    0.    3.   -0.   -0.
    0.    2.   -2.   -0.   -1.    0.    0.   -0.    1.    0.    0.    0.    0.    0.    1.    0.    0.   -0.   -0.   -0.
    0.   -0.    0.   -3.    0.    0.    0.   -0.    0.   -0.   -0.    0.    0.   -0.    0.   -0.   -0.   -0.    0.   -0.

 Displacement: in terms of nc of 1 THEN of nc of 2

   1 A2  freq=   -96. Q=  0.000 lam=    -0.0 A2  freq=   -71. Q=  0.000 lam=    -0.0
   2 A2  freq=   -53. Q=  0.000 lam=    -0.0 A2  freq=   -37. Q=  0.000 lam=    -0.0
   3 A1  freq=    -0. Q= -0.000 lam=    -0.0 A1  freq=    -0. Q= -0.000 lam=    -0.0
   4 B1  freq=    -0. Q= -0.000 lam=    -0.0 B1  freq=    -0. Q= -0.000 lam=    -0.0
   5 A2  freq=    -0. Q= -0.000 lam=    -0.0 B1  freq=    -0. Q= -0.000 lam=    -0.0
   6 B1  freq=     0. Q= -0.000 lam=     0.0 B2  freq=    -0. Q= -0.000 lam=    -0.0
   7 B2  freq=     0. Q=  0.000 lam=     0.0 A2  freq=     0. Q=  0.000 lam=     0.0
   8 B2  freq=     0. Q= -0.000 lam=     0.0 B2  freq=     0. Q= -0.000 lam=     0.0
   9 B1  freq=    22. Q= -0.000 lam=     0.0 B1  freq=    20. Q= -0.000 lam=     0.0
  10 A2  freq=    50. Q=  0.000 lam=     0.0 B1  freq=    55. Q=  0.000 lam=     0.0
  11 B2  freq=    58. Q= -0.000 lam=     0.0 A2  freq=    56. Q= -0.000 lam=     0.0
  12 B1  freq=    59. Q= -0.000 lam=     0.0 B2  freq=    60. Q= -0.000 lam=     0.0
  13 B1  freq=   120. Q= -0.000 lam=     0.0 B1  freq=   114. Q= -0.000 lam=     0.0
  14 B2  freq=   134. Q=  0.000 lam=     0.0 B2  freq=   137. Q=  0.000 lam=     0.0
  15 B1  freq=   168. Q=  0.000 lam=     0.0 B1  freq=   156. Q=  0.000 lam=     0.0
  16 A1  freq=   172. Q= -1.411 lam=   171.6 A1  freq=   174. Q= -1.424 lam=   176.7
  17 B2  freq=   223. Q=  0.000 lam=     0.0 B2  freq=   226. Q=  0.000 lam=     0.0
  18 B1  freq=   255. Q=  0.000 lam=     0.0 B1  freq=   239. Q=  0.000 lam=     0.0
  19 B1  freq=   336. Q= -0.000 lam=     0.0 B1  freq=   314. Q= -0.000 lam=     0.0
  20 A1  freq=   336. Q=  0.172 lam=     5.0 A1  freq=   337. Q=  0.185 lam=     5.8
  21 B2  freq=   371. Q= -0.000 lam=     0.0 B2  freq=   374. Q= -0.000 lam=     0.0
  22 A2  freq=   387. Q= -0.000 lam=     0.0 A2  freq=   381. Q= -0.000 lam=     0.0
  23 A2  freq=   407. Q= -0.000 lam=     0.0 A2  freq=   391. Q= -0.000 lam=     0.0
  24 A2  freq=   410. Q=  0.000 lam=     0.0 A2  freq=   394. Q=  0.000 lam=     0.0
  25 A2  freq=   418. Q= -0.000 lam=     0.0 A2  freq=   411. Q= -0.000 lam=     0.0
  26 B2  freq=   446. Q= -0.000 lam=     0.0 B1  freq=   439. Q= -0.000 lam=     0.0
  27 B1  freq=   454. Q= -0.000 lam=     0.0 B2  freq=   447. Q= -0.000 lam=     0.0
  28 A1  freq=   485. Q=  0.107 lam=     2.8 B1  freq=   479. Q=  0.000 lam=     0.0
  29 B2  freq=   488. Q= -0.000 lam=     0.0 B2  freq=   488. Q= -0.000 lam=     0.0
  30 B1  freq=   510. Q= -0.000 lam=     0.0 A1  freq=   491. Q= -0.107 lam=     2.8
  31 B1  freq=   555. Q= -0.000 lam=     0.0 B1  freq=   542. Q= -0.000 lam=     0.0
  32 B1  freq=   573. Q= -0.000 lam=     0.0 B1  freq=   569. Q= -0.000 lam=     0.0
  33 B2  freq=   631. Q=  0.000 lam=     0.0 B2  freq=   613. Q=  0.000 lam=     0.0
  34 A1  freq=   641. Q=  0.068 lam=     1.5 B2  freq=   627. Q=  0.000 lam=     0.0
  35 B2  freq=   642. Q=  0.000 lam=     0.0 A1  freq=   636. Q=  0.065 lam=     1.4
  36 B2  freq=   655. Q= -0.000 lam=     0.0 B2  freq=   644. Q= -0.000 lam=     0.0
  37 B2  freq=   668. Q= -0.000 lam=     0.0 B2  freq=   654. Q= -0.000 lam=     0.0
  38 B1  freq=   695. Q= -0.000 lam=     0.0 B1  freq=   669. Q= -0.000 lam=     0.0
  39 A1  freq=   708. Q= -0.113 lam=     4.5 A1  freq=   707. Q= -0.098 lam=     3.4
  40 B1  freq=   729. Q= -0.000 lam=     0.0 B1  freq=   727. Q= -0.000 lam=     0.0
  41 B1  freq=   744. Q= -0.000 lam=     0.0 B1  freq=   747. Q= -0.000 lam=     0.0
  42 A1  freq=   770. Q= -0.133 lam=     6.8 A1  freq=   765. Q= -0.163 lam=    10.2
  43 B1  freq=   780. Q=  0.000 lam=     0.0 B1  freq=   793. Q=  0.000 lam=     0.0
  44 A2  freq=   807. Q= -0.000 lam=     0.0 A2  freq=   798. Q= -0.000 lam=     0.0
  45 A1  freq=   812. Q= -0.493 lam=    98.6 A1  freq=   807. Q= -0.516 lam=   107.5
  46 B1  freq=   817. Q=  0.000 lam=     0.0 B1  freq=   820. Q=  0.000 lam=     0.0
  47 B1  freq=   826. Q=  0.000 lam=     0.0 A2  freq=   825. Q=  0.000 lam=     0.0
  48 A2  freq=   836. Q= -0.000 lam=     0.0 A2  freq=   828. Q= -0.000 lam=     0.0
  49 A2  freq=   850. Q=  0.000 lam=     0.0 B1  freq=   833. Q=  0.000 lam=     0.0
  50 B1  freq=   854. Q= -0.000 lam=     0.0 B1  freq=   864. Q= -0.000 lam=     0.0
  51 B1  freq=   880. Q=  0.000 lam=     0.0 B1  freq=   888. Q=  0.000 lam=     0.0
  52 B1  freq=   919. Q=  0.000 lam=     0.0 B1  freq=   945. Q=  0.000 lam=     0.0
  53 A2  freq=   949. Q=  0.000 lam=     0.0 A2  freq=   978. Q=  0.000 lam=     0.0
  54 B1  freq=   957. Q= -0.000 lam=     0.0 B1  freq=   983. Q= -0.000 lam=     0.0
  55 A2  freq=   973. Q=  0.000 lam=     0.0 A1  freq=   995. Q=  0.011 lam=     0.1
  56 B1  freq=   996. Q= -0.000 lam=     0.0 A2  freq=   996. Q= -0.000 lam=     0.0
  57 A2  freq=   997. Q= -0.000 lam=     0.0 A1  freq=  1003. Q= -0.035 lam=     0.6
  58 B1  freq=   998. Q=  0.000 lam=     0.0 A1  freq=  1008. Q=  0.050 lam=     1.2
  59 A2  freq=  1002. Q= -0.000 lam=     0.0 A2  freq=  1008. Q= -0.000 lam=     0.0
  60 B1  freq=  1008. Q= -0.000 lam=     0.0 A1  freq=  1012. Q= -0.176 lam=    15.6
  61 A1  freq=  1008. Q= -0.055 lam=     1.5 B1  freq=  1015. Q= -0.000 lam=     0.0
  62 A1  freq=  1013. Q=  0.071 lam=     2.6 A2  freq=  1017. Q=  0.000 lam=     0.0
  63 A1  freq=  1018. Q=  0.003 lam=     0.0 A1  freq=  1019. Q=  0.050 lam=     1.3
  64 A1  freq=  1023. Q=  0.171 lam=    15.0 B1  freq=  1024. Q=  0.000 lam=     0.0
  65 A1  freq=  1034. Q= -0.045 lam=     1.1 B1  freq=  1027. Q= -0.000 lam=     0.0
  66 A1  freq=  1055. Q=  0.006 lam=     0.0 A1  freq=  1030. Q=  0.064 lam=     2.1
  67 A1  freq=  1065. Q=  0.080 lam=     3.4 A1  freq=  1051. Q=  0.080 lam=     3.4
  68 A1  freq=  1075. Q=  0.069 lam=     2.5 A1  freq=  1068. Q=  0.088 lam=     4.1
  69 B2  freq=  1111. Q=  0.000 lam=     0.0 A1  freq=  1106. Q=  0.191 lam=    20.1
  70 B2  freq=  1112. Q= -0.000 lam=     0.0 B2  freq=  1122. Q= -0.000 lam=     0.0
  71 A1  freq=  1113. Q= -0.194 lam=    20.9 B2  freq=  1122. Q= -0.000 lam=     0.0
  72 B2  freq=  1143. Q=  0.000 lam=     0.0 B2  freq=  1152. Q=  0.000 lam=     0.0
  73 B2  freq=  1168. Q= -0.000 lam=     0.0 B2  freq=  1172. Q= -0.000 lam=     0.0
  74 B2  freq=  1188. Q=  0.000 lam=     0.0 B2  freq=  1195. Q=  0.000 lam=     0.0
  75 A1  freq=  1207. Q=  0.074 lam=     3.3 A1  freq=  1212. Q=  0.050 lam=     1.5
  76 A1  freq=  1219. Q=  0.019 lam=     0.2 A1  freq=  1223. Q=  0.008 lam=     0.0
  77 B2  freq=  1237. Q=  0.000 lam=     0.0 B2  freq=  1257. Q=  0.000 lam=     0.0
  78 A1  freq=  1251. Q= -0.507 lam=   160.7 A1  freq=  1261. Q= -0.473 lam=   141.0
  79 B2  freq=  1275. Q=  0.000 lam=     0.0 B2  freq=  1280. Q=  0.000 lam=     0.0
  80 A1  freq=  1288. Q= -0.288 lam=    53.4 B2  freq=  1306. Q= -0.000 lam=     0.0
  81 B2  freq=  1293. Q= -0.000 lam=     0.0 B2  freq=  1309. Q= -0.000 lam=     0.0
  82 A1  freq=  1303. Q= -0.060 lam=     2.3 A1  freq=  1326. Q= -0.226 lam=    33.7
  83 B2  freq=  1310. Q= -0.000 lam=     0.0 A1  freq=  1338. Q= -0.260 lam=    45.4
  84 B2  freq=  1327. Q=  0.000 lam=     0.0 B2  freq=  1340. Q=  0.000 lam=     0.0
  85 B2  freq=  1342. Q=  0.000 lam=     0.0 A1  freq=  1355. Q=  0.078 lam=     4.1
  86 A1  freq=  1354. Q= -0.051 lam=     1.7 B2  freq=  1355. Q= -0.000 lam=     0.0
  87 B2  freq=  1361. Q=  0.000 lam=     0.0 B2  freq=  1362. Q=  0.000 lam=     0.0
  88 B2  freq=  1370. Q= -0.000 lam=     0.0 B2  freq=  1375. Q= -0.000 lam=     0.0
  89 B2  freq=  1433. Q=  0.000 lam=     0.0 A1  freq=  1435. Q=  0.088 lam=     5.5
  90 B2  freq=  1445. Q= -0.000 lam=     0.0 B2  freq=  1457. Q= -0.000 lam=     0.0
  91 A1  freq=  1449. Q= -0.100 lam=     7.2 B2  freq=  1467. Q= -0.000 lam=     0.0
  92 B2  freq=  1468. Q= -0.000 lam=     0.0 B2  freq=  1470. Q= -0.000 lam=     0.0
  93 B2  freq=  1484. Q=  0.000 lam=     0.0 B2  freq=  1496. Q=  0.000 lam=     0.0
  94 A1  freq=  1522. Q= -0.019 lam=     0.3 A1  freq=  1501. Q= -0.003 lam=     0.0
  95 A1  freq=  1543. Q=  0.108 lam=     9.1 A1  freq=  1527. Q=  0.128 lam=    12.5
  96 A1  freq=  1571. Q=  0.044 lam=     1.5 B2  freq=  1531. Q=  0.000 lam=     0.0
  97 B2  freq=  1580. Q=  0.000 lam=     0.0 B2  freq=  1539. Q=  0.000 lam=     0.0
  98 B2  freq=  1596. Q=  0.000 lam=     0.0 A1  freq=  1553. Q=  0.037 lam=     1.1
  99 A1  freq=  1614. Q=  0.067 lam=     3.6 B2  freq=  1585. Q=  0.000 lam=     0.0
 100 B2  freq=  1614. Q= -0.000 lam=     0.0 B2  freq=  1594. Q= -0.000 lam=     0.0
 101 B2  freq=  1623. Q= -0.000 lam=     0.0 A1  freq=  1595. Q= -0.021 lam=     0.3
 102 A1  freq=  1638. Q=  0.528 lam=   228.4 A1  freq=  1619. Q=  0.039 lam=     1.2
 103 A1  freq=  1647. Q=  0.203 lam=    33.8 A1  freq=  1640. Q=  0.010 lam=     0.1
 104 A1  freq=  1659. Q=  0.096 lam=     7.7 A1  freq=  1646. Q=  0.543 lam=   243.0
 105 A1  freq=  3142. Q=  0.020 lam=     0.6 A1  freq=  3167. Q=  0.021 lam=     0.7
 106 B2  freq=  3144. Q=  0.000 lam=     0.0 B2  freq=  3169. Q=  0.000 lam=     0.0
 107 A1  freq=  3162. Q=  0.010 lam=     0.2 A1  freq=  3185. Q=  0.007 lam=     0.1
 108 B2  freq=  3170. Q= -0.000 lam=     0.0 B2  freq=  3193. Q= -0.000 lam=     0.0
 109 A1  freq=  3181. Q=  0.006 lam=     0.1 A1  freq=  3202. Q=  0.012 lam=     0.2
 110 B2  freq=  3183. Q=  0.000 lam=     0.0 A1  freq=  3207. Q=  0.003 lam=     0.0
 111 A1  freq=  3186. Q= -0.008 lam=     0.1 B2  freq=  3207. Q= -0.000 lam=     0.0
 112 B2  freq=  3191. Q=  0.000 lam=     0.0 A1  freq=  3212. Q=  0.007 lam=     0.1
 113 A1  freq=  3192. Q= -0.005 lam=     0.0 B2  freq=  3212. Q= -0.000 lam=     0.0
 114 B2  freq=  3201. Q= -0.000 lam=     0.0 A1  freq=  3213. Q= -0.008 lam=     0.1
 115 A1  freq=  3202. Q= -0.008 lam=     0.1 B2  freq=  3220. Q= -0.000 lam=     0.0
 116 A1  freq=  3202. Q=  0.001 lam=     0.0 A1  freq=  3220. Q=  0.008 lam=     0.1
 117 B2  freq=  3207. Q=  0.000 lam=     0.0 B2  freq=  3228. Q=  0.000 lam=     0.0
 118 A1  freq=  3209. Q=  0.017 lam=     0.5 A1  freq=  3229. Q=  0.004 lam=     0.0
 119 B2  freq=  3212. Q= -0.000 lam=     0.0 B2  freq=  3235. Q= -0.000 lam=     0.0
 120 A1  freq=  3214. Q= -0.039 lam=     2.5 A1  freq=  3237. Q= -0.039 lam=     2.5

 total reorg energy (cm**-1, kcal/mol)=      855.      850.      2.45      2.43
 Nber of molecules processed=           2
