 Enter ifcurve (0=recti, 1=orth curvi, 2=apprx curvi, -1 = skip
 And atom ordering flag, 0= never changes, 1= use the first order thenceforth,
  2= deduce it (does read on fail), 3= always read it
 Reading file: 
 ./IDT-A_2_C0S1.log                                                             
                                          
  Entering Gaussian System, Link 0=g16                                          
  
 Gaussian format, type: g94, g98, g03= F F F
  #P Geom=AllCheck Guess=TCheck SCRF=Check GenChk RCAM-B3LYP TD(FC,Read)    
 energy type= TD      
 Original G94 input coords:
  6  2.838370 -1.740060 -1.852249
  6  2.823168 -0.788563 -0.660178
  6  3.738122 -1.229840  0.477684
  7  3.100317  0.614322 -1.074355
  6  4.341835  0.926935 -1.622614
  8  5.202193  0.080882 -1.769803
  6  4.575671  2.328774 -2.020069
  6  5.807337  2.677444 -2.572722
  6  6.056152  3.973954 -2.952848
  6  5.081567  4.992983 -2.798912
  6  5.326617  6.352108 -3.191136
  6  6.559737  6.762371 -3.758737
  6  6.781029  8.065947 -4.130107
  6  5.787004  9.027870 -3.955034
  6  6.063489 10.416300 -4.366688
  8  7.119448 10.748077 -4.856293
  7  5.033566 11.345559 -4.163687
  6  5.281237 12.710656 -4.552549
  6  5.522876 13.670640 -3.585277
  6  5.753716 14.982512 -3.958747
  6  5.760262 15.354281 -5.304906
  6  5.995688 16.742093 -5.715634
  6  5.489339 17.395267 -6.807899
  6  5.932640 18.735560 -6.891506
  6  6.765602 19.088867 -5.870111
 16  7.040576 17.789663 -4.778650
  6  7.189573 20.473005 -5.997292
  6  8.023427 21.269244 -5.217704
  6  8.230391 22.575774 -5.616955
  6  7.612057 23.076231 -6.777777
  6  6.778171 22.280254 -7.557075
  6  6.571056 20.973553 -7.158247
  6  5.709846 19.903596 -7.830021
  6  6.213187 19.590747 -9.246170
  6  4.232706 20.320239 -7.867796
  6  8.036216 24.461797 -6.905386
 16  7.761828 25.762443 -7.997182
  6  8.793885 26.792086 -7.056412
  6  9.313002 26.159406 -5.968178
  6  8.871887 24.813245 -5.885911
  6  9.091329 23.646114 -4.945393
  6  8.585373 23.961378 -3.530669
  6 10.567905 23.227921 -4.903657
  6  5.527178 14.366754 -6.265542
  6  5.280303 13.058177 -5.893015
  6  3.780401 11.046203 -3.610680
  8  2.938791 11.903786 -3.465182
  6  3.552336  9.643181 -3.219905
  6  2.321255  9.292373 -2.667270
  6  2.073093  7.995414 -2.289674
  6  3.048510  6.977988 -2.445707
  6  2.803252  5.618654 -2.054243
  6  1.570604  5.205355 -1.487309
  6  1.350540  3.900829 -1.116994
  6  2.346287  2.940321 -1.291874
  6  2.076326  1.549160 -0.883175
  8  1.007463  1.232901 -0.400896
  6  3.581353  3.303086 -1.848833
  6  3.824353  4.651350 -2.237778
  6  4.305858  7.320706 -3.007308
  6  4.549484  8.670020 -3.395800
  1  2.489679 -2.722931 -1.528124
  1  3.838921 -1.845305 -2.267348
  1  2.163397 -1.388625 -2.635386
  1  1.806758 -0.738379 -0.278668
  1  4.772138 -1.315683  0.149146
  1  3.406385 -2.203524  0.844513
  1  3.686568 -0.524933  1.310053
  1  6.552331  1.901936 -2.690970
  1  7.020528  4.210323 -3.377484
  1  7.350672  6.042383 -3.907554
  1  7.722260  8.377159 -4.563546
  1  5.513397 13.393249 -2.539046
  1  5.911773 15.732296 -3.193421
  1  4.802180 16.923668 -7.497433
  1  8.494473 20.872217 -4.325057
  1  6.306924 22.677378 -8.449591
  1  7.263368 19.295586 -9.230723
  1  6.111696 20.464170 -9.894449
  1  5.633854 18.775815 -9.686936
  1  3.865887 20.548095 -6.865947
  1  3.618850 19.517522 -8.283433
  1  4.096628 21.205830 -8.492822
  1  8.952379 27.811262 -7.372209
  1  9.978037 26.644767 -5.266804
  1  7.535368 24.256992 -3.548859
  1  9.163978 24.776944 -3.090149
  1  8.685173 23.089000 -2.880660
  1 10.936616 22.998287 -5.904426
  1 10.702042 22.343063 -4.277135
  1 11.181443 24.030734 -4.487664
  1  5.561841 14.624886 -7.316286
  1  5.106160 12.298573 -6.644300
  1  1.576097 10.067500 -2.546615
  1  1.109214  7.757404 -1.864917
  1  0.778262  5.923790 -1.338102
  1  0.409149  3.588844 -0.684812
 nber atoms=          97
  Total Energy, E(TD-HF/TD-DFT) =  -3247.47517552                               
  
          32          49 "  -3247.47517552"
After scan for Atom:   Atom  AN      X      Y      Z        X      Y      Z        X      Y      Z   
After scan for Atom:   Atom  AN      X      Y      Z        X      Y      Z        X      Y      Z   
After scan for Atom:   Atom  AN      X      Y      Z        X      Y      Z        X      Y      Z   
After scan for Atom:   Atom  AN      X      Y      Z        X      Y      Z        X      Y      Z   
After scan for Atom:   Atom  AN      X      Y      Z        X      Y      Z        X      Y      Z   
After scan for Atom:   Atom  AN      X      Y      Z        X      Y      Z        X      Y      Z   
After scan for Atom:   Atom  AN      X      Y      Z        X      Y      Z        X      Y      Z   
After scan for Atom:   Atom  AN      X      Y      Z        X      Y      Z        X      Y      Z   
After scan for Atom:   Atom  AN      X      Y      Z        X      Y      Z        X      Y      Z   
After scan for Atom:   Atom  AN      X      Y      Z        X      Y      Z        X      Y      Z   
After scan for Atom:   Atom  AN      X      Y      Z        X      Y      Z        X      Y      Z   
After scan for Atom:   Atom  AN      X      Y      Z        X      Y      Z        X      Y      Z   
After scan for Atom:   Atom  AN      X      Y      Z        X      Y      Z        X      Y      Z   
After scan for Atom:   Atom  AN      X      Y      Z        X      Y      Z        X      Y      Z   
After scan for Atom:   Atom  AN      X      Y      Z        X      Y      Z        X      Y      Z   
After scan for Atom:   Atom  AN      X      Y      Z        X      Y      Z        X      Y      Z   
After scan for Atom:   Atom  AN      X      Y      Z        X      Y      Z        X      Y      Z   
After scan for Atom:   Atom  AN      X      Y      Z        X      Y      Z        X      Y      Z   
After scan for Atom:   Atom  AN      X      Y      Z        X      Y      Z        X      Y      Z   
After scan for Atom:   Atom  AN      X      Y      Z        X      Y      Z        X      Y      Z   
After scan for Atom:   Atom  AN      X      Y      Z        X      Y      Z        X      Y      Z   
After scan for Atom:   Atom  AN      X      Y      Z        X      Y      Z        X      Y      Z   
After scan for Atom:   Atom  AN      X      Y      Z        X      Y      Z        X      Y      Z   
After scan for Atom:   Atom  AN      X      Y      Z        X      Y      Z        X      Y      Z   
After scan for Atom:   Atom  AN      X      Y      Z        X      Y      Z        X      Y      Z   
After scan for Atom:   Atom  AN      X      Y      Z        X      Y      Z        X      Y      Z   
After scan for Atom:   Atom  AN      X      Y      Z        X      Y      Z        X      Y      Z   
After scan for Atom:   Atom  AN      X      Y      Z        X      Y      Z        X      Y      Z   
After scan for Atom:   Atom  AN      X      Y      Z        X      Y      Z        X      Y      Z   
After scan for Atom:   Atom  AN      X      Y      Z        X      Y      Z        X      Y      Z   
After scan for Atom:   Atom  AN      X      Y      Z        X      Y      Z        X      Y      Z   
After scan for Atom:   Atom  AN      X      Y      Z        X      Y      Z        X      Y      Z   
After scan for Atom:   Atom  AN      X      Y      Z        X      Y      Z        X      Y      Z   
After scan for Atom:   Atom  AN      X      Y      Z        X      Y      Z        X      Y      Z   
After scan for Atom:   Atom  AN      X      Y      Z        X      Y      Z        X      Y      Z   
After scan for Atom:   Atom  AN      X      Y      Z        X      Y      Z        X      Y      Z   
After scan for Atom:   Atom  AN      X      Y      Z        X      Y      Z        X      Y      Z   
After scan for Atom:   Atom  AN      X      Y      Z        X      Y      Z        X      Y      Z   
After scan for Atom:   Atom  AN      X      Y      Z        X      Y      Z        X      Y      Z   
After scan for Atom:   Atom  AN      X      Y      Z        X      Y      Z        X      Y      Z   
After scan for Atom:   Atom  AN      X      Y      Z        X      Y      Z        X      Y      Z   
After scan for Atom:   Atom  AN      X      Y      Z        X      Y      Z        X      Y      Z   
After scan for Atom:   Atom  AN      X      Y      Z        X      Y      Z        X      Y      Z   
After scan for Atom:   Atom  AN      X      Y      Z        X      Y      Z        X      Y      Z   
After scan for Atom:   Atom  AN      X      Y      Z        X      Y      Z        X      Y      Z   
After scan for Atom:   Atom  AN      X      Y      Z        X      Y      Z        X      Y      Z   
After scan for Atom:   Atom  AN      X      Y      Z        X      Y      Z        X      Y      Z   
After scan for Atom:   Atom  AN      X      Y      Z        X      Y      Z        X      Y      Z   
After scan for Atom:   Atom  AN      X      Y      Z        X      Y      Z        X      Y      Z   
After scan for Atom:   Atom  AN      X      Y      Z        X      Y      Z        X      Y      Z   
After scan for Atom:   Atom  AN      X      Y      Z        X      Y      Z        X      Y      Z   
After scan for Atom:   Atom  AN      X      Y      Z        X      Y      Z        X      Y      Z   
After scan for Atom:   Atom  AN      X      Y      Z        X      Y      Z        X      Y      Z   
After scan for Atom:   Atom  AN      X      Y      Z        X      Y      Z        X      Y      Z   
After scan for Atom:   Atom  AN      X      Y      Z        X      Y      Z        X      Y      Z   
After scan for Atom:   Atom  AN      X      Y      Z        X      Y      Z        X      Y      Z   
After scan for Atom:   Atom  AN      X      Y      Z        X      Y      Z        X      Y      Z   
After scan for Atom:   Atom  AN      X      Y      Z        X      Y      Z        X      Y      Z   
After scan for Atom:   Atom  AN      X      Y      Z        X      Y      Z        X      Y      Z   
After scan for Atom:   Atom  AN      X      Y      Z        X      Y      Z        X      Y      Z   
After scan for Atom:   Atom  AN      X      Y      Z        X      Y      Z        X      Y      Z   
After scan for Atom:   Atom  AN      X      Y      Z        X      Y      Z        X      Y      Z   
After scan for Atom:   Atom  AN      X      Y      Z        X      Y      Z        X      Y      Z   
After scan for Atom:   Atom  AN      X      Y      Z        X      Y      Z        X      Y      Z   
After scan for Atom:   Atom  AN      X      Y      Z        X      Y      Z        X      Y      Z   
After scan for Atom:   Atom  AN      X      Y      Z        X      Y      Z        X      Y      Z   
After scan for Atom:   Atom  AN      X      Y      Z        X      Y      Z        X      Y      Z   
After scan for Atom:   Atom  AN      X      Y      Z        X      Y      Z        X      Y      Z   
After scan for Atom:   Atom  AN      X      Y      Z        X      Y      Z        X      Y      Z   
After scan for Atom:   Atom  AN      X      Y      Z        X      Y      Z        X      Y      Z   
After scan for Atom:   Atom  AN      X      Y      Z        X      Y      Z        X      Y      Z   
After scan for Atom:   Atom  AN      X      Y      Z        X      Y      Z        X      Y      Z   
After scan for Atom:   Atom  AN      X      Y      Z        X      Y      Z        X      Y      Z   
After scan for Atom:   Atom  AN      X      Y      Z        X      Y      Z        X      Y      Z   
After scan for Atom:   Atom  AN      X      Y      Z        X      Y      Z        X      Y      Z   
After scan for Atom:   Atom  AN      X      Y      Z        X      Y      Z        X      Y      Z   
After scan for Atom:   Atom  AN      X      Y      Z        X      Y      Z        X      Y      Z   
After scan for Atom:   Atom  AN      X      Y      Z        X      Y      Z        X      Y      Z   
After scan for Atom:   Atom  AN      X      Y      Z        X      Y      Z        X      Y      Z   
After scan for Atom:   Atom  AN      X      Y      Z        X      Y      Z        X      Y      Z   
After scan for Atom:   Atom  AN      X      Y      Z        X      Y      Z        X      Y      Z   
After scan for Atom:   Atom  AN      X      Y      Z        X      Y      Z        X      Y      Z   
After scan for Atom:   Atom  AN      X      Y      Z        X      Y      Z        X      Y      Z   
After scan for Atom:   Atom  AN      X      Y      Z        X      Y      Z        X      Y      Z   
After scan for Atom:   Atom  AN      X      Y      Z        X      Y      Z        X      Y      Z   
After scan for Atom:   Atom  AN      X      Y      Z        X      Y      Z        X      Y      Z   
After scan for Atom:   Atom  AN      X      Y      Z        X      Y      Z        X      Y      Z   
After scan for Atom:   Atom  AN      X      Y      Z        X      Y      Z        X      Y      Z   
After scan for Atom:   Atom  AN      X      Y      Z        X      Y      Z        X      Y      Z   
After scan for Atom:   Atom  AN      X      Y      Z        X      Y      Z        X      Y      Z   
After scan for Atom:   Atom  AN      X      Y      Z        X      Y      Z        X      Y      Z   
After scan for Atom:   Atom  AN      X      Y      Z        X      Y      Z        X      Y      Z   
After scan for Atom:   Atom  AN      X      Y      Z        X      Y      Z        X      Y      Z   
After scan for Atom:   Atom  AN      X      Y      Z        X      Y      Z        X      Y      Z   
After scan for Atom:   Atom  AN      X      Y      Z        X      Y      Z        X      Y      Z   
 g94    frequencies=
     0.0    0.0    0.0    0.0    0.0    0.0    4.6    6.3    8.0   21.4
    27.3   30.2   37.6   40.2   50.4   55.6   61.1   66.9   78.1   81.9
    92.9   95.2   98.7  104.5  108.2  111.0  128.6  139.7  149.8  160.3
   170.1  171.0  187.7  197.2  198.5  206.7  210.9  217.3  232.2  237.9
   239.2  241.7  250.4  250.5  251.0  261.6  272.2  283.9  289.3  291.6
   303.0  307.1  308.0  320.1  329.5  341.5  357.2  357.8  380.9  384.5
   394.9  398.8  420.4  424.0  426.9  427.9  435.9  437.7  442.1  443.9
   455.1  460.6  462.9  474.1  478.7  487.2  494.7  507.8  511.9  512.8
   513.2  517.8  527.4  536.8  556.7  566.2  578.9  584.6  585.3  588.2
   588.6  607.5  618.5  622.6  640.7  647.3  659.5  668.4  669.9  671.8
   679.8  688.0  706.5  708.2  719.0  721.3  722.5  736.5  738.7  744.1
   750.5  762.4  765.6  770.0  778.0  780.1  788.4  803.2  812.6  820.0
   828.5  832.3  833.5  836.2  846.1  848.8  849.4  852.9  854.6  862.0
   872.7  884.6  895.8  912.1  914.9  918.6  920.8  921.7  945.0  952.3
   961.1  962.3  962.4  968.8  971.0  989.3  996.0  997.9 1000.6 1001.3
  1002.0 1013.4 1014.2 1023.7 1026.4 1039.4 1039.5 1049.7 1078.6 1096.6
  1101.5 1116.9 1119.2 1119.3 1143.0 1154.6 1168.5 1169.9 1177.9 1181.6
  1182.8 1184.2 1191.1 1191.8 1194.6 1198.3 1208.8 1214.0 1231.4 1236.4
  1248.6 1256.8 1259.9 1261.7 1267.4 1272.1 1273.6 1281.5 1285.0 1286.5
  1295.0 1314.7 1323.4 1325.7 1339.3 1340.3 1343.7 1360.2 1383.3 1386.4
  1391.3 1391.4 1408.8 1409.0 1414.7 1415.4 1416.6 1417.5 1422.1 1426.6
  1428.1 1437.0 1444.7 1451.9 1454.9 1467.5 1472.8 1476.5 1488.7 1490.2
  1490.3 1491.0 1492.4 1494.5 1495.2 1495.2 1504.1 1510.9 1511.6 1512.2
  1515.1 1517.1 1525.2 1529.1 1531.0 1538.0 1539.7 1566.7 1579.3 1587.9
  1593.5 1607.7 1611.2 1616.1 1634.4 1639.5 1642.4 1652.7 1676.9 1690.5
  1693.0 1738.5 1760.3 1777.3 1796.0 3047.6 3047.8 3051.6 3051.8 3059.4
  3063.2 3113.4 3113.7 3118.6 3118.9 3121.6 3125.0 3131.0 3131.2 3133.0
  3133.2 3141.2 3159.5 3169.2 3185.3 3186.7 3200.2 3203.5 3217.9 3219.7
  3221.5 3221.6 3221.8 3222.8 3227.0 3227.2 3235.9 3235.9 3250.8 3251.1
  3263.3
 g94    symmetries=
                                                 A      A      A      A
       A      A      A      A      A      A      A      A      A      A
       A      A      A      A      A      A      A      A      A      A
       A      A      A      A      A      A      A      A      A      A
       A      A      A      A      A      A      A      A      A      A
       A      A      A      A      A      A      A      A      A      A
       A      A      A      A      A      A      A      A      A      A
       A      A      A      A      A      A      A      A      A      A
       A      A      A      A      A      A      A      A      A      A
       A      A      A      A      A      A      A      A      A      A
       A      A      A      A      A      A      A      A      A      A
       A      A      A      A      A      A      A      A      A      A
       A      A      A      A      A      A      A      A      A      A
       A      A      A      A      A      A      A      A      A      A
       A      A      A      A      A      A      A      A      A      A
       A      A      A      A      A      A      A      A      A      A
       A      A      A      A      A      A      A      A      A      A
       A      A      A      A      A      A      A      A      A      A
       A      A      A      A      A      A      A      A      A      A
       A      A      A      A      A      A      A      A      A      A
       A      A      A      A      A      A      A      A      A      A
       A      A      A      A      A      A      A      A      A      A
       A      A      A      A      A      A      A      A      A      A
       A      A      A      A      A      A      A      A      A      A
       A      A      A      A      A      A      A      A      A      A
       A      A      A      A      A      A      A      A      A      A
       A      A      A      A      A      A      A      A      A      A
       A      A      A      A      A      A      A      A      A      A
       A      A      A      A      A      A      A      A      A      A
       A
 atomic masses:
 12.0000 12.0000 12.0000 14.0031 12.0000 15.9949 12.0000 12.0000 12.0000 12.0000
 12.0000 12.0000 12.0000 12.0000 12.0000 15.9949 14.0031 12.0000 12.0000 12.0000
 12.0000 12.0000 12.0000 12.0000 12.0000 31.9721 12.0000 12.0000 12.0000 12.0000
 12.0000 12.0000 12.0000 12.0000 12.0000 12.0000 31.9721 12.0000 12.0000 12.0000
 12.0000 12.0000 12.0000 12.0000 12.0000 12.0000 15.9949 12.0000 12.0000 12.0000
 12.0000 12.0000 12.0000 12.0000 12.0000 12.0000 15.9949 12.0000 12.0000 12.0000
 12.0000  1.0078  1.0078  1.0078  1.0078  1.0078  1.0078  1.0078  1.0078  1.0078
  1.0078  1.0078  1.0078  1.0078  1.0078  1.0078  1.0078  1.0078  1.0078  1.0078
  1.0078  1.0078  1.0078  1.0078  1.0078  1.0078  1.0078  1.0078  1.0078  1.0078
  1.0078  1.0078  1.0078  1.0078  1.0078  1.0078  1.0078
 looking for force constants in 
 ./IDT-A_2_C0S1.fchk                                                            
  
 cant find forces in .fchk file
 NO FORCES: 
 ./IDT-A_2_C0S1.log                                                             
                                          
 g94-fc frequencies=

 at 99999: n3=           0
 symm operator            1 :  F  nop=           0
 symm operator            2 :  F  nop=           0
 symm operator            3 :  F  nop=           0
 symm operator            4 :  F  nop=           0
 symm operator            5 :  F  nop=           0
 symm operator            6 :  F  nop=           0
 symm operator            7 :  F  nop=           0
 The point group of the molecule is  C1
 Symmetry rotation matrix:
   1.00000   0.00000   0.00000
   0.00000   1.00000   0.00000
   0.00000   0.00000   1.00000

 highest evec of mol 1

 generating redundant internal coords
         300        3600          97
 Adding extra bonds for z output only
           6           6           6           7           6           8
           6           6           6           6           6           6
           6           6           6           8           7           6
           6           6           6           6           6           6
           6          16           6           6           6           6
           6           6           6           6           6           6
          16           6           6           6           6           6
           6           6           6           6           8           6
           6           6           6           6           6           6
           6           6           8           6           6           6
           6           1           1           1           1           1
           1           1           1           1           1           1
           1           1           1           1           1           1
           1           1           1           1           1           1
           1           1           1           1           1           1
           1           1           1           1           1           1
           1
 search for int coords
   1 str   2   1   1.525
   2 str   3   2   1.525
   3 str   4   2   1.489
   4 str   5   4   1.393
   5 str   6   5   1.216
   6 str   7   5   1.476
   7 str   8   7   1.394
   8 str   9   8   1.374
   9 str  10   9   1.418
  10 str  11  10   1.436
  11 str  12  11   1.418
  12 str  13  12   1.373
  13 str  14  13   1.394
  14 str  15  14   1.474
  15 str  16  15   1.210
  16 str  17  15   1.402
  17 str  18  17   1.441
  18 str  19  18   1.384
  19 str  20  19   1.383
  20 str  21  20   1.397
  21 str  22  21   1.466
  22 str  23  22   1.370
  23 str  24  23   1.414
  24 str  25  24   1.365
  25 str  26  22   1.751
  26 str  26  25   1.719
  27 str  27  25   1.453
  28 str  28  27   1.392
  29 str  29  28   1.382
  30 str  30  29   1.407
  31 str  31  30   1.391
  32 str  32  27   1.407
  33 str  32  31   1.382
  34 str  33  24   1.515
  35 str  33  32   1.529
  36 str  34  33   1.535
  37 str  35  33   1.535
  38 str  36  30   1.455
  39 str  37  36   1.720
  40 str  38  37   1.735
  41 str  39  38   1.362
  42 str  40  36   1.364
  43 str  40  39   1.419
  44 str  41  29   1.529
  45 str  41  40   1.515
  46 str  42  41   1.535
  47 str  43  41   1.535
  48 str  44  21   1.397
  49 str  45  18   1.385
  50 str  45  44   1.383
  51 str  46  17   1.402
  52 str  47  46   1.210
  53 str  48  46   1.474
  54 str  49  48   1.394
  55 str  50  49   1.373
  56 str  51  50   1.418
  57 str  52  51   1.436
  58 str  53  52   1.418
  59 str  54  53   1.374
  60 str  55  54   1.395
  61 str  56   4   1.400
  62 str  56  55   1.475
  63 str  57  56   1.215
  64 str  58   7   1.403
  65 str  58  55   1.403
  66 str  59  10   1.419
  67 str  59  52   1.418
  68 str  59  58   1.424
  69 str  60  11   1.419
  70 str  60  51   1.419
  71 str  61  14   1.404
  72 str  61  48   1.404
  73 str  61  60   1.425
  74 str  62   1   1.092
  75 str  63   1   1.088
  76 str  64   1   1.092
  77 str  65   2   1.087
  78 str  66   3   1.088
  79 str  67   3   1.092
  80 str  68   3   1.092
  81 str  69   8   1.082
  82 str  70   9   1.080
  83 str  71  12   1.080
  84 str  72  13   1.082
  85 str  73  19   1.082
  86 str  74  20   1.083
  87 str  75  23   1.082
  88 str  76  28   1.085
  89 str  77  31   1.085
  90 str  78  34   1.091
  91 str  79  34   1.092
  92 str  80  34   1.093
  93 str  81  35   1.091
  94 str  82  35   1.093
  95 str  83  35   1.092
  96 str  84  38   1.079
  97 str  85  39   1.082
  98 str  86  42   1.091
  99 str  87  42   1.093
 100 str  88  42   1.092
 101 str  89  43   1.091
 102 str  90  43   1.092
 103 str  91  43   1.093
 104 str  92  44   1.083
 105 str  93  45   1.082
 106 str  94  49   1.082
 107 str  95  50   1.080
 108 str  96  53   1.080
 109 str  97  54   1.082
 nber stretches=         109
 110 ben   1   2   3
 111 prop tor   1   2   3  66
 112 prop tor   1   2   3  67
 113 prop tor   1   2   3  68
 114 ben   1   2   4
 115 prop tor   1   2   4   5
 116 prop tor   1   2   4  56
 117 ben   1   2  65
 118 ben   2   1  62
 119 ben   2   1  63
 120 ben   2   1  64
 121 ben   2   3  66
 122 ben   2   3  67
 123 ben   2   3  68
 124 ben   2   4   5
 125 prop tor   2   4   5   6
 126 prop tor   2   4   5   7
 127 ben   2   4  56
 128 prop tor   2   4  56  55
 129 prop tor   2   4  56  57
 130 ben   3   2   4
 131 prop tor   3   2   4   5
 132 prop tor   3   2   4  56
 133 ben   3   2  65
 134 prop tor   4   2   3  66
 135 prop tor   4   2   3  67
 136 prop tor   4   2   3  68
 137 ben   4   2  65
 138 ben   4   5   6
 139 ben   4   5   7
 140 prop tor   4   5   7   8
 141 prop tor   4   5   7  58
 142 ben   4  56  55
 143 ben   4  56  57
 144 ben   5   4  56
 145 prop tor   5   4  56  55
 146 prop tor   5   4  56  57
 147 ben   5   7   8
 148 prop tor   5   7   8   9
 149 prop tor   5   7   8  69
 150 ben   5   7  58
 151 prop tor   5   7  58  55
 152 prop tor   5   7  58  59
 153 ben   6   5   7
 154 prop tor   6   5   7   8
 155 prop tor   6   5   7  58
 156 ben   7   8   9
 157 prop tor   7   8   9  10
 158 prop tor   7   8   9  70
 159 ben   7   8  69
 160 ben   7  58  55
 161 ben   7  58  59
 162 prop tor   7  58  59  10
 163 prop tor   7  58  59  52
 164 ben   8   7  58
 165 prop tor   8   7  58  55
 166 prop tor   8   7  58  59
 167 ben   8   9  10
 168 prop tor   8   9  10  11
 169 prop tor   8   9  10  59
 170 ben   8   9  70
 171 ben   9   8  69
 172 ben   9  10  11
 173 prop tor   9  10  11  12
 174 prop tor   9  10  11  60
 175 ben   9  10  59
 176 prop tor   9  10  59  52
 177 prop tor   9  10  59  58
 178 ben  10   9  70
 179 ben  10  11  12
 180 prop tor  10  11  12  13
 181 prop tor  10  11  12  71
 182 ben  10  11  60
 183 prop tor  10  11  60  51
 184 prop tor  10  11  60  61
 185 ben  10  59  52
 186 ben  10  59  58
 187 ben  11  10  59
 188 prop tor  11  10  59  52
 189 prop tor  11  10  59  58
 190 ben  11  12  13
 191 prop tor  11  12  13  14
 192 prop tor  11  12  13  72
 193 ben  11  12  71
 194 ben  11  60  51
 195 ben  11  60  61
 196 prop tor  11  60  61  14
 197 prop tor  11  60  61  48
 198 ben  12  11  60
 199 prop tor  12  11  60  51
 200 prop tor  12  11  60  61
 201 ben  12  13  14
 202 prop tor  12  13  14  15
 203 prop tor  12  13  14  61
 204 ben  12  13  72
 205 ben  13  12  71
 206 ben  13  14  15
 207 prop tor  13  14  15  16
 208 prop tor  13  14  15  17
 209 ben  13  14  61
 210 prop tor  13  14  61  48
 211 prop tor  13  14  61  60
 212 ben  14  13  72
 213 ben  14  15  16
 214 ben  14  15  17
 215 prop tor  14  15  17  18
 216 prop tor  14  15  17  46
 217 ben  14  61  48
 218 ben  14  61  60
 219 ben  15  14  61
 220 prop tor  15  14  61  48
 221 prop tor  15  14  61  60
 222 ben  15  17  18
 223 prop tor  15  17  18  19
 224 prop tor  15  17  18  45
 225 ben  15  17  46
 226 prop tor  15  17  46  47
 227 prop tor  15  17  46  48
 228 ben  16  15  17
 229 prop tor  16  15  17  18
 230 prop tor  16  15  17  46
 231 ben  17  18  19
 232 prop tor  17  18  19  20
 233 prop tor  17  18  19  73
 234 ben  17  18  45
 235 prop tor  17  18  45  44
 236 prop tor  17  18  45  93
 237 ben  17  46  47
 238 ben  17  46  48
 239 prop tor  17  46  48  49
 240 prop tor  17  46  48  61
 241 ben  18  17  46
 242 prop tor  18  17  46  47
 243 prop tor  18  17  46  48
 244 ben  18  19  20
 245 prop tor  18  19  20  21
 246 prop tor  18  19  20  74
 247 ben  18  19  73
 248 ben  18  45  44
 249 ben  18  45  93
 250 ben  19  18  45
 251 prop tor  19  18  45  44
 252 prop tor  19  18  45  93
 253 ben  19  20  21
 254 prop tor  19  20  21  22
 255 prop tor  19  20  21  44
 256 ben  19  20  74
 257 ben  20  19  73
 258 ben  20  21  22
 259 prop tor  20  21  22  23
 260 prop tor  20  21  22  26
 261 ben  20  21  44
 262 prop tor  20  21  44  45
 263 prop tor  20  21  44  92
 264 ben  21  20  74
 265 ben  21  22  23
 266 prop tor  21  22  23  24
 267 prop tor  21  22  23  75
 268 ben  21  22  26
 269 prop tor  21  22  26  25
 270 ben  21  44  45
 271 prop tor  21  44  45  18
 272 prop tor  21  44  45  93
 273 ben  21  44  92
 274 ben  22  21  44
 275 prop tor  22  21  44  45
 276 prop tor  22  21  44  92
 277 ben  22  23  24
 278 prop tor  22  23  24  25
 279 prop tor  22  23  24  33
 280 ben  22  23  75
 281 ben  22  26  25
 282 ben  23  22  26
 283 prop tor  23  22  26  25
 284 ben  23  24  25
 285 prop tor  23  24  25  26
 286 prop tor  23  24  25  27
 287 ben  23  24  33
 288 prop tor  23  24  33  32
 289 prop tor  23  24  33  34
 290 prop tor  23  24  33  35
 291 ben  24  23  75
 292 ben  24  25  26
 293 prop tor  24  25  26  22
 294 ben  24  25  27
 295 prop tor  24  25  27  28
 296 prop tor  24  25  27  32
 297 ben  24  33  32
 298 ben  24  33  34
 299 prop tor  24  33  34  78
 300 prop tor  24  33  34  79
 301 prop tor  24  33  34  80
 302 ben  24  33  35
 303 prop tor  24  33  35  81
 304 prop tor  24  33  35  82
 305 prop tor  24  33  35  83
 306 ben  25  24  33
 307 prop tor  25  24  33  32
 308 prop tor  25  24  33  34
 309 prop tor  25  24  33  35
 310 ben  25  27  28
 311 prop tor  25  27  28  29
 312 prop tor  25  27  28  76
 313 ben  25  27  32
 314 prop tor  25  27  32  31
 315 prop tor  25  27  32  33
 316 prop tor  26  22  23  24
 317 prop tor  26  22  23  75
 318 ben  26  25  27
 319 prop tor  26  25  27  28
 320 prop tor  26  25  27  32
 321 prop tor  27  25  26  22
 322 ben  27  28  29
 323 prop tor  27  28  29  30
 324 prop tor  27  28  29  41
 325 ben  27  28  76
 326 ben  27  32  31
 327 ben  27  32  33
 328 prop tor  27  32  33  24
 329 prop tor  27  32  33  34
 330 prop tor  27  32  33  35
 331 ben  28  27  32
 332 prop tor  28  27  32  31
 333 prop tor  28  27  32  33
 334 ben  28  29  30
 335 prop tor  28  29  30  31
 336 prop tor  28  29  30  36
 337 ben  28  29  41
 338 prop tor  28  29  41  40
 339 prop tor  28  29  41  42
 340 prop tor  28  29  41  43
 341 ben  29  28  76
 342 ben  29  30  31
 343 prop tor  29  30  31  32
 344 prop tor  29  30  31  77
 345 ben  29  30  36
 346 prop tor  29  30  36  37
 347 prop tor  29  30  36  40
 348 ben  29  41  40
 349 ben  29  41  42
 350 prop tor  29  41  42  86
 351 prop tor  29  41  42  87
 352 prop tor  29  41  42  88
 353 ben  29  41  43
 354 prop tor  29  41  43  89
 355 prop tor  29  41  43  90
 356 prop tor  29  41  43  91
 357 ben  30  29  41
 358 prop tor  30  29  41  40
 359 prop tor  30  29  41  42
 360 prop tor  30  29  41  43
 361 ben  30  31  32
 362 prop tor  30  31  32  27
 363 prop tor  30  31  32  33
 364 ben  30  31  77
 365 ben  30  36  37
 366 prop tor  30  36  37  38
 367 ben  30  36  40
 368 prop tor  30  36  40  39
 369 prop tor  30  36  40  41
 370 ben  31  30  36
 371 prop tor  31  30  36  37
 372 prop tor  31  30  36  40
 373 ben  31  32  33
 374 prop tor  31  32  33  24
 375 prop tor  31  32  33  34
 376 prop tor  31  32  33  35
 377 prop tor  32  27  28  29
 378 prop tor  32  27  28  76
 379 ben  32  31  77
 380 ben  32  33  34
 381 prop tor  32  33  34  78
 382 prop tor  32  33  34  79
 383 prop tor  32  33  34  80
 384 ben  32  33  35
 385 prop tor  32  33  35  81
 386 prop tor  32  33  35  82
 387 prop tor  32  33  35  83
 388 prop tor  33  24  25  26
 389 prop tor  33  24  25  27
 390 ben  33  34  78
 391 ben  33  34  79
 392 ben  33  34  80
 393 ben  33  35  81
 394 ben  33  35  82
 395 ben  33  35  83
 396 ben  34  33  35
 397 prop tor  34  33  35  81
 398 prop tor  34  33  35  82
 399 prop tor  34  33  35  83
 400 prop tor  35  33  34  78
 401 prop tor  35  33  34  79
 402 prop tor  35  33  34  80
 403 prop tor  36  30  31  32
 404 prop tor  36  30  31  77
 405 ben  36  37  38
 406 prop tor  36  37  38  39
 407 prop tor  36  37  38  84
 408 ben  36  40  39
 409 ben  36  40  41
 410 prop tor  36  40  41  29
 411 prop tor  36  40  41  42
 412 prop tor  36  40  41  43
 413 ben  37  36  40
 414 prop tor  37  36  40  39
 415 prop tor  37  36  40  41
 416 ben  37  38  39
 417 prop tor  37  38  39  40
 418 prop tor  37  38  39  85
 419 ben  37  38  84
 420 ben  38  39  40
 421 prop tor  38  39  40  36
 422 prop tor  38  39  40  41
 423 ben  38  39  85
 424 ben  39  38  84
 425 ben  39  40  41
 426 prop tor  39  40  41  29
 427 prop tor  39  40  41  42
 428 prop tor  39  40  41  43
 429 prop tor  40  36  37  38
 430 ben  40  39  85
 431 ben  40  41  42
 432 prop tor  40  41  42  86
 433 prop tor  40  41  42  87
 434 prop tor  40  41  42  88
 435 ben  40  41  43
 436 prop tor  40  41  43  89
 437 prop tor  40  41  43  90
 438 prop tor  40  41  43  91
 439 prop tor  41  29  30  31
 440 prop tor  41  29  30  36
 441 ben  41  42  86
 442 ben  41  42  87
 443 ben  41  42  88
 444 ben  41  43  89
 445 ben  41  43  90
 446 ben  41  43  91
 447 ben  42  41  43
 448 prop tor  42  41  43  89
 449 prop tor  42  41  43  90
 450 prop tor  42  41  43  91
 451 prop tor  43  41  42  86
 452 prop tor  43  41  42  87
 453 prop tor  43  41  42  88
 454 prop tor  44  21  22  23
 455 prop tor  44  21  22  26
 456 ben  44  45  93
 457 prop tor  45  18  19  20
 458 prop tor  45  18  19  73
 459 ben  45  44  92
 460 prop tor  46  17  18  19
 461 prop tor  46  17  18  45
 462 ben  46  48  49
 463 prop tor  46  48  49  50
 464 prop tor  46  48  49  94
 465 ben  46  48  61
 466 prop tor  46  48  61  14
 467 prop tor  46  48  61  60
 468 ben  47  46  48
 469 prop tor  47  46  48  49
 470 prop tor  47  46  48  61
 471 ben  48  49  50
 472 prop tor  48  49  50  51
 473 prop tor  48  49  50  95
 474 ben  48  49  94
 475 ben  48  61  60
 476 ben  49  48  61
 477 prop tor  49  48  61  14
 478 prop tor  49  48  61  60
 479 ben  49  50  51
 480 prop tor  49  50  51  52
 481 prop tor  49  50  51  60
 482 ben  49  50  95
 483 ben  50  49  94
 484 ben  50  51  52
 485 prop tor  50  51  52  53
 486 prop tor  50  51  52  59
 487 ben  50  51  60
 488 prop tor  50  51  60  11
 489 prop tor  50  51  60  61
 490 ben  51  50  95
 491 ben  51  52  53
 492 prop tor  51  52  53  54
 493 prop tor  51  52  53  96
 494 ben  51  52  59
 495 prop tor  51  52  59  10
 496 prop tor  51  52  59  58
 497 ben  51  60  61
 498 prop tor  51  60  61  14
 499 prop tor  51  60  61  48
 500 ben  52  51  60
 501 prop tor  52  51  60  11
 502 prop tor  52  51  60  61
 503 ben  52  53  54
 504 prop tor  52  53  54  55
 505 prop tor  52  53  54  97
 506 ben  52  53  96
 507 ben  52  59  58
 508 ben  53  52  59
 509 prop tor  53  52  59  10
 510 prop tor  53  52  59  58
 511 ben  53  54  55
 512 prop tor  53  54  55  56
 513 prop tor  53  54  55  58
 514 ben  53  54  97
 515 ben  54  53  96
 516 ben  54  55  56
 517 prop tor  54  55  56   4
 518 prop tor  54  55  56  57
 519 ben  54  55  58
 520 prop tor  54  55  58   7
 521 prop tor  54  55  58  59
 522 ben  55  54  97
 523 ben  55  56  57
 524 ben  55  58  59
 525 prop tor  55  58  59  10
 526 prop tor  55  58  59  52
 527 prop tor  56   4   5   6
 528 prop tor  56   4   5   7
 529 ben  56  55  58
 530 prop tor  56  55  58   7
 531 prop tor  56  55  58  59
 532 prop tor  58   7   8   9
 533 prop tor  58   7   8  69
 534 prop tor  58  55  56   4
 535 prop tor  58  55  56  57
 536 prop tor  59  10  11  12
 537 prop tor  59  10  11  60
 538 prop tor  59  52  53  54
 539 prop tor  59  52  53  96
 540 prop tor  60  11  12  13
 541 prop tor  60  11  12  71
 542 prop tor  60  51  52  53
 543 prop tor  60  51  52  59
 544 prop tor  61  14  15  16
 545 prop tor  61  14  15  17
 546 prop tor  61  48  49  50
 547 prop tor  61  48  49  94
 548 prop tor  62   1   2   3
 549 prop tor  62   1   2   4
 550 prop tor  62   1   2  65
 551 ben  62   1  63
 552 ben  62   1  64
 553 prop tor  63   1   2   3
 554 prop tor  63   1   2   4
 555 prop tor  63   1   2  65
 556 ben  63   1  64
 557 prop tor  64   1   2   3
 558 prop tor  64   1   2   4
 559 prop tor  64   1   2  65
 560 prop tor  65   2   3  66
 561 prop tor  65   2   3  67
 562 prop tor  65   2   3  68
 563 prop tor  65   2   4   5
 564 prop tor  65   2   4  56
 565 ben  66   3  67
 566 ben  66   3  68
 567 ben  67   3  68
 568 prop tor  69   8   9  10
 569 prop tor  69   8   9  70
 570 prop tor  70   9  10  11
 571 prop tor  70   9  10  59
 572 prop tor  71  12  13  14
 573 prop tor  71  12  13  72
 574 prop tor  72  13  14  15
 575 prop tor  72  13  14  61
 576 prop tor  73  19  20  21
 577 prop tor  73  19  20  74
 578 prop tor  74  20  21  22
 579 prop tor  74  20  21  44
 580 prop tor  75  23  24  25
 581 prop tor  75  23  24  33
 582 prop tor  76  28  29  30
 583 prop tor  76  28  29  41
 584 prop tor  77  31  32  27
 585 prop tor  77  31  32  33
 586 ben  78  34  79
 587 ben  78  34  80
 588 ben  79  34  80
 589 ben  81  35  82
 590 ben  81  35  83
 591 ben  82  35  83
 592 prop tor  84  38  39  40
 593 prop tor  84  38  39  85
 594 prop tor  85  39  40  36
 595 prop tor  85  39  40  41
 596 ben  86  42  87
 597 ben  86  42  88
 598 ben  87  42  88
 599 ben  89  43  90
 600 ben  89  43  91
 601 ben  90  43  91
 602 prop tor  92  44  45  18
 603 prop tor  92  44  45  93
 604 prop tor  94  49  50  51
 605 prop tor  94  49  50  95
 606 prop tor  95  50  51  52
 607 prop tor  95  50  51  60
 608 prop tor  96  53  54  55
 609 prop tor  96  53  54  97
 610 prop tor  97  54  55  56
 611 prop tor  97  54  55  58
 nber bend=             194
 nber lin bend=           0
 nber prop tor=         308
 nber impr tor=           0
 nber tot redund int=         611
 Reading file: 
 ./IDT-A_2_C0S2.log                                                             
                                          
  Entering Gaussian System, Link 0=g16                                          
  
 Gaussian format, type: g94, g98, g03= F F F
  ******************************************                                
