 Enter ifcurve (0=recti, 1=orth curvi, 2=apprx curvi, -1 = skip
 And atom ordering flag, 0= never changes, 1= use the first order thenceforth,
  2= deduce it (does read on fail), 3= always read it
 Reading file: 
 ./IDT-A_3_C0S1.log                                                             
                                          
  Entering Gaussian System, Link 0=g16                                          
  
 Gaussian format, type: g94, g98, g03= F F F
  #P Geom=AllCheck Guess=TCheck SCRF=Check GenChk RB3LYP TD(FC,Read)/6-3    
 energy type= TD      
 Original G94 input coords:
  6  2.573465  2.325489 -0.181269
  6  3.187142  0.921507 -0.126088
  6  2.414752 -0.038567  0.786299
  7  3.396196  0.350901 -1.485726
  6  2.278526  0.093055 -2.298845
  8  1.143692  0.334742 -1.895292
  6  2.536986 -0.468611 -3.627757
  6  1.461392 -0.743688 -4.476478
  6  1.669747 -1.272871 -5.734285
  6  2.967691 -1.558581 -6.217861
  6  3.199207 -2.113469 -7.534228
  6  2.139510 -2.407187 -8.425868
  6  2.369919 -2.936467 -9.676003
  6  3.672968 -3.205236-10.115621
  6  3.867252 -3.769967-11.442649
  8  2.959657 -4.035277-12.220462
  7  5.220516 -4.011370-11.826618
  6  5.449449 -4.565205-13.127679
  6  6.275084 -3.903003-14.037606
  6  6.503167 -4.439457-15.295478
  6  5.901820 -5.651483-15.672481
  6  6.135004 -6.202651-16.964304
  6  6.335667 -6.669734-18.062746
  6  6.575732 -7.211995-19.353069
  6  5.951458 -8.404369-19.771658
  6  6.198518 -8.934173-21.033228
  6  7.067910 -8.297647-21.908641
  6  7.701982 -7.104086-21.518712
  6  8.611515 -6.404480-22.417235
  6  8.957734 -5.050833-22.401477
  6  9.861408 -4.717219-23.406698
  6 10.221917 -5.808837-24.208942
 16  9.444120 -7.272533-23.707162
  6 11.139681 -5.423222-25.214874
  6 11.776480 -6.166380-26.235058
  6 12.633876 -5.501223-27.073715
  6 12.865983 -4.093199-26.908061
  6 12.230973 -3.350033-25.891391
  6 11.373144 -4.014175-25.050080
  6 10.562521 -3.455831-23.874677
  6  9.548832 -2.388191-24.343408
  6 11.482724 -2.882638-22.773906
  6 13.791332 -3.707852-27.919366
 16 14.578594 -2.244612-28.415790
  6 15.387220 -3.113987-29.684017
  6 15.069559 -4.453949-29.722989
  6 14.153902 -4.795128-28.710681
  6 13.448355 -6.056645-28.248553
  6 14.457699 -7.127774-27.778742
  6 12.530232 -6.626391-29.352693
  6  7.449631 -6.574964-20.244438
  6  5.068879 -6.309655-14.752986
  6  4.849743 -5.771245-13.494069
  6  6.362776 -3.742670-11.014806
  8  7.483927 -3.981791-11.445920
  6  6.091054 -3.191980 -9.695645
  6  7.166158 -2.915450 -8.840528
  6  6.955745 -2.389305 -7.585661
  6  5.654548 -2.104394 -7.105788
  6  5.422794 -1.549576 -5.789778
  6  6.478445 -1.254642 -4.895755
  6  6.245193 -0.725171 -3.642699
  6  4.943626 -0.458850 -3.207906
  6  4.734021  0.103190 -1.871966
  8  5.662594  0.354049 -1.109622
  6  3.853750 -0.735717 -4.062851
  6  4.083408 -1.286049 -5.368130
  6  4.539169 -2.377837 -7.958160
  6  4.769282 -2.929013 -9.265553
  1  2.570083  2.757889  0.824092
  1  1.551557  2.298355 -0.557168
  1  3.169892  2.978095 -0.824543
  1  4.199734  1.012212  0.261534
  1  1.386121 -0.164839  0.451156
  1  2.409154  0.358402  1.806160
  1  2.901607 -1.017222  0.810530
  1  0.462315 -0.529716 -4.118252
  1  0.807981 -1.469703 -6.356461
  1  1.118235 -2.215917 -8.128569
  1  1.549924 -3.157758-10.347535
  1  6.748620 -2.976223-13.747111
  1  7.148761 -3.922961-15.995542
  1  5.273328 -8.905591-19.092805
  1  5.702803 -9.848169-21.337101
  1  7.230168 -8.707163-22.898621
  1  8.530031 -4.357579-21.691925
  1 11.586334 -7.228159-26.340540
  1 12.421377 -2.288384-25.785677
  1  8.891501 -2.777566-25.123295
  1 10.070717 -1.513272-24.737483
  1  8.930546 -2.059361-23.505386
  1 12.206365 -3.625152-22.432178
  1 10.890240 -2.560016-21.915135
  1 12.030111 -2.014391-23.147559
  1 16.060038 -2.577681-30.336157
  1 15.488038 -5.133623-30.452070
  1 15.111777 -6.741355-26.994738
  1 15.079878 -7.454325-28.615161
  1 13.933957 -8.003946-27.389575
  1 11.807792 -5.881886-29.692815
  1 11.981339 -7.496114-28.984237
  1 13.124707 -6.945668-30.211766
  1  7.952617 -5.675160-19.915772
  1  4.598143 -7.244471-15.032061
  1  4.200306 -6.275612-12.793060
  1  8.166754 -3.127955 -9.195401
  1  7.814450 -2.192997 -6.959503
  1  7.501320 -1.444483 -5.189278
  1  7.063017 -0.504287 -2.968509
 nber atoms=         109
  Total Energy, E(TD-HF/TD-DFT) =  -3556.12476479                               
  
          32          49 "  -3556.12476479"
After scan for Atom:   Atom  AN      X      Y      Z        X      Y      Z        X      Y      Z   
After scan for Atom:   Atom  AN      X      Y      Z        X      Y      Z        X      Y      Z   
After scan for Atom:   Atom  AN      X      Y      Z        X      Y      Z        X      Y      Z   
After scan for Atom:   Atom  AN      X      Y      Z        X      Y      Z        X      Y      Z   
After scan for Atom:   Atom  AN      X      Y      Z        X      Y      Z        X      Y      Z   
After scan for Atom:   Atom  AN      X      Y      Z        X      Y      Z        X      Y      Z   
After scan for Atom:   Atom  AN      X      Y      Z        X      Y      Z        X      Y      Z   
After scan for Atom:   Atom  AN      X      Y      Z        X      Y      Z        X      Y      Z   
After scan for Atom:   Atom  AN      X      Y      Z        X      Y      Z        X      Y      Z   
After scan for Atom:   Atom  AN      X      Y      Z        X      Y      Z        X      Y      Z   
After scan for Atom:   Atom  AN      X      Y      Z        X      Y      Z        X      Y      Z   
After scan for Atom:   Atom  AN      X      Y      Z        X      Y      Z        X      Y      Z   
After scan for Atom:   Atom  AN      X      Y      Z        X      Y      Z        X      Y      Z   
After scan for Atom:   Atom  AN      X      Y      Z        X      Y      Z        X      Y      Z   
After scan for Atom:   Atom  AN      X      Y      Z        X      Y      Z        X      Y      Z   
After scan for Atom:   Atom  AN      X      Y      Z        X      Y      Z        X      Y      Z   
After scan for Atom:   Atom  AN      X      Y      Z        X      Y      Z        X      Y      Z   
After scan for Atom:   Atom  AN      X      Y      Z        X      Y      Z        X      Y      Z   
After scan for Atom:   Atom  AN      X      Y      Z        X      Y      Z        X      Y      Z   
After scan for Atom:   Atom  AN      X      Y      Z        X      Y      Z        X      Y      Z   
After scan for Atom:   Atom  AN      X      Y      Z        X      Y      Z        X      Y      Z   
After scan for Atom:   Atom  AN      X      Y      Z        X      Y      Z        X      Y      Z   
After scan for Atom:   Atom  AN      X      Y      Z        X      Y      Z        X      Y      Z   
After scan for Atom:   Atom  AN      X      Y      Z        X      Y      Z        X      Y      Z   
After scan for Atom:   Atom  AN      X      Y      Z        X      Y      Z        X      Y      Z   
After scan for Atom:   Atom  AN      X      Y      Z        X      Y      Z        X      Y      Z   
After scan for Atom:   Atom  AN      X      Y      Z        X      Y      Z        X      Y      Z   
After scan for Atom:   Atom  AN      X      Y      Z        X      Y      Z        X      Y      Z   
After scan for Atom:   Atom  AN      X      Y      Z        X      Y      Z        X      Y      Z   
After scan for Atom:   Atom  AN      X      Y      Z        X      Y      Z        X      Y      Z   
After scan for Atom:   Atom  AN      X      Y      Z        X      Y      Z        X      Y      Z   
After scan for Atom:   Atom  AN      X      Y      Z        X      Y      Z        X      Y      Z   
After scan for Atom:   Atom  AN      X      Y      Z        X      Y      Z        X      Y      Z   
After scan for Atom:   Atom  AN      X      Y      Z        X      Y      Z        X      Y      Z   
After scan for Atom:   Atom  AN      X      Y      Z        X      Y      Z        X      Y      Z   
After scan for Atom:   Atom  AN      X      Y      Z        X      Y      Z        X      Y      Z   
After scan for Atom:   Atom  AN      X      Y      Z        X      Y      Z        X      Y      Z   
After scan for Atom:   Atom  AN      X      Y      Z        X      Y      Z        X      Y      Z   
After scan for Atom:   Atom  AN      X      Y      Z        X      Y      Z        X      Y      Z   
After scan for Atom:   Atom  AN      X      Y      Z        X      Y      Z        X      Y      Z   
After scan for Atom:   Atom  AN      X      Y      Z        X      Y      Z        X      Y      Z   
After scan for Atom:   Atom  AN      X      Y      Z        X      Y      Z        X      Y      Z   
After scan for Atom:   Atom  AN      X      Y      Z        X      Y      Z        X      Y      Z   
After scan for Atom:   Atom  AN      X      Y      Z        X      Y      Z        X      Y      Z   
After scan for Atom:   Atom  AN      X      Y      Z        X      Y      Z        X      Y      Z   
After scan for Atom:   Atom  AN      X      Y      Z        X      Y      Z        X      Y      Z   
After scan for Atom:   Atom  AN      X      Y      Z        X      Y      Z        X      Y      Z   
After scan for Atom:   Atom  AN      X      Y      Z        X      Y      Z        X      Y      Z   
After scan for Atom:   Atom  AN      X      Y      Z        X      Y      Z        X      Y      Z   
After scan for Atom:   Atom  AN      X      Y      Z        X      Y      Z        X      Y      Z   
After scan for Atom:   Atom  AN      X      Y      Z        X      Y      Z        X      Y      Z   
After scan for Atom:   Atom  AN      X      Y      Z        X      Y      Z        X      Y      Z   
After scan for Atom:   Atom  AN      X      Y      Z        X      Y      Z        X      Y      Z   
After scan for Atom:   Atom  AN      X      Y      Z        X      Y      Z        X      Y      Z   
After scan for Atom:   Atom  AN      X      Y      Z        X      Y      Z        X      Y      Z   
After scan for Atom:   Atom  AN      X      Y      Z        X      Y      Z        X      Y      Z   
After scan for Atom:   Atom  AN      X      Y      Z        X      Y      Z        X      Y      Z   
After scan for Atom:   Atom  AN      X      Y      Z        X      Y      Z        X      Y      Z   
After scan for Atom:   Atom  AN      X      Y      Z        X      Y      Z        X      Y      Z   
After scan for Atom:   Atom  AN      X      Y      Z        X      Y      Z        X      Y      Z   
After scan for Atom:   Atom  AN      X      Y      Z        X      Y      Z        X      Y      Z   
After scan for Atom:   Atom  AN      X      Y      Z        X      Y      Z        X      Y      Z   
After scan for Atom:   Atom  AN      X      Y      Z        X      Y      Z        X      Y      Z   
After scan for Atom:   Atom  AN      X      Y      Z        X      Y      Z        X      Y      Z   
After scan for Atom:   Atom  AN      X      Y      Z        X      Y      Z        X      Y      Z   
After scan for Atom:   Atom  AN      X      Y      Z        X      Y      Z        X      Y      Z   
After scan for Atom:   Atom  AN      X      Y      Z        X      Y      Z        X      Y      Z   
After scan for Atom:   Atom  AN      X      Y      Z        X      Y      Z        X      Y      Z   
After scan for Atom:   Atom  AN      X      Y      Z        X      Y      Z        X      Y      Z   
After scan for Atom:   Atom  AN      X      Y      Z        X      Y      Z        X      Y      Z   
After scan for Atom:   Atom  AN      X      Y      Z        X      Y      Z        X      Y      Z   
After scan for Atom:   Atom  AN      X      Y      Z        X      Y      Z        X      Y      Z   
After scan for Atom:   Atom  AN      X      Y      Z        X      Y      Z        X      Y      Z   
After scan for Atom:   Atom  AN      X      Y      Z        X      Y      Z        X      Y      Z   
After scan for Atom:   Atom  AN      X      Y      Z        X      Y      Z        X      Y      Z   
After scan for Atom:   Atom  AN      X      Y      Z        X      Y      Z        X      Y      Z   
After scan for Atom:   Atom  AN      X      Y      Z        X      Y      Z        X      Y      Z   
After scan for Atom:   Atom  AN      X      Y      Z        X      Y      Z        X      Y      Z   
After scan for Atom:   Atom  AN      X      Y      Z        X      Y      Z        X      Y      Z   
After scan for Atom:   Atom  AN      X      Y      Z        X      Y      Z        X      Y      Z   
After scan for Atom:   Atom  AN      X      Y      Z        X      Y      Z        X      Y      Z   
After scan for Atom:   Atom  AN      X      Y      Z        X      Y      Z        X      Y      Z   
After scan for Atom:   Atom  AN      X      Y      Z        X      Y      Z        X      Y      Z   
After scan for Atom:   Atom  AN      X      Y      Z        X      Y      Z        X      Y      Z   
After scan for Atom:   Atom  AN      X      Y      Z        X      Y      Z        X      Y      Z   
After scan for Atom:   Atom  AN      X      Y      Z        X      Y      Z        X      Y      Z   
After scan for Atom:   Atom  AN      X      Y      Z        X      Y      Z        X      Y      Z   
After scan for Atom:   Atom  AN      X      Y      Z        X      Y      Z        X      Y      Z   
After scan for Atom:   Atom  AN      X      Y      Z        X      Y      Z        X      Y      Z   
After scan for Atom:   Atom  AN      X      Y      Z        X      Y      Z        X      Y      Z   
After scan for Atom:   Atom  AN      X      Y      Z        X      Y      Z        X      Y      Z   
After scan for Atom:   Atom  AN      X      Y      Z        X      Y      Z        X      Y      Z   
After scan for Atom:   Atom  AN      X      Y      Z        X      Y      Z        X      Y      Z   
After scan for Atom:   Atom  AN      X      Y      Z        X      Y      Z        X      Y      Z   
After scan for Atom:   Atom  AN      X      Y      Z        X      Y      Z        X      Y      Z   
After scan for Atom:   Atom  AN      X      Y      Z        X      Y      Z        X      Y      Z   
After scan for Atom:   Atom  AN      X      Y      Z        X      Y      Z        X      Y      Z   
After scan for Atom:   Atom  AN      X      Y      Z        X      Y      Z        X      Y      Z   
After scan for Atom:   Atom  AN      X      Y      Z        X      Y      Z        X      Y      Z   
After scan for Atom:   Atom  AN      X      Y      Z        X      Y      Z        X      Y      Z   
After scan for Atom:   Atom  AN      X      Y      Z        X      Y      Z        X      Y      Z   
After scan for Atom:   Atom  AN      X      Y      Z        X      Y      Z        X      Y      Z   
After scan for Atom:   Atom  AN      X      Y      Z        X      Y      Z        X      Y      Z   
After scan for Atom:   Atom  AN      X      Y      Z        X      Y      Z        X      Y      Z   
After scan for Atom:   Atom  AN      X      Y      Z        X      Y      Z        X      Y      Z   
After scan for Atom:   Atom  AN      X      Y      Z        X      Y      Z        X      Y      Z   
After scan for Atom:   Atom  AN      X      Y      Z        X      Y      Z        X      Y      Z   
 g94    frequencies=
     0.0    0.0    0.0    0.0    0.0    0.0    4.0    4.8    5.3   11.3
    14.6   23.4   24.7   30.5   45.9   46.4   49.6   52.7   58.1   62.3
    66.3   77.2   84.3   86.9   92.6  101.0  104.9  106.4  114.8  127.1
   135.1  144.3  150.4  152.0  160.2  169.8  173.7  196.1  197.8  202.3
   206.7  212.3  216.2  220.3  226.1  234.2  235.4  242.3  244.7  249.0
   253.8  256.9  264.9  273.1  279.9  286.3  290.8  299.5  300.8  313.8
   316.9  330.1  337.2  343.0  357.8  362.7  378.1  393.5  397.7  410.6
   412.6  414.9  417.8  418.2  430.1  435.4  442.8  444.3  446.0  450.5
   454.4  467.1  474.2  476.8  486.0  495.8  499.7  501.2  505.8  508.2
   514.7  516.4  517.6  541.3  543.5  551.6  571.4  572.8  576.7  579.4
   581.2  592.1  592.6  603.1  624.4  625.7  630.9  635.5  655.3  657.1
   662.6  665.5  666.3  689.4  691.2  694.3  702.9  706.8  713.8  719.4
   725.5  728.6  730.4  741.4  741.5  748.6  755.1  758.1  761.1  768.8
   784.7  785.7  797.5  802.9  804.4  807.5  809.9  812.6  819.5  821.3
   827.8  828.9  829.7  833.4  838.2  847.2  850.6  866.8  875.0  894.2
   904.5  904.8  907.0  909.4  909.8  911.2  930.7  931.3  942.6  953.4
   954.5  954.7  956.3  966.4  968.4  971.6  973.0  974.4  980.5  983.7
   983.9  988.1  997.8 1004.1 1008.8 1032.2 1032.5 1033.2 1038.8 1066.3
  1070.3 1081.3 1091.1 1097.5 1108.5 1110.1 1117.4 1139.7 1146.0 1149.8
  1152.2 1153.0 1155.0 1157.5 1165.0 1166.1 1167.0 1174.2 1186.1 1197.0
  1200.6 1202.1 1203.6 1212.7 1225.2 1227.7 1234.8 1236.9 1243.2 1243.8
  1254.9 1257.4 1270.2 1275.6 1290.0 1297.2 1300.6 1308.0 1314.3 1317.4
  1331.8 1334.4 1337.1 1343.0 1353.0 1356.9 1363.9 1369.1 1372.7 1378.0
  1384.0 1390.7 1392.4 1397.1 1398.2 1404.5 1405.7 1408.3 1423.8 1426.2
  1430.4 1437.4 1438.8 1441.1 1454.2 1463.1 1464.3 1469.4 1473.5 1483.3
  1483.3 1485.2 1485.3 1486.1 1489.9 1490.1 1490.5 1494.8 1505.8 1506.4
  1506.9 1507.5 1513.2 1519.0 1522.5 1524.1 1530.9 1535.0 1544.4 1548.1
  1562.2 1572.8 1577.3 1592.3 1595.3 1598.2 1611.5 1618.9 1623.8 1627.2
  1637.4 1648.9 1673.8 1688.4 1709.3 1726.9 2303.5 3025.8 3030.8 3035.3
  3037.3 3038.4 3040.3 3083.1 3086.2 3103.1 3106.6 3106.6 3107.8 3111.0
  3112.0 3113.3 3113.7 3115.3 3130.7 3140.0 3176.3 3181.7 3183.1 3184.1
  3184.8 3187.4 3187.5 3191.2 3194.6 3194.8 3201.4 3204.4 3204.5 3206.1
  3217.0 3217.2 3217.7 3221.2 3222.1 3227.6 3246.9
 g94    symmetries=
                                                 A      A      A      A
       A      A      A      A      A      A      A      A      A      A
       A      A      A      A      A      A      A      A      A      A
       A      A      A      A      A      A      A      A      A      A
       A      A      A      A      A      A      A      A      A      A
       A      A      A      A      A      A      A      A      A      A
       A      A      A      A      A      A      A      A      A      A
       A      A      A      A      A      A      A      A      A      A
       A      A      A      A      A      A      A      A      A      A
       A      A      A      A      A      A      A      A      A      A
       A      A      A      A      A      A      A      A      A      A
       A      A      A      A      A      A      A      A      A      A
       A      A      A      A      A      A      A      A      A      A
       A      A      A      A      A      A      A      A      A      A
       A      A      A      A      A      A      A      A      A      A
       A      A      A      A      A      A      A      A      A      A
       A      A      A      A      A      A      A      A      A      A
       A      A      A      A      A      A      A      A      A      A
       A      A      A      A      A      A      A      A      A      A
       A      A      A      A      A      A      A      A      A      A
       A      A      A      A      A      A      A      A      A      A
       A      A      A      A      A      A      A      A      A      A
       A      A      A      A      A      A      A      A      A      A
       A      A      A      A      A      A      A      A      A      A
       A      A      A      A      A      A      A      A      A      A
       A      A      A      A      A      A      A      A      A      A
       A      A      A      A      A      A      A      A      A      A
       A      A      A      A      A      A      A      A      A      A
       A      A      A      A      A      A      A      A      A      A
       A      A      A      A      A      A      A      A      A      A
       A      A      A      A      A      A      A      A      A      A
       A      A      A      A      A      A      A      A      A      A
       A      A      A      A      A      A      A
 atomic masses:
 12.0000 12.0000 12.0000 14.0031 12.0000 15.9949 12.0000 12.0000 12.0000 12.0000
 12.0000 12.0000 12.0000 12.0000 12.0000 15.9949 14.0031 12.0000 12.0000 12.0000
 12.0000 12.0000 12.0000 12.0000 12.0000 12.0000 12.0000 12.0000 12.0000 12.0000
 12.0000 12.0000 31.9721 12.0000 12.0000 12.0000 12.0000 12.0000 12.0000 12.0000
 12.0000 12.0000 12.0000 31.9721 12.0000 12.0000 12.0000 12.0000 12.0000 12.0000
 12.0000 12.0000 12.0000 12.0000 15.9949 12.0000 12.0000 12.0000 12.0000 12.0000
 12.0000 12.0000 12.0000 12.0000 15.9949 12.0000 12.0000 12.0000 12.0000  1.0078
  1.0078  1.0078  1.0078  1.0078  1.0078  1.0078  1.0078  1.0078  1.0078  1.0078
  1.0078  1.0078  1.0078  1.0078  1.0078  1.0078  1.0078  1.0078  1.0078  1.0078
  1.0078  1.0078  1.0078  1.0078  1.0078  1.0078  1.0078  1.0078  1.0078  1.0078
  1.0078  1.0078  1.0078  1.0078  1.0078  1.0078  1.0078  1.0078  1.0078
 looking for force constants in 
 ./IDT-A_3_C0S1.fchk                                                            
  
 cant find forces in .fchk file
 NO FORCES: 
 ./IDT-A_3_C0S1.log                                                             
                                          
 g94-fc frequencies=

 at 99999: n3=           0
 symm operator            1 :  F  nop=           0
 symm operator            2 :  F  nop=           0
 symm operator            3 :  F  nop=           0
 symm operator            4 :  F  nop=           0
 symm operator            5 :  F  nop=           0
 symm operator            6 :  F  nop=           0
 symm operator            7 :  F  nop=           0
 The point group of the molecule is  C1
 Symmetry rotation matrix:
   1.00000   0.00000   0.00000
   0.00000   1.00000   0.00000
   0.00000   0.00000   1.00000

 highest evec of mol 1

 generating redundant internal coords
         300        3600         109
 Adding extra bonds for z output only
           6           6           6           7           6           8
           6           6           6           6           6           6
           6           6           6           8           7           6
           6           6           6           6           6           6
           6           6           6           6           6           6
           6           6          16           6           6           6
           6           6           6           6           6           6
           6          16           6           6           6           6
           6           6           6           6           6           6
           8           6           6           6           6           6
           6           6           6           6           8           6
           6           6           6           1           1           1
           1           1           1           1           1           1
           1           1           1           1           1           1
           1           1           1           1           1           1
           1           1           1           1           1           1
           1           1           1           1           1           1
           1           1           1           1           1           1
           1
 search for int coords
   1 str   2   1   1.533
   2 str   3   2   1.533
   3 str   4   2   1.489
   4 str   5   4   1.406
   5 str   6   5   1.228
   6 str   7   5   1.466
   7 str   8   7   1.397
   8 str   9   8   1.380
   9 str  10   9   1.414
  10 str  11  10   1.447
  11 str  12  11   1.416
  12 str  13  12   1.377
  13 str  14  13   1.401
  14 str  15  14   1.455
  15 str  16  15   1.224
  16 str  17  15   1.427
  17 str  18  17   1.432
  18 str  19  18   1.396
  19 str  20  19   1.386
  20 str  21  20   1.405
  21 str  22  21   1.424
  22 str  23  22   1.210
  23 str  24  23   1.420
  24 str  25  24   1.410
  25 str  26  25   1.390
  26 str  27  26   1.388
  27 str  28  27   1.407
  28 str  29  28   1.457
  29 str  30  29   1.397
  30 str  31  30   1.392
  31 str  32  31   1.402
  32 str  33  29   1.764
  33 str  33  32   1.732
  34 str  34  32   1.415
  35 str  35  34   1.414
  36 str  36  35   1.371
  37 str  37  36   1.437
  38 str  38  37   1.410
  39 str  39  34   1.438
  40 str  39  38   1.373
  41 str  40  31   1.517
  42 str  40  39   1.533
  43 str  41  40   1.545
  44 str  42  40   1.545
  45 str  43  37   1.424
  46 str  44  43   1.734
  47 str  45  44   1.737
  48 str  46  45   1.378
  49 str  47  43   1.393
  50 str  47  46   1.407
  51 str  48  36   1.534
  52 str  48  47   1.517
  53 str  49  48   1.545
  54 str  50  48   1.545
  55 str  51  24   1.401
  56 str  51  28   1.403
  57 str  52  21   1.404
  58 str  53  18   1.396
  59 str  53  52   1.387
  60 str  54  17   1.427
  61 str  55  54   1.225
  62 str  56  54   1.455
  63 str  57  56   1.401
  64 str  58  57   1.377
  65 str  59  58   1.416
  66 str  60  59   1.447
  67 str  61  60   1.414
  68 str  62  61   1.380
  69 str  63  62   1.398
  70 str  64   4   1.414
  71 str  64  63   1.464
  72 str  65  64   1.227
  73 str  66   7   1.412
  74 str  66  63   1.413
  75 str  67  10   1.429
  76 str  67  60   1.429
  77 str  67  66   1.435
  78 str  68  11   1.430
  79 str  68  59   1.430
  80 str  69  14   1.415
  81 str  69  56   1.415
  82 str  69  68   1.437
  83 str  70   1   1.094
  84 str  71   1   1.089
  85 str  72   1   1.093
  86 str  73   2   1.088
  87 str  74   3   1.089
  88 str  75   3   1.094
  89 str  76   3   1.093
  90 str  77   8   1.083
  91 str  78   9   1.081
  92 str  79  12   1.081
  93 str  80  13   1.083
  94 str  81  19   1.081
  95 str  82  20   1.083
  96 str  83  25   1.083
  97 str  84  26   1.083
  98 str  85  27   1.084
  99 str  86  30   1.080
 100 str  87  35   1.084
 101 str  88  38   1.084
 102 str  89  41   1.092
 103 str  90  41   1.092
 104 str  91  41   1.092
 105 str  92  42   1.092
 106 str  93  42   1.092
 107 str  94  42   1.092
 108 str  95  45   1.080
 109 str  96  46   1.081
 110 str  97  49   1.092
 111 str  98  49   1.092
 112 str  99  49   1.092
 113 str 100  50   1.092
 114 str 101  50   1.092
 115 str 102  50   1.092
 116 str 103  51   1.082
 117 str 104  52   1.083
 118 str 105  53   1.081
 119 str 106  57   1.083
 120 str 107  58   1.081
 121 str 108  61   1.081
 122 str 109  62   1.083
 nber stretches=         122
 123 ben   1   2   3
 124 prop tor   1   2   3  74
 125 prop tor   1   2   3  75
 126 prop tor   1   2   3  76
 127 ben   1   2   4
 128 prop tor   1   2   4   5
 129 prop tor   1   2   4  64
 130 ben   1   2  73
 131 ben   2   1  70
 132 ben   2   1  71
 133 ben   2   1  72
 134 ben   2   3  74
 135 ben   2   3  75
 136 ben   2   3  76
 137 ben   2   4   5
 138 prop tor   2   4   5   6
 139 prop tor   2   4   5   7
 140 ben   2   4  64
 141 prop tor   2   4  64  63
 142 prop tor   2   4  64  65
 143 ben   3   2   4
 144 prop tor   3   2   4   5
 145 prop tor   3   2   4  64
 146 ben   3   2  73
 147 prop tor   4   2   3  74
 148 prop tor   4   2   3  75
 149 prop tor   4   2   3  76
 150 ben   4   2  73
 151 ben   4   5   6
 152 ben   4   5   7
 153 prop tor   4   5   7   8
 154 prop tor   4   5   7  66
 155 ben   4  64  63
 156 ben   4  64  65
 157 ben   5   4  64
 158 prop tor   5   4  64  63
 159 prop tor   5   4  64  65
 160 ben   5   7   8
 161 prop tor   5   7   8   9
 162 prop tor   5   7   8  77
 163 ben   5   7  66
 164 prop tor   5   7  66  63
 165 prop tor   5   7  66  67
 166 ben   6   5   7
 167 prop tor   6   5   7   8
 168 prop tor   6   5   7  66
 169 ben   7   8   9
 170 prop tor   7   8   9  10
 171 prop tor   7   8   9  78
 172 ben   7   8  77
 173 ben   7  66  63
 174 ben   7  66  67
 175 prop tor   7  66  67  10
 176 prop tor   7  66  67  60
 177 ben   8   7  66
 178 prop tor   8   7  66  63
 179 prop tor   8   7  66  67
 180 ben   8   9  10
 181 prop tor   8   9  10  11
 182 prop tor   8   9  10  67
 183 ben   8   9  78
 184 ben   9   8  77
 185 ben   9  10  11
 186 prop tor   9  10  11  12
 187 prop tor   9  10  11  68
 188 ben   9  10  67
 189 prop tor   9  10  67  60
 190 prop tor   9  10  67  66
 191 ben  10   9  78
 192 ben  10  11  12
 193 prop tor  10  11  12  13
 194 prop tor  10  11  12  79
 195 ben  10  11  68
 196 prop tor  10  11  68  59
 197 prop tor  10  11  68  69
 198 ben  10  67  60
 199 ben  10  67  66
 200 ben  11  10  67
 201 prop tor  11  10  67  60
 202 prop tor  11  10  67  66
 203 ben  11  12  13
 204 prop tor  11  12  13  14
 205 prop tor  11  12  13  80
 206 ben  11  12  79
 207 ben  11  68  59
 208 ben  11  68  69
 209 prop tor  11  68  69  14
 210 prop tor  11  68  69  56
 211 ben  12  11  68
 212 prop tor  12  11  68  59
 213 prop tor  12  11  68  69
 214 ben  12  13  14
 215 prop tor  12  13  14  15
 216 prop tor  12  13  14  69
 217 ben  12  13  80
 218 ben  13  12  79
 219 ben  13  14  15
 220 prop tor  13  14  15  16
 221 prop tor  13  14  15  17
 222 ben  13  14  69
 223 prop tor  13  14  69  56
 224 prop tor  13  14  69  68
 225 ben  14  13  80
 226 ben  14  15  16
 227 ben  14  15  17
 228 prop tor  14  15  17  18
 229 prop tor  14  15  17  54
 230 ben  14  69  56
 231 ben  14  69  68
 232 ben  15  14  69
 233 prop tor  15  14  69  56
 234 prop tor  15  14  69  68
 235 ben  15  17  18
 236 prop tor  15  17  18  19
 237 prop tor  15  17  18  53
 238 ben  15  17  54
 239 prop tor  15  17  54  55
 240 prop tor  15  17  54  56
 241 ben  16  15  17
 242 prop tor  16  15  17  18
 243 prop tor  16  15  17  54
 244 ben  17  18  19
 245 prop tor  17  18  19  20
 246 prop tor  17  18  19  81
 247 ben  17  18  53
 248 prop tor  17  18  53  52
 249 prop tor  17  18  53 105
 250 ben  17  54  55
 251 ben  17  54  56
 252 prop tor  17  54  56  57
 253 prop tor  17  54  56  69
 254 ben  18  17  54
 255 prop tor  18  17  54  55
 256 prop tor  18  17  54  56
 257 ben  18  19  20
 258 prop tor  18  19  20  21
 259 prop tor  18  19  20  82
 260 ben  18  19  81
 261 ben  18  53  52
 262 ben  18  53 105
 263 ben  19  18  53
 264 prop tor  19  18  53  52
 265 prop tor  19  18  53 105
 266 ben  19  20  21
 267 prop tor  19  20  21  22
 268 prop tor  19  20  21  52
 269 ben  19  20  82
 270 ben  20  19  81
 271 ben  20  21  22
 272 prop tor  20  21  22  23
 273 ben  20  21  52
 274 prop tor  20  21  52  53
 275 prop tor  20  21  52 104
 276 ben  21  20  82
 277 lin ben  21  22  23
 279 ben  21  52  53
 280 prop tor  21  52  53  18
 281 prop tor  21  52  53 105
 282 ben  21  52 104
 283 ben  22  21  52
 284 prop tor  22  21  52  53
 285 prop tor  22  21  52 104
 Extend lin bond           1          21          22          24
 286 lin ben  22  23  24
 288 ben  23  24  25
 289 prop tor  23  24  25  26
 290 prop tor  23  24  25  83
 291 ben  23  24  51
 292 prop tor  23  24  51  28
 293 prop tor  23  24  51 103
 294 ben  24  25  26
 295 prop tor  24  25  26  27
 296 prop tor  24  25  26  84
 297 ben  24  25  83
 298 ben  24  51  28
 299 ben  24  51 103
 300 ben  25  24  51
 301 prop tor  25  24  51  28
 302 prop tor  25  24  51 103
 303 ben  25  26  27
 304 prop tor  25  26  27  28
 305 prop tor  25  26  27  85
 306 ben  25  26  84
 307 ben  26  25  83
 308 ben  26  27  28
 309 prop tor  26  27  28  29
 310 prop tor  26  27  28  51
 311 ben  26  27  85
 312 ben  27  26  84
 313 ben  27  28  29
 314 prop tor  27  28  29  30
 315 prop tor  27  28  29  33
 316 ben  27  28  51
 317 prop tor  27  28  51  24
 318 prop tor  27  28  51 103
 319 ben  28  27  85
 320 ben  28  29  30
 321 prop tor  28  29  30  31
 322 prop tor  28  29  30  86
 323 ben  28  29  33
 324 prop tor  28  29  33  32
 325 ben  28  51 103
 326 ben  29  28  51
 327 prop tor  29  28  51  24
 328 prop tor  29  28  51 103
 329 ben  29  30  31
 330 prop tor  29  30  31  32
 331 prop tor  29  30  31  40
 332 ben  29  30  86
 333 ben  29  33  32
 334 ben  30  29  33
 335 prop tor  30  29  33  32
 336 ben  30  31  32
 337 prop tor  30  31  32  33
 338 prop tor  30  31  32  34
 339 ben  30  31  40
 340 prop tor  30  31  40  39
 341 prop tor  30  31  40  41
 342 prop tor  30  31  40  42
 343 ben  31  30  86
 344 ben  31  32  33
 345 prop tor  31  32  33  29
 346 ben  31  32  34
 347 prop tor  31  32  34  35
 348 prop tor  31  32  34  39
 349 ben  31  40  39
 350 ben  31  40  41
 351 prop tor  31  40  41  89
 352 prop tor  31  40  41  90
 353 prop tor  31  40  41  91
 354 ben  31  40  42
 355 prop tor  31  40  42  92
 356 prop tor  31  40  42  93
 357 prop tor  31  40  42  94
 358 ben  32  31  40
 359 prop tor  32  31  40  39
 360 prop tor  32  31  40  41
 361 prop tor  32  31  40  42
 362 ben  32  34  35
 363 prop tor  32  34  35  36
 364 prop tor  32  34  35  87
 365 ben  32  34  39
 366 prop tor  32  34  39  38
 367 prop tor  32  34  39  40
 368 prop tor  33  29  30  31
 369 prop tor  33  29  30  86
 370 ben  33  32  34
 371 prop tor  33  32  34  35
 372 prop tor  33  32  34  39
 373 prop tor  34  32  33  29
 374 ben  34  35  36
 375 prop tor  34  35  36  37
 376 prop tor  34  35  36  48
 377 ben  34  35  87
 378 ben  34  39  38
 379 ben  34  39  40
 380 prop tor  34  39  40  31
 381 prop tor  34  39  40  41
 382 prop tor  34  39  40  42
 383 ben  35  34  39
 384 prop tor  35  34  39  38
 385 prop tor  35  34  39  40
 386 ben  35  36  37
 387 prop tor  35  36  37  38
 388 prop tor  35  36  37  43
 389 ben  35  36  48
 390 prop tor  35  36  48  47
 391 prop tor  35  36  48  49
 392 prop tor  35  36  48  50
 393 ben  36  35  87
 394 ben  36  37  38
 395 prop tor  36  37  38  39
 396 prop tor  36  37  38  88
 397 ben  36  37  43
 398 prop tor  36  37  43  44
 399 prop tor  36  37  43  47
 400 ben  36  48  47
 401 ben  36  48  49
 402 prop tor  36  48  49  97
 403 prop tor  36  48  49  98
 404 prop tor  36  48  49  99
 405 ben  36  48  50
 406 prop tor  36  48  50 100
 407 prop tor  36  48  50 101
 408 prop tor  36  48  50 102
 409 ben  37  36  48
 410 prop tor  37  36  48  47
 411 prop tor  37  36  48  49
 412 prop tor  37  36  48  50
 413 ben  37  38  39
 414 prop tor  37  38  39  34
 415 prop tor  37  38  39  40
 416 ben  37  38  88
 417 ben  37  43  44
 418 prop tor  37  43  44  45
 419 ben  37  43  47
 420 prop tor  37  43  47  46
 421 prop tor  37  43  47  48
 422 ben  38  37  43
 423 prop tor  38  37  43  44
 424 prop tor  38  37  43  47
 425 ben  38  39  40
 426 prop tor  38  39  40  31
 427 prop tor  38  39  40  41
 428 prop tor  38  39  40  42
 429 prop tor  39  34  35  36
 430 prop tor  39  34  35  87
 431 ben  39  38  88
 432 ben  39  40  41
 433 prop tor  39  40  41  89
 434 prop tor  39  40  41  90
 435 prop tor  39  40  41  91
 436 ben  39  40  42
 437 prop tor  39  40  42  92
 438 prop tor  39  40  42  93
 439 prop tor  39  40  42  94
 440 prop tor  40  31  32  33
 441 prop tor  40  31  32  34
 442 ben  40  41  89
 443 ben  40  41  90
 444 ben  40  41  91
 445 ben  40  42  92
 446 ben  40  42  93
 447 ben  40  42  94
 448 ben  41  40  42
 449 prop tor  41  40  42  92
 450 prop tor  41  40  42  93
 451 prop tor  41  40  42  94
 452 prop tor  42  40  41  89
 453 prop tor  42  40  41  90
 454 prop tor  42  40  41  91
 455 prop tor  43  37  38  39
 456 prop tor  43  37  38  88
 457 ben  43  44  45
 458 prop tor  43  44  45  46
 459 prop tor  43  44  45  95
 460 ben  43  47  46
 461 ben  43  47  48
 462 prop tor  43  47  48  36
 463 prop tor  43  47  48  49
 464 prop tor  43  47  48  50
 465 ben  44  43  47
 466 prop tor  44  43  47  46
 467 prop tor  44  43  47  48
 468 ben  44  45  46
 469 prop tor  44  45  46  47
 470 prop tor  44  45  46  96
 471 ben  44  45  95
 472 ben  45  46  47
 473 prop tor  45  46  47  43
 474 prop tor  45  46  47  48
 475 ben  45  46  96
 476 ben  46  45  95
 477 ben  46  47  48
 478 prop tor  46  47  48  36
 479 prop tor  46  47  48  49
 480 prop tor  46  47  48  50
 481 prop tor  47  43  44  45
 482 ben  47  46  96
 483 ben  47  48  49
 484 prop tor  47  48  49  97
 485 prop tor  47  48  49  98
 486 prop tor  47  48  49  99
 487 ben  47  48  50
 488 prop tor  47  48  50 100
 489 prop tor  47  48  50 101
 490 prop tor  47  48  50 102
 491 prop tor  48  36  37  38
 492 prop tor  48  36  37  43
 493 ben  48  49  97
 494 ben  48  49  98
 495 ben  48  49  99
 496 ben  48  50 100
 497 ben  48  50 101
 498 ben  48  50 102
 499 ben  49  48  50
 500 prop tor  49  48  50 100
 501 prop tor  49  48  50 101
 502 prop tor  49  48  50 102
 503 prop tor  50  48  49  97
 504 prop tor  50  48  49  98
 505 prop tor  50  48  49  99
 506 prop tor  51  24  25  26
 507 prop tor  51  24  25  83
 508 prop tor  51  28  29  30
 509 prop tor  51  28  29  33
 510 prop tor  52  21  22  23
 511 ben  52  53 105
 512 prop tor  53  18  19  20
 513 prop tor  53  18  19  81
 514 ben  53  52 104
 515 prop tor  54  17  18  19
 516 prop tor  54  17  18  53
 517 ben  54  56  57
 518 prop tor  54  56  57  58
 519 prop tor  54  56  57 106
 520 ben  54  56  69
 521 prop tor  54  56  69  14
 522 prop tor  54  56  69  68
 523 ben  55  54  56
 524 prop tor  55  54  56  57
 525 prop tor  55  54  56  69
 526 ben  56  57  58
 527 prop tor  56  57  58  59
 528 prop tor  56  57  58 107
 529 ben  56  57 106
 530 ben  56  69  68
 531 ben  57  56  69
 532 prop tor  57  56  69  14
 533 prop tor  57  56  69  68
 534 ben  57  58  59
 535 prop tor  57  58  59  60
 536 prop tor  57  58  59  68
 537 ben  57  58 107
 538 ben  58  57 106
 539 ben  58  59  60
 540 prop tor  58  59  60  61
 541 prop tor  58  59  60  67
 542 ben  58  59  68
 543 prop tor  58  59  68  11
 544 prop tor  58  59  68  69
 545 ben  59  58 107
 546 ben  59  60  61
 547 prop tor  59  60  61  62
 548 prop tor  59  60  61 108
 549 ben  59  60  67
 550 prop tor  59  60  67  10
 551 prop tor  59  60  67  66
 552 ben  59  68  69
 553 prop tor  59  68  69  14
 554 prop tor  59  68  69  56
 555 ben  60  59  68
 556 prop tor  60  59  68  11
 557 prop tor  60  59  68  69
 558 ben  60  61  62
 559 prop tor  60  61  62  63
 560 prop tor  60  61  62 109
 561 ben  60  61 108
 562 ben  60  67  66
 563 ben  61  60  67
 564 prop tor  61  60  67  10
 565 prop tor  61  60  67  66
 566 ben  61  62  63
 567 prop tor  61  62  63  64
 568 prop tor  61  62  63  66
 569 ben  61  62 109
 570 ben  62  61 108
 571 ben  62  63  64
 572 prop tor  62  63  64   4
 573 prop tor  62  63  64  65
 574 ben  62  63  66
 575 prop tor  62  63  66   7
 576 prop tor  62  63  66  67
 577 ben  63  62 109
 578 ben  63  64  65
 579 ben  63  66  67
 580 prop tor  63  66  67  10
 581 prop tor  63  66  67  60
 582 prop tor  64   4   5   6
 583 prop tor  64   4   5   7
 584 ben  64  63  66
 585 prop tor  64  63  66   7
 586 prop tor  64  63  66  67
 587 prop tor  66   7   8   9
 588 prop tor  66   7   8  77
 589 prop tor  66  63  64   4
 590 prop tor  66  63  64  65
 591 prop tor  67  10  11  12
 592 prop tor  67  10  11  68
 593 prop tor  67  60  61  62
 594 prop tor  67  60  61 108
 595 prop tor  68  11  12  13
 596 prop tor  68  11  12  79
 597 prop tor  68  59  60  61
 598 prop tor  68  59  60  67
 599 prop tor  69  14  15  16
 600 prop tor  69  14  15  17
 601 prop tor  69  56  57  58
 602 prop tor  69  56  57 106
 603 prop tor  70   1   2   3
 604 prop tor  70   1   2   4
 605 prop tor  70   1   2  73
 606 ben  70   1  71
 607 ben  70   1  72
 608 prop tor  71   1   2   3
 609 prop tor  71   1   2   4
 610 prop tor  71   1   2  73
 611 ben  71   1  72
 612 prop tor  72   1   2   3
 613 prop tor  72   1   2   4
 614 prop tor  72   1   2  73
 615 prop tor  73   2   3  74
 616 prop tor  73   2   3  75
 617 prop tor  73   2   3  76
 618 prop tor  73   2   4   5
 619 prop tor  73   2   4  64
 620 ben  74   3  75
 621 ben  74   3  76
 622 ben  75   3  76
 623 prop tor  77   8   9  10
 624 prop tor  77   8   9  78
 625 prop tor  78   9  10  11
 626 prop tor  78   9  10  67
 627 prop tor  79  12  13  14
 628 prop tor  79  12  13  80
 629 prop tor  80  13  14  15
 630 prop tor  80  13  14  69
 631 prop tor  81  19  20  21
 632 prop tor  81  19  20  82
 633 prop tor  82  20  21  22
 634 prop tor  82  20  21  52
 635 prop tor  83  25  26  27
 636 prop tor  83  25  26  84
 637 prop tor  84  26  27  28
 638 prop tor  84  26  27  85
 639 prop tor  85  27  28  29
 640 prop tor  85  27  28  51
 641 prop tor  86  30  31  32
 642 prop tor  86  30  31  40
 643 prop tor  87  35  36  37
 644 prop tor  87  35  36  48
 645 prop tor  88  38  39  34
 646 prop tor  88  38  39  40
 647 ben  89  41  90
 648 ben  89  41  91
 649 ben  90  41  91
 650 ben  92  42  93
 651 ben  92  42  94
 652 ben  93  42  94
 653 prop tor  95  45  46  47
 654 prop tor  95  45  46  96
 655 prop tor  96  46  47  43
 656 prop tor  96  46  47  48
 657 ben  97  49  98
 658 ben  97  49  99
 659 ben  98  49  99
 660 ben 100  50 101
 661 ben 100  50 102
 662 ben 101  50 102
 663 prop tor 104  52  53  18
 664 prop tor 104  52  53 105
 665 prop tor 106  57  58  59
 666 prop tor 106  57  58 107
 667 prop tor 107  58  59  60
 668 prop tor 107  58  59  68
 669 prop tor 108  61  62  63
 670 prop tor 108  61  62 109
 671 prop tor 109  62  63  64
 672 prop tor 109  62  63  66
 673 lin bend prop tor  20  21  24  23
 674 lin bend prop tor  20  21  24  25
 675 lin bend prop tor  20  21  24  51
 676 lin bend prop tor  22  21  24  23
 677 lin bend prop tor  22  21  24  25
 678 lin bend prop tor  22  21  24  51
 679 lin bend prop tor  52  21  24  23
 680 lin bend prop tor  52  21  24  25
 681 lin bend prop tor  52  21  24  51
 nber bend=             216
 nber lin bend=           1
 nber prop tor=         343
 nber impr tor=           0
 nber tot redund int=         681
 Reading file: 
 ./IDT-A_3_C0S2.log                                                             
                                          
  Entering Gaussian System, Link 0=g16                                          
  
 Gaussian format, type: g94, g98, g03= F F F
  #P Geom=AllCheck Guess=TCheck SCRF=Check GenChk RB3LYP TD(FC,Read)/6-3    
 energy type= TD      
 Original G94 input coords:
  6  3.239211 -1.095419 -0.339210
  6  3.029738  0.058107  0.648352
  6  3.822882 -0.107603  1.949603
  7  3.274170  1.385668  0.013081
  6  4.563724  1.695801 -0.448736
  8  5.481711  0.891012 -0.335793
  6  4.754651  3.016433 -1.065978
  6  6.017667  3.372449 -1.540243
  6  6.231114  4.606583 -2.124691
  6  5.191963  5.553555 -2.267130
  6  5.402742  6.849357 -2.874987
  6  6.671307  7.252354 -3.362439
  6  6.864434  8.483418 -3.938961
  6  5.801515  9.394538 -4.068983
  6  6.062370 10.674041 -4.684559
  8  7.147951 11.054195 -5.096329
  7  4.924236 11.571146 -4.780780
  6  5.129156 12.829404 -5.368877
  6  4.580837 13.995043 -4.777640
  6  4.786066 15.226339 -5.346341
  6  5.540243 15.351679 -6.546583
  6  5.743153 16.596410 -7.127946
  6  5.923834 17.695144 -7.641226
  6  6.129260 18.949224 -8.228777
  6  6.916366 19.073235 -9.397965
  6  7.106473 20.328056 -9.947467
  6  6.521448 21.454951 -9.368740
  6  5.733791 21.364901 -8.202440
  6  5.117996 22.541981 -7.588172
  6  3.973812 22.601858 -6.817768
  6  3.670842 23.911681 -6.387704
  6  4.579154 24.848921 -6.826480
 16  5.836392 24.142915 -7.779916
  6  4.231761 26.177830 -6.364914
  6  4.842738 27.424472 -6.547287
  6  4.249937 28.530899 -5.963503
  6  3.058567 28.393180 -5.205565
  6  2.448831 27.146880 -5.023760
  6  3.042487 26.039031 -5.608012
  6  2.580465 24.575329 -5.560739
  6  1.192111 24.403662 -6.214428
  6  2.562017 24.038382 -4.113284
  6  2.708298 29.721233 -4.742688
 16  1.449211 30.433934 -3.790884
  6  2.174313 32.008816 -3.989801
  6  3.316465 31.972585 -4.745742
  6  3.620305 30.655611 -5.176889
  6  4.709423 29.995185 -6.007176
  6  6.098923 30.167248 -5.356030
  6  4.724670 30.536513 -7.453127
  6  5.555940 20.099339 -7.638694
  6  6.082867 14.177520 -7.139950
  6  5.887148 12.949646 -6.560363
  6  3.588439 11.252965 -4.308136
  8  2.698311 12.075765 -4.461565
  6  3.429005  9.948435 -3.710875
  6  2.157632  9.577341 -3.238839
  6  1.951225  8.349787 -2.659512
  6  3.001591  7.408984 -2.514436
  6  2.791825  6.114913 -1.902905
  6  1.532597  5.707209 -1.407569
  6  1.344517  4.467962 -0.825593
  6  2.403847  3.567134 -0.706295
  6  2.167787  2.258488 -0.081993
  8  1.066642  1.927701  0.340627
  6  3.682326  3.926818 -1.185624
  6  3.890521  5.209851 -1.790635
  6  4.304365  7.758065 -2.990507
  6  4.513745  9.046656 -3.596249
  1  2.911860 -2.030162  0.125670
  1  4.286027 -1.192426 -0.623985
  1  2.639477 -0.942393 -1.240390
  1  1.972338  0.097075  0.901170
  1  4.893950 -0.164380  1.760157
  1  3.503853 -1.026587  2.450290
  1  3.626694  0.727580  2.627254
  1  6.822766  2.655997 -1.437102
  1  7.225885  4.838700 -2.477892
  1  7.515797  6.583404 -3.282506
  1  7.839459  8.778212 -4.305372
  1  4.008173 13.904895 -3.869655
  1  4.386526 16.117345 -4.879478
  1  7.358699 18.191289 -9.841745
  1  7.704861 20.440075-10.843316
  1  6.665452 22.421403 -9.836798
  1  3.368797 21.729581 -6.605666
  1  5.753775 27.515251 -7.129517
  1  1.538072 27.056746 -4.441365
  1  1.191174 24.781016 -7.239033
  1  0.430271 24.946313 -5.648852
  1  0.905342 23.348519 -6.236004
  1  3.538600 24.154348 -3.638825
  1  2.296529 22.977495 -4.100779
  1  1.823481 24.575085 -3.512257
  1  1.703661 32.864385 -3.530273
  1  3.897901 32.856779 -4.971619
  1  6.102774 29.784697 -4.333362
  1  6.379317 31.223743 -5.327834
  1  6.863213 29.632171 -5.926284
  1  3.748119 30.417195 -7.926800
  1  5.467024 30.007708 -8.057228
  1  4.981596 31.599302 -7.460322
  1  4.988053 19.984437 -6.724970
  1  6.642272 14.263515 -8.062507
  1  6.301125 12.063764 -7.012376
  1  1.345513 10.285301 -3.344128
  1  0.958400  8.105879 -2.310439
  1  0.683239  6.371907 -1.477972
  1  0.374150  4.168899 -0.450132
 nber atoms=         109
  Total Energy, E(TD-HF/TD-DFT) =  -3556.10309158                               
  
          32          49 "  -3556.10309158"
After scan for Atom:   Atom  AN      X      Y      Z        X      Y      Z        X      Y      Z   
After scan for Atom:   Atom  AN      X      Y      Z        X      Y      Z        X      Y      Z   
After scan for Atom:   Atom  AN      X      Y      Z        X      Y      Z        X      Y      Z   
After scan for Atom:   Atom  AN      X      Y      Z        X      Y      Z        X      Y      Z   
After scan for Atom:   Atom  AN      X      Y      Z        X      Y      Z        X      Y      Z   
After scan for Atom:   Atom  AN      X      Y      Z        X      Y      Z        X      Y      Z   
After scan for Atom:   Atom  AN      X      Y      Z        X      Y      Z        X      Y      Z   
After scan for Atom:   Atom  AN      X      Y      Z        X      Y      Z        X      Y      Z   
After scan for Atom:   Atom  AN      X      Y      Z        X      Y      Z        X      Y      Z   
After scan for Atom:   Atom  AN      X      Y      Z        X      Y      Z        X      Y      Z   
After scan for Atom:   Atom  AN      X      Y      Z        X      Y      Z        X      Y      Z   
After scan for Atom:   Atom  AN      X      Y      Z        X      Y      Z        X      Y      Z   
After scan for Atom:   Atom  AN      X      Y      Z        X      Y      Z        X      Y      Z   
After scan for Atom:   Atom  AN      X      Y      Z        X      Y      Z        X      Y      Z   
After scan for Atom:   Atom  AN      X      Y      Z        X      Y      Z        X      Y      Z   
After scan for Atom:   Atom  AN      X      Y      Z        X      Y      Z        X      Y      Z   
After scan for Atom:   Atom  AN      X      Y      Z        X      Y      Z        X      Y      Z   
After scan for Atom:   Atom  AN      X      Y      Z        X      Y      Z        X      Y      Z   
After scan for Atom:   Atom  AN      X      Y      Z        X      Y      Z        X      Y      Z   
After scan for Atom:   Atom  AN      X      Y      Z        X      Y      Z        X      Y      Z   
After scan for Atom:   Atom  AN      X      Y      Z        X      Y      Z        X      Y      Z   
After scan for Atom:   Atom  AN      X      Y      Z        X      Y      Z        X      Y      Z   
After scan for Atom:   Atom  AN      X      Y      Z        X      Y      Z        X      Y      Z   
After scan for Atom:   Atom  AN      X      Y      Z        X      Y      Z        X      Y      Z   
After scan for Atom:   Atom  AN      X      Y      Z        X      Y      Z        X      Y      Z   
After scan for Atom:   Atom  AN      X      Y      Z        X      Y      Z        X      Y      Z   
After scan for Atom:   Atom  AN      X      Y      Z        X      Y      Z        X      Y      Z   
After scan for Atom:   Atom  AN      X      Y      Z        X      Y      Z        X      Y      Z   
After scan for Atom:   Atom  AN      X      Y      Z        X      Y      Z        X      Y      Z   
After scan for Atom:   Atom  AN      X      Y      Z        X      Y      Z        X      Y      Z   
After scan for Atom:   Atom  AN      X      Y      Z        X      Y      Z        X      Y      Z   
After scan for Atom:   Atom  AN      X      Y      Z        X      Y      Z        X      Y      Z   
After scan for Atom:   Atom  AN      X      Y      Z        X      Y      Z        X      Y      Z   
After scan for Atom:   Atom  AN      X      Y      Z        X      Y      Z        X      Y      Z   
After scan for Atom:   Atom  AN      X      Y      Z        X      Y      Z        X      Y      Z   
After scan for Atom:   Atom  AN      X      Y      Z        X      Y      Z        X      Y      Z   
After scan for Atom:   Atom  AN      X      Y      Z        X      Y      Z        X      Y      Z   
After scan for Atom:   Atom  AN      X      Y      Z        X      Y      Z        X      Y      Z   
After scan for Atom:   Atom  AN      X      Y      Z        X      Y      Z        X      Y      Z   
After scan for Atom:   Atom  AN      X      Y      Z        X      Y      Z        X      Y      Z   
After scan for Atom:   Atom  AN      X      Y      Z        X      Y      Z        X      Y      Z   
After scan for Atom:   Atom  AN      X      Y      Z        X      Y      Z        X      Y      Z   
After scan for Atom:   Atom  AN      X      Y      Z        X      Y      Z        X      Y      Z   
After scan for Atom:   Atom  AN      X      Y      Z        X      Y      Z        X      Y      Z   
After scan for Atom:   Atom  AN      X      Y      Z        X      Y      Z        X      Y      Z   
After scan for Atom:   Atom  AN      X      Y      Z        X      Y      Z        X      Y      Z   
After scan for Atom:   Atom  AN      X      Y      Z        X      Y      Z        X      Y      Z   
After scan for Atom:   Atom  AN      X      Y      Z        X      Y      Z        X      Y      Z   
After scan for Atom:   Atom  AN      X      Y      Z        X      Y      Z        X      Y      Z   
After scan for Atom:   Atom  AN      X      Y      Z        X      Y      Z        X      Y      Z   
After scan for Atom:   Atom  AN      X      Y      Z        X      Y      Z        X      Y      Z   
After scan for Atom:   Atom  AN      X      Y      Z        X      Y      Z        X      Y      Z   
After scan for Atom:   Atom  AN      X      Y      Z        X      Y      Z        X      Y      Z   
After scan for Atom:   Atom  AN      X      Y      Z        X      Y      Z        X      Y      Z   
After scan for Atom:   Atom  AN      X      Y      Z        X      Y      Z        X      Y      Z   
After scan for Atom:   Atom  AN      X      Y      Z        X      Y      Z        X      Y      Z   
After scan for Atom:   Atom  AN      X      Y      Z        X      Y      Z        X      Y      Z   
After scan for Atom:   Atom  AN      X      Y      Z        X      Y      Z        X      Y      Z   
After scan for Atom:   Atom  AN      X      Y      Z        X      Y      Z        X      Y      Z   
After scan for Atom:   Atom  AN      X      Y      Z        X      Y      Z        X      Y      Z   
After scan for Atom:   Atom  AN      X      Y      Z        X      Y      Z        X      Y      Z   
After scan for Atom:   Atom  AN      X      Y      Z        X      Y      Z        X      Y      Z   
After scan for Atom:   Atom  AN      X      Y      Z        X      Y      Z        X      Y      Z   
After scan for Atom:   Atom  AN      X      Y      Z        X      Y      Z        X      Y      Z   
After scan for Atom:   Atom  AN      X      Y      Z        X      Y      Z        X      Y      Z   
After scan for Atom:   Atom  AN      X      Y      Z        X      Y      Z        X      Y      Z   
After scan for Atom:   Atom  AN      X      Y      Z        X      Y      Z        X      Y      Z   
After scan for Atom:   Atom  AN      X      Y      Z        X      Y      Z        X      Y      Z   
After scan for Atom:   Atom  AN      X      Y      Z        X      Y      Z        X      Y      Z   
After scan for Atom:   Atom  AN      X      Y      Z        X      Y      Z        X      Y      Z   
After scan for Atom:   Atom  AN      X      Y      Z        X      Y      Z        X      Y      Z   
After scan for Atom:   Atom  AN      X      Y      Z        X      Y      Z        X      Y      Z   
After scan for Atom:   Atom  AN      X      Y      Z        X      Y      Z        X      Y      Z   
After scan for Atom:   Atom  AN      X      Y      Z        X      Y      Z        X      Y      Z   
After scan for Atom:   Atom  AN      X      Y      Z        X      Y      Z        X      Y      Z   
After scan for Atom:   Atom  AN      X      Y      Z        X      Y      Z        X      Y      Z   
After scan for Atom:   Atom  AN      X      Y      Z        X      Y      Z        X      Y      Z   
After scan for Atom:   Atom  AN      X      Y      Z        X      Y      Z        X      Y      Z   
After scan for Atom:   Atom  AN      X      Y      Z        X      Y      Z        X      Y      Z   
After scan for Atom:   Atom  AN      X      Y      Z        X      Y      Z        X      Y      Z   
After scan for Atom:   Atom  AN      X      Y      Z        X      Y      Z        X      Y      Z   
After scan for Atom:   Atom  AN      X      Y      Z        X      Y      Z        X      Y      Z   
After scan for Atom:   Atom  AN      X      Y      Z        X      Y      Z        X      Y      Z   
After scan for Atom:   Atom  AN      X      Y      Z        X      Y      Z        X      Y      Z   
After scan for Atom:   Atom  AN      X      Y      Z        X      Y      Z        X      Y      Z   
After scan for Atom:   Atom  AN      X      Y      Z        X      Y      Z        X      Y      Z   
After scan for Atom:   Atom  AN      X      Y      Z        X      Y      Z        X      Y      Z   
After scan for Atom:   Atom  AN      X      Y      Z        X      Y      Z        X      Y      Z   
After scan for Atom:   Atom  AN      X      Y      Z        X      Y      Z        X      Y      Z   
After scan for Atom:   Atom  AN      X      Y      Z        X      Y      Z        X      Y      Z   
After scan for Atom:   Atom  AN      X      Y      Z        X      Y      Z        X      Y      Z   
After scan for Atom:   Atom  AN      X      Y      Z        X      Y      Z        X      Y      Z   
After scan for Atom:   Atom  AN      X      Y      Z        X      Y      Z        X      Y      Z   
After scan for Atom:   Atom  AN      X      Y      Z        X      Y      Z        X      Y      Z   
After scan for Atom:   Atom  AN      X      Y      Z        X      Y      Z        X      Y      Z   
After scan for Atom:   Atom  AN      X      Y      Z        X      Y      Z        X      Y      Z   
After scan for Atom:   Atom  AN      X      Y      Z        X      Y      Z        X      Y      Z   
After scan for Atom:   Atom  AN      X      Y      Z        X      Y      Z        X      Y      Z   
After scan for Atom:   Atom  AN      X      Y      Z        X      Y      Z        X      Y      Z   
After scan for Atom:   Atom  AN      X      Y      Z        X      Y      Z        X      Y      Z   
After scan for Atom:   Atom  AN      X      Y      Z        X      Y      Z        X      Y      Z   
After scan for Atom:   Atom  AN      X      Y      Z        X      Y      Z        X      Y      Z   
After scan for Atom:   Atom  AN      X      Y      Z        X      Y      Z        X      Y      Z   
After scan for Atom:   Atom  AN      X      Y      Z        X      Y      Z        X      Y      Z   
After scan for Atom:   Atom  AN      X      Y      Z        X      Y      Z        X      Y      Z   
After scan for Atom:   Atom  AN      X      Y      Z        X      Y      Z        X      Y      Z   
After scan for Atom:   Atom  AN      X      Y      Z        X      Y      Z        X      Y      Z   
 g94    frequencies=
     0.0    0.0    0.0    0.0    0.0    0.0    4.6    6.5    9.4    9.7
    18.1   23.3   26.0   30.7   45.1   49.5   52.9   55.8   61.4   65.4
    71.2   78.0   89.0   93.7   98.9  102.3  105.4  107.7  118.3  126.2
   136.1  141.7  149.0  157.4  163.8  169.0  174.0  193.7  196.0  205.1
   209.4  212.0  215.2  224.5  234.5  235.3  236.3  248.1  248.5  248.6
   252.2  260.9  262.0  277.7  282.5  288.0  292.4  298.2  303.9  316.9
   317.8  332.9  339.3  343.7  361.3  368.8  378.4  387.2  389.3  397.3
   410.2  412.0  417.5  420.4  427.7  434.4  435.5  442.9  447.4  452.8
   453.7  461.9  464.3  468.7  483.6  495.9  496.9  501.7  502.5  502.8
   504.5  513.6  516.4  533.1  539.8  552.4  568.3  572.2  575.3  576.8
   579.4  591.5  591.9  597.5  622.7  623.6  625.8  632.1  637.5  657.2
   659.2  660.8  666.8  667.5  684.6  690.6  692.9  708.0  713.4  719.6
   724.1  729.6  731.6  741.5  742.3  746.9  747.8  756.5  761.4  768.8
   785.4  785.7  801.3  803.7  807.3  808.7  809.5  815.5  817.2  820.4
   825.7  831.7  832.3  837.2  838.8  846.4  857.5  860.4  862.7  886.6
   893.0  893.3  900.4  904.1  904.4  913.7  929.4  936.1  943.4  949.0
   949.3  955.6  971.0  972.1  974.1  976.6  978.1  983.1  984.2  985.6
   986.9  987.4 1002.7 1005.4 1005.9 1015.0 1030.3 1031.0 1031.3 1034.2
  1068.2 1077.4 1078.6 1093.6 1105.0 1108.9 1116.2 1144.4 1145.9 1153.8
  1155.3 1155.6 1156.4 1157.3 1159.5 1163.9 1168.7 1174.5 1188.4 1197.4
  1199.7 1203.6 1211.8 1218.5 1226.7 1236.0 1236.4 1242.4 1244.3 1246.4
  1253.2 1261.3 1267.9 1277.9 1284.1 1289.6 1298.5 1305.3 1316.7 1320.0
  1328.5 1344.0 1352.4 1356.0 1359.2 1360.2 1363.2 1370.5 1376.2 1384.3
  1392.0 1394.1 1394.6 1397.6 1398.6 1399.4 1409.9 1411.1 1422.6 1424.7
  1427.4 1431.8 1437.6 1449.8 1461.6 1464.6 1469.5 1470.8 1477.6 1483.4
  1484.0 1484.5 1484.7 1489.5 1489.6 1489.7 1495.8 1500.5 1504.2 1505.4
  1506.8 1506.9 1507.3 1508.6 1511.2 1523.7 1528.6 1534.9 1541.0 1556.2
  1558.6 1574.5 1580.5 1585.7 1591.8 1594.3 1605.0 1613.6 1618.7 1630.2
  1638.9 1652.9 1681.8 1701.3 1717.3 1743.1 2227.0 3025.3 3026.1 3028.7
  3029.4 3030.2 3033.4 3085.9 3087.9 3089.1 3089.2 3093.2 3094.4 3105.2
  3105.8 3106.9 3107.6 3108.8 3131.5 3141.2 3165.3 3168.2 3182.6 3191.2
  3191.4 3195.5 3195.9 3197.7 3197.9 3201.5 3201.7 3202.3 3206.3 3207.3
  3207.5 3210.8 3221.5 3221.7 3243.8 3259.9 3260.3
 g94    symmetries=
                                                 A      A      A      A
       A      A      A      A      A      A      A      A      A      A
       A      A      A      A      A      A      A      A      A      A
       A      A      A      A      A      A      A      A      A      A
       A      A      A      A      A      A      A      A      A      A
       A      A      A      A      A      A      A      A      A      A
       A      A      A      A      A      A      A      A      A      A
       A      A      A      A      A      A      A      A      A      A
       A      A      A      A      A      A      A      A      A      A
       A      A      A      A      A      A      A      A      A      A
       A      A      A      A      A      A      A      A      A      A
       A      A      A      A      A      A      A      A      A      A
       A      A      A      A      A      A      A      A      A      A
       A      A      A      A      A      A      A      A      A      A
       A      A      A      A      A      A      A      A      A      A
       A      A      A      A      A      A      A      A      A      A
       A      A      A      A      A      A      A      A      A      A
       A      A      A      A      A      A      A      A      A      A
       A      A      A      A      A      A      A      A      A      A
       A      A      A      A      A      A      A      A      A      A
       A      A      A      A      A      A      A      A      A      A
       A      A      A      A      A      A      A      A      A      A
       A      A      A      A      A      A      A      A      A      A
       A      A      A      A      A      A      A      A      A      A
       A      A      A      A      A      A      A      A      A      A
       A      A      A      A      A      A      A      A      A      A
       A      A      A      A      A      A      A      A      A      A
       A      A      A      A      A      A      A      A      A      A
       A      A      A      A      A      A      A      A      A      A
       A      A      A      A      A      A      A      A      A      A
       A      A      A      A      A      A      A      A      A      A
       A      A      A      A      A      A      A      A      A      A
       A      A      A      A      A      A      A
 atomic masses:
 12.0000 12.0000 12.0000 14.0031 12.0000 15.9949 12.0000 12.0000 12.0000 12.0000
 12.0000 12.0000 12.0000 12.0000 12.0000 15.9949 14.0031 12.0000 12.0000 12.0000
 12.0000 12.0000 12.0000 12.0000 12.0000 12.0000 12.0000 12.0000 12.0000 12.0000
 12.0000 12.0000 31.9721 12.0000 12.0000 12.0000 12.0000 12.0000 12.0000 12.0000
 12.0000 12.0000 12.0000 31.9721 12.0000 12.0000 12.0000 12.0000 12.0000 12.0000
 12.0000 12.0000 12.0000 12.0000 15.9949 12.0000 12.0000 12.0000 12.0000 12.0000
 12.0000 12.0000 12.0000 12.0000 15.9949 12.0000 12.0000 12.0000 12.0000  1.0078
  1.0078  1.0078  1.0078  1.0078  1.0078  1.0078  1.0078  1.0078  1.0078  1.0078
  1.0078  1.0078  1.0078  1.0078  1.0078  1.0078  1.0078  1.0078  1.0078  1.0078
  1.0078  1.0078  1.0078  1.0078  1.0078  1.0078  1.0078  1.0078  1.0078  1.0078
  1.0078  1.0078  1.0078  1.0078  1.0078  1.0078  1.0078  1.0078  1.0078
 looking for force constants in 
 ./IDT-A_3_C0S2.fchk                                                            
  
 file doesnt exist
 NO FORCES: 
 ./IDT-A_3_C0S2.log                                                             
                                          
 g94-fc frequencies=

 at 99999: n3=           0
 symm operator            1 :  F  nop=           0
 symm operator            2 :  F  nop=           0
 symm operator            3 :  F  nop=           0
 symm operator            4 :  F  nop=           0
 symm operator            5 :  F  nop=           0
 symm operator            6 :  F  nop=           0
 symm operator            7 :  F  nop=           0
 The point group of the molecule is  C1
 Symmetry rotation matrix:
   1.00000   0.00000   0.00000
   0.00000   1.00000   0.00000
   0.00000   0.00000   1.00000

 highest evec of mol 2

 Enter nber and list of atoms to keep of mol #2
 keep list:         109           1           2           3           4
           5           6           7           8           9          10
          11          12          13          14          15          16
          17          18          19          20          21          22
          23          24          25          26          27          28
          29          30          31          32          33          34
          35          36          37          38          39          40
          41          42          43          44          45          46
          47          48          49          50          51          52
          53          54          55          56          57          58
          59          60          61          62          63          64
          65          66          67          68          69          70
          71          72          73          74          75          76
          77          78          79          80          81          82
          83          84          85          86          87          88
          89          90          91          92          93          94
          95          96          97          98          99         100
         101         102         103         104         105         106
         107         108         109
 reordering atoms
           1   16.9088419342328     
           2   15.9710206136424     
           3   16.3877401680334     
           4   14.5446628595234     
           5   14.1494045716144     
           6   14.9602074604248     
           7   12.7334010036852     
           8   12.2907260458022     
           9   10.9659529564371     
          10   10.0100135257502     
          11   8.62018513684877     
          12   8.12885369733258     
          13   6.80865410689647     
          14   5.89031713531884     
          15   4.51493311356206     
          16   4.06091975000866     
          17   3.61699851082426     
          18   2.26785868912367     
          19   1.24078785737420     
          20 -7.811553493730825E-002
          21 -0.436365214303562     
          22  -1.77092055654035     
          23  -2.94896491389400     
          24  -4.29390096430112     
          25  -4.64478862844892     
          26  -5.98299594346710     
          27  -6.97449931015028     
          28  -6.65748078596142     
          29  -7.69122521650248     
          30  -7.59851096859148     
          31  -8.79866164738523     
          32  -9.80417139668138     
          33  -9.29913815129593     
          34  -11.0168481917975     
          35  -12.2754249745935     
          36  -13.2458619894008     
          37  -12.9617856233240     
          38  -11.7036561028859     
          39  -10.7319166710551     
          40  -9.28700358467727     
          41  -9.24579382973023     
          42  -8.47714669754313     
          43  -14.1733647443899     
          44  -14.6852818574172     
          45  -16.2690542857369     
          46  -16.3821255168423     
          47  -15.1751745827424     
          48  -14.6906417664546     
          49  -14.7327382144921     
          50  -15.5044987446026     
          51  -5.30595951071166     
          52  0.598647256332309     
          53   1.91631987911101     
          54   4.02229466559180     
          55   3.18588953365928     
          56   5.41857904476899     
          57   5.87560897143539     
          58   7.19292303155268     
          59   8.14332241594617     
          60   9.53217174136543     
          61   10.0296567823902     
          62   11.3589456373545     
          63   12.2650928949212     
          64   13.6707498779301     
          65   14.0784833276663     
          66   11.8178209153716     
          67   10.4410730690192     
          68   7.70707207333221     
          69   6.32472996589499     
          70   17.9166783998250     
          71   16.9476385386313     
          72   16.5827484490638     
          73   15.9828923499079     
          74   16.4057277943092     
          75   17.3871254437699     
          76   15.7014448796347     
          77   13.0130466732652     
          78   10.6686284900527     
          79   8.80002627496855     
          80   6.44729071285143     
          81   1.50722397310555     
          82 -0.860291144500805     
          83  -3.86700476975633     
          84  -6.26851971754129     
          85  -8.01394831495421     
          86  -6.70124462147665     
          87  -12.4789201932214     
          88  -11.5007612780758     
          89  -9.81637643113940     
          90  -9.66682397045047     
          91  -8.21511388693033     
          92  -8.49857362451474     
          93  -7.43417601685543     
          94  -8.88541908216923     
          95  -17.0178729265312     
          96  -17.2937607951587     
          97  -14.1574398805742     
          98  -15.7634447450182     
          99  -14.3200525462020     
         100  -15.4796308299586     
         101  -15.1045754311096     
         102  -16.5482905032831     
         103  -5.01412765748983     
         104  0.333439533868935     
         105   2.69636860481366     
         106   5.16119976196194     
         107   7.50100146421669     
         108   9.36452189820010     
         109   11.7262639877179     
           1           1
           2           2
           3           3
           4           4
           5           5
           6           6
           7           7
           8           8
           9           9
          10          10
          11          11
          12          12
          13          13
          14          14
          15          15
          16          16
          17          17
          18          18
          19          19
          20          20
          21          21
          22          22
          23          23
          24          24
          25          25
          26          26
          27          27
          28          28
          29          29
          30          30
          31          31
          32          32
          33          33
          34          34
          35          35
          36          36
          37          37
          38          38
          39          39
          40          40
          41          41
          42          42
          43          43
          44          44
          45          45
          46          46
          47          47
          48          48
          49          49
          50          50
          51          51
          52          52
          53          53
          54          54
          55          55
          56          56
          57          57
          58          58
          59          59
          60          60
          61          61
          62          62
          63          63
          64          64
          65          65
          66          66
          67          67
          68          68
          69          69
          70          70
          71          71
          72          72
          73          73
          74          74
          75          75
          76          76
          77          77
          78          78
          79          79
          80          80
          81          81
          82          82
          83          83
          84          84
          85          85
          86          86
          87          87
          88          88
          89          89
          90          90
          91          91
          92          92
          93          93
          94          94
          95          95
          96          96
          97          97
          98          98
          99          99
         100         100
         101         101
         102         102
         103         103
         104         104
         105         105
         106         106
         107         107
         108         108
         109         109
 initial cartes coords mol 1
   6  -1.39563   2.85233  16.39072
   6  -0.05260   2.23648  15.98109
   6   0.40687   1.11389  16.91889
   7  -0.04801   1.80779  14.55486
   6  -0.91783   0.78159  14.14603
   8  -1.67267   0.24449  14.95279
   6  -0.87513   0.39589  12.73263
   6  -1.71924  -0.61875  12.27340
   6  -1.70429  -1.00628  10.94859
   6  -0.84309  -0.40123  10.00394
   6  -0.81788  -0.79860   8.61261
   6  -1.65532  -1.82100   8.10504
   6  -1.62293  -2.19302   6.77966
   6  -0.75308  -1.56728   5.87676
   6  -0.74991  -1.99795   4.48673
   8  -1.46342  -2.88527   4.03653
   7   0.15582  -1.31241   3.62260
   6   0.18433  -1.70905   2.24646
   6  -0.04429  -0.76960   1.23982
   6  -0.01162  -1.14930  -0.09315
   6   0.24509  -2.48400  -0.44732
   6   0.27810  -2.87483  -1.81594
   6   0.30671  -3.20439  -2.98023
   6   0.33898  -3.58390  -4.34828
   6   0.55226  -4.92404  -4.72937
   6   0.59169  -5.28656  -6.07112
   6   0.42152  -4.33294  -7.06562
   6   0.20324  -2.98852  -6.71411
   6   0.00962  -1.96420  -7.73261
   6  -0.64222  -0.73558  -7.59815
   6  -0.63998   0.00401  -8.77773
   6   0.01274  -0.64541  -9.83480
  16   0.64522  -2.18691  -9.36266
   6  -0.01004   0.14176 -11.01069
   6   0.51542  -0.09052 -12.30240
   6   0.33231   0.88015 -13.25381
   6  -0.37439   2.08885 -12.93216
   6  -0.89998   2.32195 -11.64431
   6  -0.71684   1.35203 -10.69012
   6  -1.17800   1.34917  -9.22802
   6  -2.71830   1.40486  -9.12083
   6  -0.53734   2.50668  -8.43005
   6  -0.39400   2.88031 -14.11567
  16  -1.01796   4.42839 -14.58622
   6  -0.38920   4.19105 -16.18822
   6   0.26384   2.98905 -16.35152
   6   0.26130   2.23666 -15.16261
   6   0.79430   0.88780 -14.71621
   6   2.33443   0.82676 -14.82152
   6   0.15151  -0.26616 -15.51738
   6   0.16550  -2.62865  -5.35894
   6   0.46983  -3.42432   0.57138
   6   0.44217  -3.03709   1.90257
   6   1.03424  -0.26192   4.02366
   8   1.76813   0.26489   3.19668
   6   0.98636   0.10577   5.43071
   6   1.83158   1.12185   5.89626
   6   1.81617   1.50545   7.21853
   6   0.95196   0.89723   8.16075
   6   0.92651   1.29434   9.55182
   6   1.76138   2.31520  10.06321
   6   1.72808   2.68578  11.39229
   6   0.85901   2.05870  12.28980
   6   0.85084   2.47813  13.69286
   8   1.58185   3.36716  14.11900
   6   0.00435   1.03252  11.82945
   6   0.02948   0.63848  10.44979
   6   0.07923  -0.14321   7.71219
   6   0.10443  -0.53780   6.33027
   1  -1.30635   3.27814  17.39493
   1  -2.19054   2.10771  16.39256
   1  -1.66955   3.66063  15.70731
   1   0.69895   3.02289  16.00452
   1  -0.31243   0.29634  16.94306
   1   0.52327   1.51376  17.93096
   1   1.37663   0.72257  16.59982
   1  -2.38347  -1.09039  12.98658
   1  -2.37448  -1.79555  10.63811
   1  -2.34199  -2.33086   8.76572
   1  -2.26800  -2.97774   6.40493
   1  -0.23073   0.26039   1.50794
   1  -0.18528  -0.41442  -0.86997
   1   0.68660  -5.67177  -3.95816
   1   0.75019  -6.32346  -6.34165
   1   0.42758  -4.63398  -8.10650
   1  -1.11306  -0.43417  -6.67379
   1   1.04562  -1.00998 -12.52181
   1  -1.42985   3.24151 -11.42479
   1  -3.18668   0.59347  -9.68136
   1  -3.09393   2.35407  -9.50948
   1  -3.02834   1.32492  -8.07671
   1   0.55203   2.48215  -8.49654
   1  -0.81861   2.44171  -7.37683
   1  -0.88421   3.47028  -8.80988
   1  -0.54005   4.96396 -16.92677
   1   0.71245   2.68932 -17.28829
   1   2.80414   1.63424 -14.25659
   1   2.64614   0.91115 -15.86509
   1   2.70783  -0.12515 -14.43697
   1  -0.93778  -0.23918 -15.44948
   1   0.49642  -1.23242 -15.14209
   1   0.43179  -0.19743 -16.57098
   1   0.03031  -1.59461  -5.07059
   1   0.66763  -4.45711   0.31139
   1   0.60571  -3.76552   2.68373
   1   2.49709   1.59595   5.18591
   1   2.48616   2.29272   7.53365
   1   2.44957   2.82759   9.40571
   1   2.37297   3.46904  11.77014
 initial cartes coords mol 2
   6  -0.26108  -1.20529  16.90884
   6   0.36948  -2.24099  15.97102
   6   1.78639  -2.65148  16.38774
   7   0.31275  -1.80738  14.54466
   6   1.02237  -0.66169  14.14940
   8   1.68143  -0.02030  14.96021
   6   0.93623  -0.27565  12.73340
   6   1.62376   0.85493  12.29073
   6   1.56463   1.24442  10.96595
   6   0.81377   0.52382  10.01001
   6   0.74542   0.91971   8.62019
   6   1.43463   2.05674   8.12885
   6   1.36497   2.42744   6.80865
   6   0.59968   1.68729   5.89032
   6   0.56185   2.12432   4.51493
   8   1.15967   3.08818   4.06092
   7  -0.23987   1.31168   3.61700
   6  -0.30466   1.69468   2.26786
   6  -0.18367   0.72545   1.24079
   6  -0.23915   1.09834  -0.07812
   6  -0.43355   2.46176  -0.43637
   6  -0.49724   2.84047  -1.77092
   6  -0.55235   3.17587  -2.94896
   6  -0.61695   3.55941  -4.29390
   6  -0.76668   4.92190  -4.64479
   6  -0.81806   5.26720  -5.98300
   6  -0.73773   4.28866  -6.97450
   6  -0.58590   2.92293  -6.65748
   6  -0.49921   1.89050  -7.69123
   6  -0.85220   0.55894  -7.59851
   6  -0.63269  -0.15087  -8.79866
   6  -0.11378   0.63376  -9.80417
  16   0.12244   2.27000  -9.29914
   6   0.09521  -0.13139 -11.01685
   6   0.59662   0.22251 -12.27542
   6   0.67175  -0.76187 -13.24586
   6   0.24979  -2.08628 -12.96179
   6  -0.25100  -2.43899 -11.70366
   6  -0.32597  -1.45349 -10.73192
   6  -0.83090  -1.57757  -9.28700
   6  -2.31912  -1.98724  -9.24579
   6   0.02321  -2.57677  -8.47715
   6   0.45737  -2.85417 -14.17336
  16   0.21957  -4.49141 -14.68528
   6   0.83825  -4.09837 -16.26905
   6   1.20213  -2.78228 -16.38213
   6   0.98165  -2.07004 -15.17517
   6   1.17718  -0.64221 -14.69064
   6   2.66466  -0.22997 -14.73274
   6   0.32220   0.35312 -15.50450
   6  -0.51748   2.57681  -5.30596
   6  -0.56130   3.43006   0.59865
   6  -0.49119   3.05493   1.91632
   6  -0.97826   0.12868   4.02229
   8  -1.64028  -0.46716   3.18589
   6  -0.87932  -0.22422   5.41858
   6  -1.57652  -1.35646   5.87561
   6  -1.51457  -1.73850   7.19292
   6  -0.75278  -1.01335   8.14332
   6  -0.68106  -1.41153   9.53217
   6  -1.35877  -2.54751  10.02966
   6  -1.28284  -2.91769  11.35895
   6  -0.52586  -2.17352  12.26509
   6  -0.46750  -2.59632  13.67075
   8  -1.06364  -3.58573  14.07848
   6   0.17049  -1.02955  11.81782
   6   0.10039  -0.63558  10.44107
   6  -0.03744   0.14583   7.70707
   6  -0.10640   0.54029   6.32473
   1  -0.32637  -1.62603  17.91668
   1   0.32840  -0.29023  16.94764
   1  -1.27532  -0.95995  16.58275
   1  -0.25612  -3.13095  15.98289
   1   2.46098  -1.79655  16.40573
   1   1.75256  -3.09542  17.38713
   1   2.18529  -3.40322  15.70144
   1   2.20305   1.41600  13.01305
   1   2.11310   2.12702  10.66863
   1   2.03460   2.65391   8.80003
   1   1.89812   3.29750   6.44729
   1  -0.03760  -0.30808   1.50722
   1  -0.12228   0.35940  -0.86029
   1  -0.83529   5.67075  -3.86700
   1  -0.93414   6.30554  -6.26852
   1  -0.80814   4.58603  -8.01395
   1  -1.28168   0.13190  -6.70124
   1   0.91571   1.23937 -12.47892
   1  -0.56969  -3.45588 -11.50076
   1  -2.93458  -1.28877  -9.81638
   1  -2.45535  -2.98670  -9.66682
   1  -2.68437  -2.00513  -8.21511
   1   1.07890  -2.29869  -8.49857
   1  -0.30473  -2.60487  -7.43418
   1  -0.07333  -3.58608  -8.88542
   1   0.89239  -4.87362 -17.01787
   1   1.60651  -2.36241 -17.29376
   1   3.28039  -0.92431 -14.15744
   1   3.02958  -0.22136 -15.76344
   1   2.80068   0.77344 -14.32005
   1  -0.73340   0.07498 -15.47963
   1   0.42063   1.36606 -15.10458
   1   0.64739   0.37138 -16.54829
   1  -0.36729   1.54586  -5.01413
   1  -0.72730   4.46619   0.33344
   1  -0.58694   3.79170   2.69637
   1  -2.16357  -1.91933   5.16120
   1  -2.06576  -2.61504   7.50100
   1  -1.95677  -3.15429   9.36452
   1  -1.80718  -3.79071  11.72626
 loop 1 0
 mod cartes coords mol 2
   6  -0.26108  -1.20529  16.90884
   6   0.36948  -2.24099  15.97102
   6   1.78639  -2.65148  16.38774
   7   0.31275  -1.80738  14.54466
   6   1.02237  -0.66169  14.14940
   8   1.68143  -0.02030  14.96021
   6   0.93623  -0.27565  12.73340
   6   1.62376   0.85493  12.29073
   6   1.56463   1.24442  10.96595
   6   0.81377   0.52382  10.01001
   6   0.74542   0.91971   8.62019
   6   1.43463   2.05674   8.12885
   6   1.36497   2.42744   6.80865
   6   0.59968   1.68729   5.89032
   6   0.56185   2.12432   4.51493
   8   1.15967   3.08818   4.06092
   7  -0.23987   1.31168   3.61700
   6  -0.30466   1.69468   2.26786
   6  -0.18367   0.72545   1.24079
   6  -0.23915   1.09834  -0.07812
   6  -0.43355   2.46176  -0.43637
   6  -0.49724   2.84047  -1.77092
   6  -0.55235   3.17587  -2.94896
   6  -0.61695   3.55941  -4.29390
   6  -0.76668   4.92190  -4.64479
[...]
  8.133174864794760E-005  1.917206249841027E-008
  8.203324818223852E-005  1.917206249841027E-008
  8.267905234107768E-005  1.917206249841027E-008
  8.626919016654982E-005  1.917206249841027E-008
  8.766073655401415E-005  1.917206249841027E-008
  8.865403733633379E-005  1.917206249841027E-008
  9.092103928088426E-005  1.917206249841027E-008
  9.312919771327683E-005  1.917206249841027E-008
  9.481552392794586E-005  1.917206249841027E-008
  9.573200499695214E-005  1.917206249841027E-008
  9.808317729412586E-005  1.917206249841027E-008
  1.077806819736263E-004  1.917206249841027E-008
  1.105890863056662E-004  1.917206249841027E-008
  1.130547039460646E-004  1.917206249841027E-008
  1.156777587310728E-004  1.917206249841027E-008
  1.184254210804777E-004  1.917206249841027E-008
  1.207874620338483E-004  1.917206249841027E-008
  1.217732913168920E-004  1.917206249841027E-008
  1.224670851637307E-004  1.917206249841027E-008
  1.248361297592743E-004  1.917206249841027E-008
  1.319694722551836E-004  1.917206249841027E-008
  1.343101263906103E-004  1.917206249841027E-008
  1.356013410082988E-004  1.917206249841027E-008
  1.364496644444818E-004  1.917206249841027E-008
  1.372448164204534E-004  1.917206249841027E-008
  1.406419860677183E-004  1.917206249841027E-008
  1.438922379753225E-004  1.917206249841027E-008
  1.476660243121562E-004  1.917206249841027E-008
  1.487230879914430E-004  1.917206249841027E-008
  1.542887681379150E-004  1.917206249841027E-008
  1.589987560627604E-004  1.917206249841027E-008
  1.609764016842812E-004  1.917206249841027E-008
  1.615026847065180E-004  1.917206249841027E-008
  1.689705447517793E-004  1.917206249841027E-008
  1.782823364309839E-004  1.917206249841027E-008
  1.785904956221751E-004  1.917206249841027E-008
  1.818653663245744E-004  1.917206249841027E-008
  1.818859455818681E-004  1.917206249841027E-008
  1.894728472817902E-004  1.917206249841027E-008
  2.020059185693166E-004  1.917206249841027E-008
  2.056376033104040E-004  1.917206249841027E-008
  2.220137858158283E-004  1.917206249841027E-008
  2.242773432091199E-004  1.917206249841027E-008
  2.276651900460573E-004  1.917206249841027E-008
  2.312617802439827E-004  1.917206249841027E-008
  2.383485129674692E-004  1.917206249841027E-008
  2.507807329870419E-004  1.917206249841027E-008
  2.658730045052428E-004  1.917206249841027E-008
  2.676927896248545E-004  1.917206249841027E-008
  2.745663587711143E-004  1.917206249841027E-008
  2.844955081775158E-004  1.917206249841027E-008
  2.865798511772992E-004  1.917206249841027E-008
  2.890355725121067E-004  1.917206249841027E-008
  2.924191714857339E-004  1.917206249841027E-008
  2.999015192760563E-004  1.917206249841027E-008
  3.036027604429049E-004  1.917206249841027E-008
  3.115095620964463E-004  1.917206249841027E-008
  3.218515261682299E-004  1.917206249841027E-008
  3.336171178646561E-004  1.917206249841027E-008
  3.426153092504664E-004  1.917206249841027E-008
  3.586741980766530E-004  1.917206249841027E-008
  3.638282849099856E-004  1.917206249841027E-008
  3.775516093734434E-004  1.917206249841027E-008
  3.776300831028599E-004  1.917206249841027E-008
  3.830942013934460E-004  1.917206249841027E-008
  3.848665185846449E-004  1.917206249841027E-008
  3.868632322447362E-004  1.917206249841027E-008
  3.901478661529507E-004  1.917206249841027E-008
  3.928531597805191E-004  1.917206249841027E-008
  3.972249380592763E-004  1.917206249841027E-008
  4.111557769707345E-004  1.917206249841027E-008
  4.200118153484918E-004  1.917206249841027E-008
  4.214968992663124E-004  1.917206249841027E-008
  4.232699935871731E-004  1.917206249841027E-008
  4.265976624018829E-004  1.917206249841027E-008
  4.304066361735508E-004  1.917206249841027E-008
  4.316225664139037E-004  1.917206249841027E-008
  4.359034219669832E-004  1.917206249841027E-008
  4.406628708555872E-004  1.917206249841027E-008
  4.424910510826339E-004  1.917206249841027E-008
  4.458219860330005E-004  1.917206249841027E-008
  4.592776817184116E-004  1.917206249841027E-008
  4.612344078533174E-004  1.917206249841027E-008
  4.632981236563662E-004  1.917206249841027E-008
  4.671355984264698E-004  1.917206249841027E-008
  4.688473693389687E-004  1.917206249841027E-008
  4.824145174240590E-004  1.917206249841027E-008
  4.942414485990346E-004  1.917206249841027E-008
  5.066878021667685E-004  1.917206249841027E-008
  5.106470381605762E-004  1.917206249841027E-008
  5.229316653591904E-004  1.917206249841027E-008
  5.333642975273014E-004  1.917206249841027E-008
  5.345886283889920E-004  1.917206249841027E-008
  5.348719313101624E-004  1.917206249841027E-008
  5.349183510500580E-004  1.917206249841027E-008
  5.373078572502843E-004  1.917206249841027E-008
  5.418846712856022E-004  1.917206249841027E-008
  5.484426768019496E-004  1.917206249841027E-008
  5.536099263039303E-004  1.917206249841027E-008
  5.558274273213365E-004  1.917206249841027E-008
  5.559254530721374E-004  1.917206249841027E-008
  5.561811920182204E-004  1.917206249841027E-008
  5.562172085636060E-004  1.917206249841027E-008
  5.562266341387739E-004  1.917206249841027E-008
  5.562342702910299E-004  1.917206249841027E-008
  5.701632117526868E-004  1.917206249841027E-008
  5.783938031035166E-004  1.917206249841027E-008
  5.784266425046580E-004  1.917206249841027E-008
  5.879748747650195E-004  1.917206249841027E-008
  5.939086582058232E-004  1.917206249841027E-008
  5.944803877229482E-004  1.917206249841027E-008
  5.962715673570517E-004  1.917206249841027E-008
  5.970389186773234E-004  1.917206249841027E-008
  5.985359831974166E-004  1.917206249841027E-008
  5.989210687668624E-004  1.917206249841027E-008
  5.992457386976500E-004  1.917206249841027E-008
  5.995877904214362E-004  1.917206249841027E-008
  5.998544112494383E-004  1.917206249841027E-008
  6.000258788092835E-004  1.917206249841027E-008
  6.006830917536320E-004  1.917206249841027E-008
  6.022151450836744E-004  1.917206249841027E-008
  6.091870446335752E-004  1.917206249841027E-008
  6.170360278459903E-004  1.917206249841027E-008
  6.206732511489752E-004  1.917206249841027E-008
  6.214618566655440E-004  1.917206249841027E-008
  6.254371360578381E-004  1.917206249841027E-008
  6.298056266081668E-004  1.917206249841027E-008
  6.343903726173140E-004  1.917206249841027E-008
  6.363161767696968E-004  1.917206249841027E-008
  6.373245024394756E-004  1.917206249841027E-008
  6.414175052692627E-004  1.917206249841027E-008
  6.448853670000899E-004  1.917206249841027E-008
  6.457148510366626E-004  1.917206249841027E-008
  6.474775547233657E-004  1.917206249841027E-008
  6.488489623785581E-004  1.917206249841027E-008
  6.517555783027660E-004  1.917206249841027E-008
  6.695031202572237E-004  1.917206249841027E-008
  6.757432216036431E-004  1.917206249841027E-008
  6.761848837909897E-004  1.917206249841027E-008
  6.927730757336359E-004  1.917206249841027E-008
  6.969011760053899E-004  1.917206249841027E-008
  6.978801761809777E-004  1.917206249841027E-008
  7.669879645627956E-004  1.917206249841027E-008
  7.933900613602814E-004  1.917206249841027E-008
  8.154860951191926E-004  1.917206249841027E-008
  8.481648925181000E-004  1.917206249841027E-008
  8.857284767800956E-004  1.917206249841027E-008
  9.522433837718235E-004  1.917206249841027E-008
  9.863288752156993E-004  1.917206249841027E-008
  9.908911493903649E-004  1.917206249841027E-008
  9.946131887117640E-004  1.917206249841027E-008
  1.063270181296443E-003  1.917206249841027E-008
  1.078572329326137E-003  1.917206249841027E-008
  1.079659260414218E-003  1.917206249841027E-008
  1.089994537280321E-003  1.917206249841027E-008
  1.093500326355772E-003  1.917206249841027E-008
  1.094451885052699E-003  1.917206249841027E-008
  1.095101827277443E-003  1.917206249841027E-008
  1.095657411847225E-003  1.917206249841027E-008
  1.099254931320750E-003  1.917206249841027E-008
  1.106849103348163E-003  1.917206249841027E-008
  1.111741256004995E-003  1.917206249841027E-008
  1.127354239867893E-003  1.917206249841027E-008
  1.133440798710607E-003  1.917206249841027E-008
  1.134362032065798E-003  1.917206249841027E-008
  1.134862411639531E-003  1.917206249841027E-008
  1.142296004059708E-003  1.917206249841027E-008
  1.146418846843949E-003  1.917206249841027E-008
  1.147625540908776E-003  1.917206249841027E-008
  1.162429036672254E-003  1.917206249841027E-008
  1.164359269903429E-003  1.917206249841027E-008
  1.164866053638087E-003  1.917206249841027E-008
  1.165993427456010E-003  1.917206249841027E-008
  1.166505173187375E-003  1.917206249841027E-008
  1.168326457346851E-003  1.917206249841027E-008
  1.168868727480612E-003  1.917206249841027E-008
  1.171340492891066E-003  1.917206249841027E-008
  1.173696153810521E-003  1.917206249841027E-008
  1.180116881071943E-003  1.917206249841027E-008
  1.180419348816835E-003  1.917206249841027E-008
  1.180508872272765E-003  1.917206249841027E-008
  1.180783603729063E-003  1.917206249841027E-008
  1.181423274645286E-003  1.917206249841027E-008
  1.185738871994396E-003  1.917206249841027E-008
  1.212768336821996E-003  1.917206249841027E-008
  1.260949011239167E-003  1.917206249841027E-008
  1.291865944197024E-003  1.917206249841027E-008
  1.354495895405916E-003  1.917206249841027E-008
  1.494767375158319E-003  1.917206249841027E-008
  1.516159642722683E-003  1.917206249841027E-008
  1.548824195491321E-003  1.917206249841027E-008
  1.585110051463570E-003  1.917206249841027E-008
  1.610129471773176E-003  1.917206249841027E-008
  1.669779795736743E-003  1.917206249841027E-008
  1.670297857553812E-003  1.917206249841027E-008
  1.680816709585361E-003  1.917206249841027E-008
  1.720803318142774E-003  1.917206249841027E-008
  1.723794371213773E-003  1.917206249841027E-008
  1.786989626854005E-003  1.917206249841027E-008
  1.908638096108395E-003  1.917206249841027E-008
  1.915770875658370E-003  1.917206249841027E-008
  2.034869895200785E-003  1.917206249841027E-008
  2.061369710156971E-003  1.917206249841027E-008
  2.161520804355642E-003  1.917206249841027E-008
  2.277190644946894E-003  1.917206249841027E-008
  2.338162022318634E-003  1.917206249841027E-008
  2.340726638427448E-003  1.917206249841027E-008
  2.348515974746179E-003  1.917206249841027E-008
  2.401849173339770E-003  1.917206249841027E-008
  2.521313263372759E-003  1.917206249841027E-008
  2.534533479460485E-003  1.917206249841027E-008
  2.562638097022261E-003  1.917206249841027E-008
  2.780145305769870E-003  1.917206249841027E-008
  2.924947159242279E-003  1.917206249841027E-008
  3.022044757727208E-003  1.917206249841027E-008
  3.026409525137674E-003  1.917206249841027E-008
  3.028741872898594E-003  1.917206249841027E-008
  3.032108413802071E-003  1.917206249841027E-008
  3.034666851342358E-003  1.917206249841027E-008
  3.042573871227516E-003  1.917206249841027E-008
  3.046954679530292E-003  1.917206249841027E-008
  3.047323330322854E-003  1.917206249841027E-008
  3.055253570626561E-003  1.917206249841027E-008
  3.083085020624956E-003  1.917206249841027E-008
  3.091336926533478E-003  1.917206249841027E-008
  3.093358752908138E-003  1.917206249841027E-008
  3.093858975173019E-003  1.917206249841027E-008
  3.124325132174317E-003  1.917206249841027E-008
  3.413413372176968E-003  1.917206249841027E-008
  3.419987625828708E-003  1.917206249841027E-008
  3.663587199823886E-003  1.917206249841027E-008
  3.665639508456382E-003  1.917206249841027E-008
  3.665789356527352E-003  1.917206249841027E-008
  3.671359036658461E-003  1.917206249841027E-008
  3.711855849995569E-003  1.917206249841027E-008
  3.713389465307654E-003  1.917206249841027E-008
  3.787891920847490E-003  1.917206249841027E-008
  3.925132763043180E-003  1.917206249841027E-008
  3.932201860995558E-003  1.917206249841027E-008
  4.039795303473540E-003  1.917206249841027E-008
   50.6579725342703       1.917206249841027E-008
   173.265265236001       1.917206249841027E-008
   350.263588690657       1.917206249841027E-008
 cut=1d-8, nber non-redundant internal coords=         321
 Check on Eigenvals of non-red overlap matrix:
  0.00000002  0.00000012  0.00000019  0.00000035  0.00000053  0.00000090  0.00000113  0.00000162
  0.00000219  0.00000256  0.00000330  0.00000387  0.00000438  0.00000557  0.00000612  0.00000725
  0.00000777  0.00000970  0.00001048  0.00001061  0.00001120  0.00001162  0.00001390  0.00001440
  0.00001551  0.00001600  0.00001635  0.00001768  0.00001783  0.00001807  0.00001838  0.00002020
  0.00002154  0.00002257  0.00002384  0.00002408  0.00002495  0.00002547  0.00002775  0.00002947
  0.00002997  0.00003092  0.00003240  0.00003369  0.00003507  0.00003590  0.00003826  0.00003863
  0.00003995  0.00004079  0.00004258  0.00004263  0.00004384  0.00004630  0.00004756  0.00004891
  0.00004907  0.00004936  0.00005086  0.00005216  0.00005235  0.00005350  0.00005590  0.00005639
  0.00005734  0.00005889  0.00006054  0.00006079  0.00006342  0.00006516  0.00006686  0.00006831
  0.00006937  0.00007139  0.00007273  0.00007292  0.00007503  0.00007764  0.00008133  0.00008203
  0.00008268  0.00008627  0.00008766  0.00008865  0.00009092  0.00009313  0.00009482  0.00009573
  0.00009808  0.00010778  0.00011059  0.00011305  0.00011568  0.00011843  0.00012079  0.00012177
  0.00012247  0.00012484  0.00013197  0.00013431  0.00013560  0.00013645  0.00013724  0.00014064
  0.00014389  0.00014767  0.00014872  0.00015429  0.00015900  0.00016098  0.00016150  0.00016897
  0.00017828  0.00017859  0.00018187  0.00018189  0.00018947  0.00020201  0.00020564  0.00022201
  0.00022428  0.00022767  0.00023126  0.00023835  0.00025078  0.00026587  0.00026769  0.00027457
  0.00028450  0.00028658  0.00028904  0.00029242  0.00029990  0.00030360  0.00031151  0.00032185
  0.00033362  0.00034262  0.00035867  0.00036383  0.00037755  0.00037763  0.00038309  0.00038487
  0.00038686  0.00039015  0.00039285  0.00039722  0.00041116  0.00042001  0.00042150  0.00042327
  0.00042660  0.00043041  0.00043162  0.00043590  0.00044066  0.00044249  0.00044582  0.00045928
  0.00046123  0.00046330  0.00046714  0.00046885  0.00048241  0.00049424  0.00050669  0.00051065
  0.00052293  0.00053336  0.00053459  0.00053487  0.00053492  0.00053731  0.00054188  0.00054844
  0.00055361  0.00055583  0.00055593  0.00055618  0.00055622  0.00055623  0.00055623  0.00057016
  0.00057839  0.00057843  0.00058797  0.00059391  0.00059448  0.00059627  0.00059704  0.00059854
  0.00059892  0.00059925  0.00059959  0.00059985  0.00060003  0.00060068  0.00060222  0.00060919
  0.00061704  0.00062067  0.00062146  0.00062544  0.00062981  0.00063439  0.00063632  0.00063732
  0.00064142  0.00064489  0.00064571  0.00064748  0.00064885  0.00065176  0.00066950  0.00067574
  0.00067618  0.00069277  0.00069690  0.00069788  0.00076699  0.00079339  0.00081549  0.00084816
  0.00088573  0.00095224  0.00098633  0.00099089  0.00099461  0.00106327  0.00107857  0.00107966
  0.00108999  0.00109350  0.00109445  0.00109510  0.00109566  0.00109925  0.00110685  0.00111174
  0.00112735  0.00113344  0.00113436  0.00113486  0.00114230  0.00114642  0.00114763  0.00116243
  0.00116436  0.00116487  0.00116599  0.00116651  0.00116833  0.00116887  0.00117134  0.00117370
  0.00118012  0.00118042  0.00118051  0.00118078  0.00118142  0.00118574  0.00121277  0.00126095
  0.00129187  0.00135450  0.00149477  0.00151616  0.00154882  0.00158511  0.00161013  0.00166978
  0.00167030  0.00168082  0.00172080  0.00172379  0.00178699  0.00190864  0.00191577  0.00203487
  0.00206137  0.00216152  0.00227719  0.00233816  0.00234073  0.00234852  0.00240185  0.00252131
  0.00253453  0.00256264  0.00278015  0.00292495  0.00302204  0.00302641  0.00302874  0.00303211
  0.00303467  0.00304257  0.00304695  0.00304732  0.00305525  0.00308309  0.00309134  0.00309336
  0.00309386  0.00312433  0.00341341  0.00341999  0.00366359  0.00366564  0.00366579  0.00367136
  0.00371186  0.00371339  0.00378789  0.00392513  0.00393220  0.00403980 50.65797253173.26526524
350.26358869
 d1=
   1.8-622.5-228.0 513.8-563.2 771.9 -76.5 171.9 -25.2  33.3-133.4-109.7 193.7  71.1 -80.3 -10.6   9.1 -20.7  20.7  78.4
 -15.8 -56.7  24.3 -19.4  -8.2  20.4   1.9 -53.9  75.8  72.7-164.1  24.9  29.2 129.6 -21.4  39.1  -6.3   7.5  13.9 -32.5
  -2.4  58.0-193.6 -15.0  36.5 -38.2 -30.5 -85.7  -0.1  76.5 -51.8 222.9  62.7 -70.9 -26.4  10.6   1.1   4.2  40.0  -4.8
  -9.1  18.8  13.1 -18.4 -12.2  40.3-127.7  57.8  96.1 -66.1  22.0 -92.6 -98.2  15.1 -66.4  42.0 -56.0 -11.2  87.0 -18.9
  12.6 -20.0  60.2 -14.5 -16.2   4.0   0.6  -9.8 -15.4  17.9 -46.2  52.5  -8.3 -15.0 -10.0   7.8  -3.0  50.8   0.3  -4.7
   3.0   1.9  -0.7  -1.0   0.6  -2.3  -1.3  -1.1   1.0  -3.9   0.2  -4.4  13.5  -1.5  -1.4   6.2 -34.7   3.8   2.0   0.0
  -8.5   2.7   0.9  -2.3  -1.4   8.0   0.0   4.6  -0.0  11.2   0.1   1.7  -1.4   3.7  10.9  -2.2  -1.8   2.0  -1.4  -1.9
  -0.4   0.1  -1.3  -0.2  -1.1  -1.0   0.2  -3.5  -4.0  -0.5 -15.1  -1.4   1.4  -1.5  -0.1   0.3  -0.1  -0.5   1.7   0.3
   0.1   0.8  -0.8  -0.4   2.0  -0.0   0.5   1.1  -0.4  -0.1   4.1   0.3  -0.5  -0.0   5.8   9.8  -0.1   0.1   0.0  -0.0
   0.0  -0.1   0.1   2.8   0.0  -0.0   0.4   1.8  -0.4   3.3  -7.2   2.0   6.3   1.4   0.0  -0.5  -0.1   1.5  -0.0  -5.0
  -2.1  15.6  -0.1   0.2  -0.5  -0.3   0.1   0.3   0.1  -0.1   0.1  -0.0  -0.4  -0.1  -5.4  -2.3  -0.2   2.5   5.1   0.0
  -0.6  15.5  -2.3  -0.8   0.6  -1.7  -0.1   0.3 -11.1  -0.1   0.0  -0.3   0.0   0.0  -0.2  -0.0   0.1   0.3   0.1  -0.6
   0.3   0.1  -0.4   0.2  -0.2   0.0   0.5   0.0   0.0  -0.1  -0.0  -0.1   0.0  -0.3  -0.2  -0.1  -0.1   0.0  -0.0  -0.0
  -0.0  -0.0  -6.9  -2.0   0.3   0.5  -4.3   0.1  -0.1   0.0   0.0  -0.2  -0.5  -0.2  -0.1  -2.4  -0.1   0.1  -0.0  -0.1
   0.8  -0.0   0.0  -0.0   0.1   5.7   0.2  -0.7   0.0  -0.0  -0.0   0.0  -0.0  -0.3   0.0  -0.0   0.2   0.1   0.6  -0.2
   0.2   0.0   0.1  -0.0  -0.1  -1.7   0.1  -0.0   0.1   0.0  -0.2  -0.2  -0.0  -0.2  -2.3  -0.4  -0.1   0.0   3.3   0.4
   0.4
 d2=
 -44.4 529.0 508.1-394.4-555.0 751.0-234.8  61.0 -73.0 114.2 -23.8-154.1-161.9 122.3  44.9 -23.7 -56.4 -26.4  59.7  48.9
 -57.3 -18.9  25.4  32.4  -9.8 -14.5   6.4-103.7 112.3 -62.6 -52.1 146.8  -1.5 -65.8 -23.6 -29.0 -38.6  40.3  51.8 -36.8
  13.3 -61.7 203.3  -5.0 -23.4  43.2  40.9  88.0   0.1 -79.0 115.3-205.8  39.3 -13.6 -27.9   1.5  14.9   5.1  29.8 -12.2
   4.4   7.6  -0.6 -38.2  -8.9  10.3-137.1 -35.3 101.3 116.7  63.0-109.2 -39.2  19.3 -38.8 -44.6 -13.6   5.6 -30.3  54.7
 -43.9 -26.2 -63.9 -20.7 -10.7  -8.1  -6.2 -12.2 -27.8  52.9   1.3 -46.5  -9.9   4.7  11.3  -5.9  -1.0 -47.0   0.2   7.1
  -1.3  -0.1  -0.2   0.8  -0.4   2.3  -0.8  -2.7  -0.8  -0.4   4.0   4.6 -11.1   3.6   0.1   7.1 -32.8   1.6   3.9  -0.5
   9.6  -0.0  -1.3 -10.6   0.4  -2.8   2.8  -4.3  -1.3 -11.2  -1.6   1.3   0.2   7.7  -9.6  -2.5   1.3   2.2  -1.6   2.4
  -0.0  -1.1  -1.1   1.5   0.3  -0.8  -0.3  -4.2   4.6   9.0  -5.4  11.1  -1.9   0.7  -1.2  -0.4   0.2  -0.5  -2.0  -0.3
  -0.8  -0.1   0.9   0.5   2.0  -0.0   0.6   1.2  -0.4  -0.3  -2.5   1.6   1.4  -0.0   3.2  10.0  -0.1  -0.3  -0.0  -0.1
  -0.1  -0.1   0.1  -3.5  -0.0   0.0   0.4  -1.2  -0.4  -2.3   3.0   0.2  -1.0  -0.5   0.0   1.1  -4.1  -8.0  -0.0  -7.5
   8.8  12.5  -0.7   0.2   0.4   1.0  -0.1  -0.2  -0.1  -0.0  -0.1  -0.1  -0.3  -0.3  -5.1  -0.1  -0.1   3.7  -0.0  -4.2
  -0.6 -14.9  -2.4  -0.7  -0.3  -1.8  -0.1   0.4 -10.7  -0.1   0.1  -0.3  -0.1   0.0  -0.0   0.2  -0.1  -0.3  -0.1   0.5
   0.2  -0.1  -0.3   0.2   0.4  -0.0  -0.4  -0.1   0.0  -0.0   0.0  -0.1   0.0  -0.3  -0.0   0.1  -0.0   0.1   0.0  -0.0
  -0.0   0.0  -6.9   1.7  -0.3   0.6   4.3   0.4  -0.1  -0.0  -0.0  -0.1   0.5  -0.0   0.1   2.4  -0.0  -0.1  -0.0   0.1
   0.9   0.0   0.0  -0.0  -0.5  -5.6  -0.2   0.7   0.1  -0.1   0.0   0.0  -0.0  -0.2   0.1   0.1   0.0   0.0   0.2  -0.2
  -0.5  -0.0  -0.1   0.0   0.1   1.7  -0.0  -0.1   0.0   0.2  -0.1   0.2   0.0   0.2   2.3   0.5   0.1  -0.0   0.0  -0.1
   0.2
 p1=

 p2=


 Displacement: in terms of nc of 1 THEN of nc of 2


 total reorg energy (cm**-1, kcal/mol)=        0.        0.      0.00      0.00
 Nber of molecules processed=           2
