 Enter ifcurve (0=recti, 1=orth curvi, 2=apprx curvi, -1 = skip
 And atom ordering flag, 0= never changes, 1= use the first order thenceforth,
  2= deduce it (does read on fail), 3= always read it
 Reading file: 
 ./thiophene-donors_2_C0S1.log                                                  
                                          
  Entering Gaussian System, Link 0=g16                                          
  
 Gaussian format, type: g94, g98, g03= F F F
  #P Geom=AllCheck Guess=TCheck SCRF=Check GenChk RB3LYP TD(FC,Read)/6-3    
 energy type= TD      
 Original G94 input coords:
  6 -1.242028 -0.129449  0.002657
  6 -0.834985  1.192220 -0.004294
 16  0.946972  1.323520 -0.007991
  6  1.105489 -0.386895 -0.000217
  6 -0.154245 -1.046844  0.004893
  6 -0.248820 -2.469160  0.010968
  6 -1.508532 -3.129154  0.013318
 16 -1.349986 -4.839559  0.019760
  6  0.431957 -4.708215  0.019664
  6  0.838982 -3.386543  0.014846
  1 -2.280673 -0.422937  0.007228
  1 -1.429182  2.090565 -0.007518
  1  2.080042 -0.844914 -0.000890
  1 -2.483096 -2.671168  0.010252
  1  1.026169 -5.606550  0.023139
  1  1.877626 -3.093019  0.015376
 nber atoms=          16
  Total Energy, E(TD-HF/TD-DFT) =  -1104.77407592                               
  
          32          49 "  -1104.77407592"
After scan for Atom:   Atom  AN      X      Y      Z        X      Y      Z        X      Y      Z   
After scan for Atom:   Atom  AN      X      Y      Z        X      Y      Z        X      Y      Z   
After scan for Atom:   Atom  AN      X      Y      Z        X      Y      Z        X      Y      Z   
After scan for Atom:   Atom  AN      X      Y      Z        X      Y      Z        X      Y      Z   
After scan for Atom:   Atom  AN      X      Y      Z        X      Y      Z        X      Y      Z   
After scan for Atom:   Atom  AN      X      Y      Z        X      Y      Z        X      Y      Z   
After scan for Atom:   Atom  AN      X      Y      Z        X      Y      Z        X      Y      Z   
After scan for Atom:   Atom  AN      X      Y      Z        X      Y      Z        X      Y      Z   
After scan for Atom:   Atom  AN      X      Y      Z        X      Y      Z        X      Y      Z   
After scan for Atom:   Atom  AN      X      Y      Z        X      Y      Z        X      Y      Z   
After scan for Atom:   Atom  AN      X      Y      Z        X      Y      Z        X      Y      Z   
After scan for Atom:   Atom  AN      X      Y      Z        X      Y      Z        X      Y      Z   
After scan for Atom:   Atom  AN      X      Y      Z        X      Y      Z        X      Y      Z   
After scan for Atom:   Atom  AN      X      Y      Z        X      Y      Z        X      Y      Z   
 g94    frequencies=
     0.0    0.0    0.0    0.0    0.0    0.0 -390.4   47.4   92.5  203.7
   231.8  273.8  297.2  297.2  424.8  442.9  445.5  497.1  512.5  548.7
   587.5  592.8  612.9  687.7  704.5  711.9  720.8  837.8  885.0  939.7
  1033.6 1036.4 1099.0 1126.1 1204.6 1277.1 1277.7 1285.5 1335.7 1394.6
  1428.6 1573.5 3225.7 3227.4 3253.5 3264.6 3266.0 3269.9
 g94    symmetries=
                                                 A      A      A      A
       A      A      A      A      A      A      A      A      A      A
       A      A      A      A      A      A      A      A      A      A
       A      A      A      A      A      A      A      A      A      A
       A      A      A      A      A      A      A      A
 atomic masses:
 12.0000 12.0000 31.9721 12.0000 12.0000 12.0000 12.0000 31.9721 12.0000 12.0000
  1.0078  1.0078  1.0078  1.0078  1.0078  1.0078
 looking for force constants in 
 ./thiophene-donors_2_C0S1.fchk                                                 
  
 Cartesian Force Constants                  R   N=        1176                  
  
 n3=          48        1176
 g94-fc frequencies=
  -390.4   -0.0   -0.0    0.0    2.7    3.8    8.2   47.4   92.6  203.7
   231.8  273.8  297.2  297.2  424.8  442.9  445.5  497.2  512.5  548.7
   587.5  592.8  612.9  687.7  704.5  711.9  720.8  837.9  885.0  939.7
  1033.7 1036.5 1099.0 1126.1 1204.6 1277.2 1277.7 1285.6 1335.8 1394.6
  1428.7 1573.5 3225.8 3227.5 3253.5 3264.7 3266.1 3270.0
 at 99999: n3=          48
 symm operator            1 :  F  nop=           0
 symm operator            2 :  F  nop=           0
 symm operator            3 :  F  nop=           0
 symm operator            4 :  F  nop=           0
 symm operator            5 :  F  nop=           0
 symm operator            6 :  F  nop=           0
 symm operator            7 :  F  nop=           0
 The point group of the molecule is  C1
 Symmetry rotation matrix:
   1.00000   0.00000   0.00000
   0.00000   1.00000   0.00000
   0.00000   0.00000   1.00000

 Projecting out zero-frequency components
 generating redundant internal coords
         300        3600          16
 search for int coords
   1 str   2   1   1.383
   2 str   3   2   1.787
   3 str   4   3   1.718
   4 str   5   1   1.423
   5 str   5   4   1.422
   6 str   6   5   1.425
   7 str   7   6   1.422
   8 str   8   7   1.718
   9 str   9   8   1.787
  10 str  10   6   1.423
  11 str  10   9   1.383
  12 str  11   1   1.079
  13 str  12   2   1.077
  14 str  13   4   1.077
  15 str  14   7   1.077
  16 str  15   9   1.077
  17 str  16  10   1.079
 nber stretches=          17
  18 ben   1   2   3
  19 prop tor   1   2   3   4
  20 ben   1   2  12
  21 ben   1   5   4
  22 ben   1   5   6
  23 prop tor   1   5   6   7
  24 prop tor   1   5   6  10
  25 ben   2   1   5
  26 prop tor   2   1   5   4
  27 prop tor   2   1   5   6
  28 ben   2   1  11
  29 ben   2   3   4
  30 prop tor   2   3   4   5
  31 prop tor   2   3   4  13
  32 ben   3   2  12
  33 ben   3   4   5
  34 prop tor   3   4   5   1
  35 prop tor   3   4   5   6
  36 ben   3   4  13
  37 ben   4   5   6
  38 prop tor   4   5   6   7
  39 prop tor   4   5   6  10
  40 prop tor   5   1   2   3
  41 prop tor   5   1   2  12
  42 ben   5   1  11
  43 ben   5   4  13
  44 ben   5   6   7
  45 prop tor   5   6   7   8
  46 prop tor   5   6   7  14
  47 ben   5   6  10
  48 prop tor   5   6  10   9
  49 prop tor   5   6  10  16
  50 ben   6   7   8
  51 prop tor   6   7   8   9
  52 ben   6   7  14
  53 ben   6  10   9
  54 ben   6  10  16
  55 ben   7   6  10
  56 prop tor   7   6  10   9
  57 prop tor   7   6  10  16
  58 ben   7   8   9
  59 prop tor   7   8   9  10
  60 prop tor   7   8   9  15
  61 ben   8   7  14
  62 ben   8   9  10
  63 prop tor   8   9  10   6
  64 prop tor   8   9  10  16
  65 ben   8   9  15
  66 ben   9  10  16
  67 prop tor  10   6   7   8
  68 prop tor  10   6   7  14
  69 ben  10   9  15
  70 prop tor  11   1   2   3
  71 prop tor  11   1   2  12
  72 prop tor  11   1   5   4
  73 prop tor  11   1   5   6
  74 prop tor  12   2   3   4
  75 prop tor  13   4   5   1
  76 prop tor  13   4   5   6
  77 prop tor  14   7   8   9
  78 prop tor  15   9  10   6
  79 prop tor  15   9  10  16
 nber bend=              26
 nber lin bend=           0
 nber prop tor=          36
 nber impr tor=           0
 nber tot redund int=          79
 Eigenvalues of G in red int coords
    Gval -0.00000000 -0.00000000 -0.00000000 -0.00000000 -0.00000000 -0.00000000 -0.00000000 -0.00000000
    Gval -0.00000000 -0.00000000 -0.00000000 -0.00000000 -0.00000000 -0.00000000 -0.00000000 -0.00000000
    Gval -0.00000000  0.00000000  0.00000000  0.00000000  0.00000000  0.00000000  0.00000000  0.00000000
    Gval  0.00000000  0.00000000  0.00000000  0.00000000  0.00000000  0.00000000  0.00000000  0.00000000
    Gval  0.00000000  0.00000000  0.00000000  0.00000000  0.00000000  0.00000586  0.00000703  0.00002634
    Gval  0.00003101  0.00004201  0.00005133  0.00005805  0.00006403  0.00006626  0.00006774  0.00008737
    Gval  0.00010512  0.00011140  0.00012908  0.00017165  0.00018304  0.00022611  0.00029693  0.00033286
    Gval  0.00036149  0.00036834  0.00042502  0.00059608  0.00059688  0.00060757  0.00061182  0.00062024
    Gval  0.00062699  0.00079243  0.00108109  0.00108489  0.00112499  0.00112881  0.00118755  0.00118873
    Gval  0.00135525  0.00202409  0.00225851  0.00258717  0.00284075  0.00393694  0.00399956
  5.864172956087618E-006  5.864172956087618E-006
  7.034015670234781E-006  5.864172956087618E-006
  2.633520148685055E-005  5.864172956087618E-006
  3.101315467455057E-005  5.864172956087618E-006
  4.201407869331943E-005  5.864172956087618E-006
  5.133263811798456E-005  5.864172956087618E-006
  5.805410541020370E-005  5.864172956087618E-006
  6.402640206037589E-005  5.864172956087618E-006
  6.626381915904418E-005  5.864172956087618E-006
  6.773789375491569E-005  5.864172956087618E-006
  8.736915725385158E-005  5.864172956087618E-006
  1.051210198410630E-004  5.864172956087618E-006
  1.114010164855928E-004  5.864172956087618E-006
  1.290792042180191E-004  5.864172956087618E-006
  1.716467027493781E-004  5.864172956087618E-006
  1.830434143263843E-004  5.864172956087618E-006
  2.261145796844315E-004  5.864172956087618E-006
  2.969336725480479E-004  5.864172956087618E-006
  3.328582779290270E-004  5.864172956087618E-006
  3.614923347652936E-004  5.864172956087618E-006
  3.683366101299977E-004  5.864172956087618E-006
  4.250176405068096E-004  5.864172956087618E-006
  5.960785445600152E-004  5.864172956087618E-006
  5.968770386478090E-004  5.864172956087618E-006
  6.075706158938062E-004  5.864172956087618E-006
  6.118211003734528E-004  5.864172956087618E-006
  6.202366505381453E-004  5.864172956087618E-006
  6.269937337399780E-004  5.864172956087618E-006
  7.924331784038620E-004  5.864172956087618E-006
  1.081085215484994E-003  5.864172956087618E-006
  1.084894406924127E-003  5.864172956087618E-006
  1.124987539040614E-003  5.864172956087618E-006
  1.128810319708119E-003  5.864172956087618E-006
  1.187549038275889E-003  5.864172956087618E-006
  1.188733639429063E-003  5.864172956087618E-006
  1.355250072026795E-003  5.864172956087618E-006
  2.024091494601942E-003  5.864172956087618E-006
  2.258513067613844E-003  5.864172956087618E-006
  2.587174568670834E-003  5.864172956087618E-006
  2.840753649155316E-003  5.864172956087618E-006
  3.936937696748787E-003  5.864172956087618E-006
  3.999561561284117E-003  5.864172956087618E-006
 cut=1d-8, nber non-redundant internal coords=          42
 Check on Eigenvals of non-red overlap matrix:
  0.00000586  0.00000703  0.00002634  0.00003101  0.00004201  0.00005133  0.00005805  0.00006403
  0.00006626  0.00006774  0.00008737  0.00010512  0.00011140  0.00012908  0.00017165  0.00018304
  0.00022611  0.00029693  0.00033286  0.00036149  0.00036834  0.00042502  0.00059608  0.00059688
  0.00060757  0.00061182  0.00062024  0.00062699  0.00079243  0.00108109  0.00108489  0.00112499
  0.00112881  0.00118755  0.00118873  0.00135525  0.00202409  0.00225851  0.00258717  0.00284075
  0.00393694  0.00399956
 Checking for correct frequencies
 recalc frequencies=
  -390.4   -0.0   -0.0    0.0    0.0    0.0    0.0   47.4   92.6  203.7
   231.8  273.8  297.2  297.2  424.8  442.9  445.5  497.2  512.5  548.7
   587.5  592.8  612.9  687.7  704.5  711.9  720.8  837.9  885.0  939.7
  1033.7 1036.5 1099.0 1126.1 1204.6 1277.2 1277.7 1285.6 1335.8 1394.6
  1428.7 1573.5 3225.8 3227.5 3253.5 3264.7 3266.1 3270.0
 recalc symmetries=
                                                                       
                                                                       
                                                                       
                                                                       
                                                         
 recalc freqs check OK
 Zero-point lengths:
 12.5470 10.0000 10.0000 10.0000 10.0000 10.0000 10.0000 35.9942 25.7696 17.3702
 16.2840 14.9810 14.3810 14.3801 12.0279 11.7795 11.7449 11.1186 10.9506 10.5831
 10.2282 10.1824 10.0138  9.4536  9.3399  9.2916  9.2341  8.5646  8.3333  8.0871
  7.7110  7.7005  7.4782  7.3877  7.1428  6.9370  6.9356  6.9143  6.7832  6.6385
  6.5589  6.2498  4.3649  4.3638  4.3463  4.3389  4.3379  4.3353
 highest evec of mol 1
 -0.0451 -0.0156  0.0002
 -0.0395  0.0662 -0.0002
  0.0011  0.0019 -0.0000
  0.1709 -0.0757 -0.0001
 -0.0060 -0.0067  0.0000
  0.0060  0.0067 -0.0000
 -0.1708  0.0757 -0.0005
 -0.0011 -0.0019  0.0000
  0.0395 -0.0662  0.0003
  0.0451  0.0156 -0.0000
  0.1395  0.0417 -0.0006
  0.1316 -0.2026  0.0007
 -0.5555  0.2625  0.0003
  0.5551 -0.2623  0.0017
 -0.1316  0.2026 -0.0008
 -0.1396 -0.0417 -0.0000
 generating redundant internal coords
         300        3600          16
 Adding extra bonds for z output only
           6           6          16           6           6           6
           6          16           6           6           1           1
           1           1           1           1
 search for int coords
   1 str   2   1   1.383
   2 str   3   2   1.787
   3 str   4   3   1.718
   4 str   5   1   1.423
   5 str   5   4   1.422
   6 str   6   5   1.425
   7 str   7   6   1.422
   8 str   8   7   1.718
   9 str   9   8   1.787
  10 str  10   6   1.423
  11 str  10   9   1.383
  12 str  11   1   1.079
  13 str  12   2   1.077
  14 str  13   4   1.077
  15 str  14   7   1.077
  16 str  15   9   1.077
  17 str  16  10   1.079
 nber stretches=          17
  18 ben   1   2   3
  19 prop tor   1   2   3   4
  20 ben   1   2  12
  21 ben   1   5   4
  22 ben   1   5   6
  23 prop tor   1   5   6   7
  24 prop tor   1   5   6  10
  25 ben   2   1   5
  26 prop tor   2   1   5   4
  27 prop tor   2   1   5   6
  28 ben   2   1  11
  29 ben   2   3   4
  30 prop tor   2   3   4   5
  31 prop tor   2   3   4  13
  32 ben   3   2  12
  33 ben   3   4   5
  34 prop tor   3   4   5   1
  35 prop tor   3   4   5   6
  36 ben   3   4  13
  37 ben   4   5   6
  38 prop tor   4   5   6   7
  39 prop tor   4   5   6  10
  40 prop tor   5   1   2   3
  41 prop tor   5   1   2  12
  42 ben   5   1  11
  43 ben   5   4  13
  44 ben   5   6   7
  45 prop tor   5   6   7   8
  46 prop tor   5   6   7  14
  47 ben   5   6  10
  48 prop tor   5   6  10   9
  49 prop tor   5   6  10  16
  50 ben   6   7   8
  51 prop tor   6   7   8   9
  52 ben   6   7  14
  53 ben   6  10   9
  54 ben   6  10  16
  55 ben   7   6  10
  56 prop tor   7   6  10   9
  57 prop tor   7   6  10  16
  58 ben   7   8   9
  59 prop tor   7   8   9  10
  60 prop tor   7   8   9  15
  61 ben   8   7  14
  62 ben   8   9  10
  63 prop tor   8   9  10   6
  64 prop tor   8   9  10  16
  65 ben   8   9  15
  66 ben   9  10  16
  67 prop tor  10   6   7   8
  68 prop tor  10   6   7  14
  69 ben  10   9  15
  70 prop tor  11   1   2   3
  71 prop tor  11   1   2  12
  72 prop tor  11   1   5   4
  73 prop tor  11   1   5   6
  74 prop tor  12   2   3   4
  75 prop tor  13   4   5   1
  76 prop tor  13   4   5   6
  77 prop tor  14   7   8   9
  78 prop tor  15   9  10   6
  79 prop tor  15   9  10  16
 nber bend=              26
 nber lin bend=           0
 nber prop tor=          36
 nber impr tor=           0
 nber tot redund int=          79
 Reading file: 
 ./thiophene-donors_2_C1S0.log                                                  
                                          
  Entering Gaussian System, Link 0=g16                                          
  
 Gaussian format, type: g94, g98, g03= F F F
  #P Geom=AllCheck Guess=TCheck SCRF=Check GenChk UB3LYP/6-311G(d,p) Fre    
 energy type= B3LYP   
 Original G94 input coords:
  6 -1.239119 -0.108091  0.002277
  6 -0.826391  1.177859 -0.003764
 16  0.930121  1.306793 -0.007622
  6  1.099735 -0.370124 -0.000459
  6 -0.144021 -1.049193  0.004438
  6 -0.259018 -2.466820  0.010509
  6 -1.502775 -3.145898  0.013212
 16 -1.333162 -4.822817  0.019962
  6  0.423352 -4.693867  0.020088
  6  0.836081 -3.407914  0.014652
  1 -2.282968 -0.386388  0.005620
  1 -1.421990  2.078412 -0.006343
  1  2.084430 -0.812221 -0.000549
  1 -2.487472 -2.703811  0.010875
  1  1.018952 -5.594413  0.024219
  1  1.879933 -3.129607  0.014076
 nber atoms=          16
  SCF Done:  E(UB3LYP) =  -1104.66326643     A.U. after    1 cycles             
  
          23          40 "  -1104.66326643"
After scan for Atom:   Atom  AN      X      Y      Z        X      Y      Z        X      Y      Z   
After scan for Atom:   Atom  AN      X      Y      Z        X      Y      Z        X      Y      Z   
After scan for Atom:   Atom  AN      X      Y      Z        X      Y      Z        X      Y      Z   
After scan for Atom:   Atom  AN      X      Y      Z        X      Y      Z        X      Y      Z   
After scan for Atom:   Atom  AN      X      Y      Z        X      Y      Z        X      Y      Z   
After scan for Atom:   Atom  AN      X      Y      Z        X      Y      Z        X      Y      Z   
After scan for Atom:   Atom  AN      X      Y      Z        X      Y      Z        X      Y      Z   
After scan for Atom:   Atom  AN      X      Y      Z        X      Y      Z        X      Y      Z   
After scan for Atom:   Atom  AN      X      Y      Z        X      Y      Z        X      Y      Z   
After scan for Atom:   Atom  AN      X      Y      Z        X      Y      Z        X      Y      Z   
After scan for Atom:   Atom  AN      X      Y      Z        X      Y      Z        X      Y      Z   
After scan for Atom:   Atom  AN      X      Y      Z        X      Y      Z        X      Y      Z   
After scan for Atom:   Atom  AN      X      Y      Z        X      Y      Z        X      Y      Z   
After scan for Atom:   Atom  AN      X      Y      Z        X      Y      Z        X      Y      Z   
 g94    frequencies=
     0.0    0.0    0.0    0.0    0.0    0.0   52.8   98.2  149.0  251.0
   315.1  428.7  436.6  440.0  584.0  584.4  615.4  652.6  723.2  725.2
   725.9  776.3  787.6  798.3  850.7  913.9  916.2  923.9  927.2  946.2
  1036.1 1126.9 1127.8 1199.0 1236.1 1292.7 1308.7 1373.8 1377.5 1518.0
  1549.7 1580.6 3225.7 3225.8 3248.3 3249.7 3251.6 3253.5
 g94    symmetries=
                                                 A      A      A      A
       A      A      A      A      A      A      A      A      A      A
       A      A      A      A      A      A      A      A      A      A
       A      A      A      A      A      A      A      A      A      A
       A      A      A      A      A      A      A      A
 atomic masses:
 12.0000 12.0000 31.9721 12.0000 12.0000 12.0000 12.0000 31.9721 12.0000 12.0000
  1.0078  1.0078  1.0078  1.0078  1.0078  1.0078
 looking for force constants in 
 ./thiophene-donors_2_C1S0.fchk                                                 
  
 Cartesian Force Constants                  R   N=        1176                  
  
 n3=          48        1176
 g94-fc frequencies=
    -3.2   -0.1   -0.0    0.0    0.0    3.9   52.8   98.2  149.1  251.0
   315.1  428.7  436.6  440.0  584.0  584.4  615.4  652.6  723.2  725.2
   725.9  776.4  787.6  798.3  850.7  913.9  916.2  924.0  927.2  946.3
  1036.1 1126.9 1127.8 1199.1 1236.1 1292.8 1308.7 1373.9 1377.6 1518.0
  1549.7 1580.7 3225.8 3225.9 3248.3 3249.8 3251.6 3253.6
 at 99999: n3=          48
 symm operator            1 :  F  nop=           0
 symm operator            2 :  F  nop=           0
 symm operator            3 :  F  nop=           0
 symm operator            4 :  F  nop=           0
 symm operator            5 :  F  nop=           0
 symm operator            6 :  F  nop=           0
 symm operator            7 :  F  nop=           0
 The point group of the molecule is  C1
 Symmetry rotation matrix:
   1.00000   0.00000   0.00000
   0.00000   1.00000   0.00000
   0.00000   0.00000   1.00000

 Projecting out zero-frequency components
 generating redundant internal coords
         300        3600          16
 search for int coords
   1 str   2   1   1.351
   2 str   3   2   1.761
   3 str   4   3   1.685
   4 str   5   1   1.444
   5 str   5   4   1.417
   6 str   6   5   1.422
   7 str   7   6   1.417
   8 str   8   7   1.685
   9 str   9   8   1.761
  10 str  10   6   1.444
  11 str  10   9   1.351
  12 str  11   1   1.080
  13 str  12   2   1.080
  14 str  13   4   1.079
  15 str  14   7   1.079
  16 str  15   9   1.080
  17 str  16  10   1.080
 nber stretches=          17
  18 ben   1   2   3
  19 prop tor   1   2   3   4
  20 ben   1   2  12
  21 ben   1   5   4
  22 ben   1   5   6
  23 prop tor   1   5   6   7
  24 prop tor   1   5   6  10
  25 ben   2   1   5
  26 prop tor   2   1   5   4
  27 prop tor   2   1   5   6
  28 ben   2   1  11
  29 ben   2   3   4
  30 prop tor   2   3   4   5
  31 prop tor   2   3   4  13
  32 ben   3   2  12
  33 ben   3   4   5
  34 prop tor   3   4   5   1
  35 prop tor   3   4   5   6
  36 ben   3   4  13
  37 ben   4   5   6
  38 prop tor   4   5   6   7
  39 prop tor   4   5   6  10
  40 prop tor   5   1   2   3
  41 prop tor   5   1   2  12
  42 ben   5   1  11
  43 ben   5   4  13
  44 ben   5   6   7
  45 prop tor   5   6   7   8
  46 prop tor   5   6   7  14
  47 ben   5   6  10
  48 prop tor   5   6  10   9
  49 prop tor   5   6  10  16
  50 ben   6   7   8
  51 prop tor   6   7   8   9
  52 ben   6   7  14
  53 ben   6  10   9
  54 ben   6  10  16
  55 ben   7   6  10
  56 prop tor   7   6  10   9
  57 prop tor   7   6  10  16
  58 ben   7   8   9
  59 prop tor   7   8   9  10
  60 prop tor   7   8   9  15
  61 ben   8   7  14
  62 ben   8   9  10
  63 prop tor   8   9  10   6
  64 prop tor   8   9  10  16
  65 ben   8   9  15
  66 ben   9  10  16
  67 prop tor  10   6   7   8
  68 prop tor  10   6   7  14
  69 ben  10   9  15
  70 prop tor  11   1   2   3
  71 prop tor  11   1   2  12
  72 prop tor  11   1   5   4
  73 prop tor  11   1   5   6
  74 prop tor  12   2   3   4
  75 prop tor  13   4   5   1
  76 prop tor  13   4   5   6
  77 prop tor  14   7   8   9
  78 prop tor  15   9  10   6
  79 prop tor  15   9  10  16
 nber bend=              26
 nber lin bend=           0
 nber prop tor=          36
 nber impr tor=           0
 nber tot redund int=          79
 Eigenvalues of G in red int coords
    Gval -0.00000000 -0.00000000 -0.00000000 -0.00000000 -0.00000000 -0.00000000 -0.00000000 -0.00000000
    Gval -0.00000000 -0.00000000 -0.00000000 -0.00000000 -0.00000000 -0.00000000 -0.00000000 -0.00000000
    Gval -0.00000000 -0.00000000 -0.00000000 -0.00000000 -0.00000000  0.00000000  0.00000000  0.00000000
    Gval  0.00000000  0.00000000  0.00000000  0.00000000  0.00000000  0.00000000  0.00000000  0.00000000
    Gval  0.00000000  0.00000000  0.00000000  0.00000000  0.00000000  0.00000599  0.00000701  0.00002660
    Gval  0.00003297  0.00004204  0.00005131  0.00005797  0.00006417  0.00006699  0.00006787  0.00008856
    Gval  0.00010576  0.00011256  0.00013039  0.00017640  0.00018735  0.00023034  0.00029599  0.00033181
    Gval  0.00037702  0.00038335  0.00042684  0.00059603  0.00059685  0.00060805  0.00061248  0.00062091
    Gval  0.00062771  0.00077601  0.00107732  0.00108097  0.00112052  0.00112466  0.00118803  0.00118911
    Gval  0.00135135  0.00200398  0.00223286  0.00258205  0.00286069  0.00391503  0.00398227
  5.994080796552360E-006  5.994080796552360E-006
  7.006272575721440E-006  5.994080796552360E-006
  2.659875642911351E-005  5.994080796552360E-006
  3.296510415145957E-005  5.994080796552360E-006
  4.204181412072429E-005  5.994080796552360E-006
  5.130894330504701E-005  5.994080796552360E-006
  5.797126663338758E-005  5.994080796552360E-006
  6.417427798697075E-005  5.994080796552360E-006
  6.699338784510525E-005  5.994080796552360E-006
  6.786971324407326E-005  5.994080796552360E-006
  8.856462580190085E-005  5.994080796552360E-006
  1.057574551843965E-004  5.994080796552360E-006
  1.125610521224453E-004  5.994080796552360E-006
  1.303919271222894E-004  5.994080796552360E-006
  1.763959980752291E-004  5.994080796552360E-006
  1.873488623171307E-004  5.994080796552360E-006
  2.303449804767234E-004  5.994080796552360E-006
  2.959880137183271E-004  5.994080796552360E-006
  3.318078639384216E-004  5.994080796552360E-006
  3.770244888557575E-004  5.994080796552360E-006
  3.833485570462447E-004  5.994080796552360E-006
  4.268380629625447E-004  5.994080796552360E-006
  5.960311521188599E-004  5.994080796552360E-006
  5.968540906653271E-004  5.994080796552360E-006
  6.080466317254760E-004  5.994080796552360E-006
  6.124759511489076E-004  5.994080796552360E-006
  6.209144384502871E-004  5.994080796552360E-006
  6.277105975508740E-004  5.994080796552360E-006
  7.760069840551910E-004  5.994080796552360E-006
  1.077319574726673E-003  5.994080796552360E-006
  1.080971537321750E-003  5.994080796552360E-006
  1.120520896596482E-003  5.994080796552360E-006
  1.124655527679522E-003  5.994080796552360E-006
  1.188033083074415E-003  5.994080796552360E-006
  1.189113662148003E-003  5.994080796552360E-006
  1.351354075775884E-003  5.994080796552360E-006
  2.003982812373148E-003  5.994080796552360E-006
  2.232861114722719E-003  5.994080796552360E-006
  2.582046929549053E-003  5.994080796552360E-006
  2.860694158786867E-003  5.994080796552360E-006
  3.915031313461017E-003  5.994080796552360E-006
  3.982268142469576E-003  5.994080796552360E-006
 cut=1d-8, nber non-redundant internal coords=          42
 Check on Eigenvals of non-red overlap matrix:
  0.00000599  0.00000701  0.00002660  0.00003297  0.00004204  0.00005131  0.00005797  0.00006417
  0.00006699  0.00006787  0.00008856  0.00010576  0.00011256  0.00013039  0.00017640  0.00018735
  0.00023034  0.00029599  0.00033181  0.00037702  0.00038335  0.00042684  0.00059603  0.00059685
  0.00060805  0.00061248  0.00062091  0.00062771  0.00077601  0.00107732  0.00108097  0.00112052
  0.00112466  0.00118803  0.00118911  0.00135135  0.00200398  0.00223286  0.00258205  0.00286069
  0.00391503  0.00398227
 Checking for correct frequencies
 recalc frequencies=
    -0.0   -0.0   -0.0    0.0    0.0    0.0   52.8   98.2  149.1  251.0
   315.1  428.7  436.6  440.0  584.0  584.4  615.4  652.6  723.2  725.2
   725.9  776.4  787.6  798.3  850.7  913.9  916.2  924.0  927.2  946.3
  1036.1 1126.9 1127.8 1199.1 1236.1 1292.8 1308.7 1373.9 1377.6 1518.0
  1549.7 1580.7 3225.8 3225.9 3248.3 3249.8 3251.6 3253.6
 recalc symmetries=
                                                                       
                                                                       
                                                                       
                                                                       
                                                         
 recalc freqs check OK
 Zero-point lengths:
 10.0000 10.0000 10.0000 10.0000 10.0000 10.0000 34.1145 25.0182 20.3062 15.6490
 13.9668 11.9740 11.8647 11.8182 10.2582 10.2552  9.9938  9.7045  9.2184  9.2056
  9.2014  8.8975  8.8336  8.7744  8.4996  8.2006  8.1904  8.1558  8.1415  8.0592
  7.7019  7.3850  7.3822  7.1594  7.0512  6.8950  6.8530  6.6884  6.6794  6.3629
  6.2976  6.2355  4.3649  4.3649  4.3498  4.3488  4.3476  4.3463
 highest evec of mol 2
  0.0758  0.0311 -0.0003
  0.0797 -0.1376  0.0004
 -0.0015 -0.0015  0.0000
 -0.1097  0.0480  0.0000
  0.0019  0.0057 -0.0000
 -0.0019 -0.0057  0.0000
  0.1097 -0.0480  0.0002
  0.0015  0.0015 -0.0000
 -0.0797  0.1376 -0.0006
 -0.0757 -0.0310  0.0001
 -0.2337 -0.0663  0.0008
 -0.2718  0.4160 -0.0012
  0.3500 -0.1587 -0.0000
 -0.3500  0.1587 -0.0008
  0.2718 -0.4159  0.0019
  0.2337  0.0663 -0.0002
 Enter nber and list of atoms to keep of mol #2
 keep list:          16           1           2           3           4
           5           6           7           8           9          10
          11          12          13          14          15          16
 reordering atoms
           1  -1.40520699630521     
           2  -2.74815081217546     
           3  -3.23064813681500     
           4  -1.62296188740389     
           5 -0.705751280952631     
           6  0.705751119013728     
           7   1.62296133540974     
           8   3.23064797550029     
           9   2.74815165743016     
          10   1.40520729478069     
          11 -0.920984905462755     
          12  -3.50920263221535     
          13  -1.38975636264924     
          14   1.38975560373510     
          15   3.50920307367050     
          16  0.920986665645437     
           1           1
           2           2
           3           3
           4           4
           5           5
           6           6
           7           7
           8           8
           9           9
          10          10
          11          11
          12          12
          13          13
          14          14
          15          15
          16          16
 initial cartes coords mol 1
   6   0.00176  -1.35354  -1.37943
   6   0.00069  -1.22736  -2.75660
  16  -0.00111   0.48938  -3.25201
   6  -0.00044   0.99668  -1.61087
   6   0.00094  -0.10017  -0.70566
   6   0.00094   0.10014   0.70566
   6  -0.00045  -0.99669   1.61089
  16  -0.00111  -0.48936   3.25202
   6   0.00069   1.22736   2.75658
   6   0.00176   1.35352   1.37941
   1   0.00431  -2.30950  -0.87835
   1   0.00082  -1.99380  -3.51336
   1  -0.00231   2.04466  -1.36333
   1  -0.00231  -2.04467   1.36338
   1   0.00082   1.99381   3.51333
   1   0.00431   2.30948   0.87833
 initial cartes coords mol 2
   6   0.00142  -1.35065  -1.40521
   6   0.00112  -1.20730  -2.74815
  16  -0.00087   0.48657  -3.23065
   6  -0.00066   0.99274  -1.62296
   6   0.00043  -0.08745  -0.70575
   6   0.00043   0.08745   0.70575
   6  -0.00067  -0.99274   1.62296
  16  -0.00087  -0.48656   3.23065
   6   0.00112   1.20730   2.74815
   6   0.00143   1.35065   1.40521
   1   0.00281  -2.31637  -0.92098
   1   0.00190  -1.97316  -3.50920
   1  -0.00188   2.04663  -1.38976
   1  -0.00188  -2.04663   1.38976
   1   0.00190   1.97315   3.50920
   1   0.00281   2.31637   0.92099
 loop 1 0
 mod cartes coords mol 2
   6   0.00142  -1.35065  -1.40521
   6   0.00112  -1.20730  -2.74815
  16  -0.00087   0.48657  -3.23065
   6  -0.00066   0.99274  -1.62296
   6   0.00043  -0.08745  -0.70575
   6   0.00043   0.08745   0.70575
   6  -0.00067  -0.99274   1.62296
  16  -0.00087  -0.48656   3.23065
   6   0.00112   1.20730   2.74815
   6   0.00143   1.35065   1.40521
   1   0.00281  -2.31637  -0.92098
   1   0.00190  -1.97316  -3.50920
   1  -0.00188   2.04663  -1.38976
   1  -0.00188  -2.04663   1.38976
   1   0.00190   1.97315   3.50920
   1   0.00281   2.31637   0.92099
 read in order, maxerr=  0.04 for atom  16
 final axis swaps:           1           1           1
 final xyz swap pattern=           1
 reorder list:
   1   2   3   4   5   6   7   8   9  10  11  12  13  14  15  16
 axis signs=           1           1           1
  6     0.001424 -1.350649 -1.405207     0.001760 -1.353543 -1.379426
  6     0.001123 -1.207296 -2.748151     0.000695 -1.227359 -2.756603
 16    -0.000871  0.486565 -3.230648    -0.001109  0.489379 -3.252013
  6    -0.000661  0.992743 -1.622962    -0.000437  0.996681 -1.610870
  6     0.000434 -0.087448 -0.705751     0.000939 -0.100173 -0.705664
  6     0.000433  0.087448  0.705751     0.000938  0.100139  0.705661
  6    -0.000666 -0.992742  1.622961    -0.000445 -0.996685  1.610895
 16    -0.000869 -0.486565  3.230648    -0.001106 -0.489357  3.252017
  6     0.001121  1.207295  2.748152     0.000691  1.227358  2.756582
  6     0.001425  1.350649  1.405207     0.001760  1.353524  1.379415
  1     0.002808 -2.316366 -0.920985     0.004311 -2.309501 -0.878350
  1     0.001899 -1.973155 -3.509203     0.000818 -1.993796 -3.513358
  1    -0.001878  2.046634 -1.389756    -0.002312  2.044659 -1.363334
  1    -0.001876 -2.046634  1.389756    -0.002310 -2.044668  1.363378
  1     0.001897  1.973154  3.509203     0.000820  1.993809  3.513325
  1     0.002808  2.316367  0.920987     0.004310  2.309475  0.878326
 generating redundant internal coords
         300        3600          16
 Adding extra bonds for z output only
           6           6          16           6           6           6
           6          16           6           6           1           1
           1           1           1           1
 search for int coords
   1 str   2   1   1.351
   2 str   3   2   1.761
   3 str   4   3   1.685
   4 str   5   1   1.444
   5 str   5   4   1.417
   6 str   6   5   1.422
   7 str   7   6   1.417
   8 str   8   7   1.685
   9 str   9   8   1.761
  10 str  10   6   1.444
  11 str  10   9   1.351
  12 str  11   1   1.080
  13 str  12   2   1.080
  14 str  13   4   1.079
  15 str  14   7   1.079
  16 str  15   9   1.080
  17 str  16  10   1.080
 nber stretches=          17
  18 ben   1   2   3
  19 prop tor   1   2   3   4
  20 ben   1   2  12
  21 ben   1   5   4
  22 ben   1   5   6
  23 prop tor   1   5   6   7
  24 prop tor   1   5   6  10
  25 ben   2   1   5
  26 prop tor   2   1   5   4
  27 prop tor   2   1   5   6
  28 ben   2   1  11
  29 ben   2   3   4
  30 prop tor   2   3   4   5
  31 prop tor   2   3   4  13
  32 ben   3   2  12
  33 ben   3   4   5
  34 prop tor   3   4   5   1
  35 prop tor   3   4   5   6
  36 ben   3   4  13
  37 ben   4   5   6
  38 prop tor   4   5   6   7
  39 prop tor   4   5   6  10
  40 prop tor   5   1   2   3
  41 prop tor   5   1   2  12
  42 ben   5   1  11
  43 ben   5   4  13
  44 ben   5   6   7
  45 prop tor   5   6   7   8
  46 prop tor   5   6   7  14
  47 ben   5   6  10
  48 prop tor   5   6  10   9
  49 prop tor   5   6  10  16
  50 ben   6   7   8
  51 prop tor   6   7   8   9
  52 ben   6   7  14
  53 ben   6  10   9
  54 ben   6  10  16
  55 ben   7   6  10
  56 prop tor   7   6  10   9
  57 prop tor   7   6  10  16
  58 ben   7   8   9
  59 prop tor   7   8   9  10
  60 prop tor   7   8   9  15
  61 ben   8   7  14
  62 ben   8   9  10
  63 prop tor   8   9  10   6
  64 prop tor   8   9  10  16
  65 ben   8   9  15
  66 ben   9  10  16
  67 prop tor  10   6   7   8
  68 prop tor  10   6   7  14
  69 ben  10   9  15
  70 prop tor  11   1   2   3
  71 prop tor  11   1   2  12
  72 prop tor  11   1   5   4
  73 prop tor  11   1   5   6
  74 prop tor  12   2   3   4
  75 prop tor  13   4   5   1
  76 prop tor  13   4   5   6
  77 prop tor  14   7   8   9
  78 prop tor  15   9  10   6
  79 prop tor  15   9  10  16
 nber bend=              26
 nber lin bend=           0
 nber prop tor=          36
 nber impr tor=           0
 nber tot redund int=          79
 generating redundant internal coords
         300        3600          16
 search for int coords
   1 str   2   1   1.383
   2 str   3   2   1.787
   3 str   4   3   1.718
   4 str   5   1   1.423
   5 str   5   4   1.422
   6 str   6   5   1.425
   7 str   7   6   1.422
   8 str   8   7   1.718
   9 str   9   8   1.787
  10 str  10   6   1.423
  11 str  10   9   1.383
  12 str  11   1   1.079
  13 str  12   2   1.077
  14 str  13   4   1.077
  15 str  14   7   1.077
  16 str  15   9   1.077
  17 str  16  10   1.079
 nber stretches=          17
  18 ben   1   2   3
  19 prop tor   1   2   3   4
  20 ben   1   2  12
  21 ben   1   5   4
  22 ben   1   5   6
  23 prop tor   1   5   6   7
  24 prop tor   1   5   6  10
  25 ben   2   1   5
  26 prop tor   2   1   5   4
  27 prop tor   2   1   5   6
  28 ben   2   1  11
  29 ben   2   3   4
  30 prop tor   2   3   4   5
  31 prop tor   2   3   4  13
  32 ben   3   2  12
  33 ben   3   4   5
  34 prop tor   3   4   5   1
  35 prop tor   3   4   5   6
  36 ben   3   4  13
  37 ben   4   5   6
  38 prop tor   4   5   6   7
  39 prop tor   4   5   6  10
  40 prop tor   5   1   2   3
  41 prop tor   5   1   2  12
  42 ben   5   1  11
  43 ben   5   4  13
  44 ben   5   6   7
  45 prop tor   5   6   7   8
  46 prop tor   5   6   7  14
  47 ben   5   6  10
  48 prop tor   5   6  10   9
  49 prop tor   5   6  10  16
  50 ben   6   7   8
  51 prop tor   6   7   8   9
  52 ben   6   7  14
  53 ben   6  10   9
  54 ben   6  10  16
  55 ben   7   6  10
  56 prop tor   7   6  10   9
  57 prop tor   7   6  10  16
  58 ben   7   8   9
  59 prop tor   7   8   9  10
  60 prop tor   7   8   9  15
  61 ben   8   7  14
  62 ben   8   9  10
  63 prop tor   8   9  10   6
  64 prop tor   8   9  10  16
  65 ben   8   9  15
  66 ben   9  10  16
  67 prop tor  10   6   7   8
  68 prop tor  10   6   7  14
  69 ben  10   9  15
  70 prop tor  11   1   2   3
  71 prop tor  11   1   2  12
  72 prop tor  11   1   5   4
  73 prop tor  11   1   5   6
  74 prop tor  12   2   3   4
  75 prop tor  13   4   5   1
  76 prop tor  13   4   5   6
  77 prop tor  14   7   8   9
  78 prop tor  15   9  10   6
  79 prop tor  15   9  10  16
 nber bend=              26
 nber lin bend=           0
 nber prop tor=          36
 nber impr tor=           0
 nber tot redund int=          79
 Eigenvalues of G in red int coords
    Gval -0.00000000 -0.00000000 -0.00000000 -0.00000000 -0.00000000 -0.00000000 -0.00000000 -0.00000000
    Gval -0.00000000 -0.00000000 -0.00000000 -0.00000000 -0.00000000 -0.00000000 -0.00000000 -0.00000000
    Gval -0.00000000 -0.00000000 -0.00000000  0.00000000  0.00000000  0.00000000  0.00000000  0.00000000
    Gval  0.00000000  0.00000000  0.00000000  0.00000000  0.00000000  0.00000000  0.00000000  0.00000000
    Gval  0.00000000  0.00000000  0.00000000  0.00000000  0.00000000  0.00000586  0.00000703  0.00002634
    Gval  0.00003101  0.00004201  0.00005133  0.00005805  0.00006403  0.00006626  0.00006774  0.00008737
    Gval  0.00010512  0.00011140  0.00012908  0.00017165  0.00018304  0.00022611  0.00029693  0.00033286
    Gval  0.00036149  0.00036834  0.00042502  0.00059608  0.00059688  0.00060757  0.00061182  0.00062024
    Gval  0.00062699  0.00079243  0.00108109  0.00108489  0.00112499  0.00112881  0.00118755  0.00118873
    Gval  0.00135525  0.00202409  0.00225851  0.00258717  0.00284075  0.00393694  0.00399956
  5.864172956087620E-006  5.864172956087620E-006
  7.034015670234688E-006  5.864172956087620E-006
  2.633520148685055E-005  5.864172956087620E-006
  3.101315467455060E-005  5.864172956087620E-006
  4.201407869331947E-005  5.864172956087620E-006
  5.133263811798452E-005  5.864172956087620E-006
  5.805410541020366E-005  5.864172956087620E-006
  6.402640206037614E-005  5.864172956087620E-006
  6.626381915904409E-005  5.864172956087620E-006
  6.773789375491560E-005  5.864172956087620E-006
  8.736915725385171E-005  5.864172956087620E-006
  1.051210198410630E-004  5.864172956087620E-006
  1.114010164855929E-004  5.864172956087620E-006
  1.290792042180191E-004  5.864172956087620E-006
  1.716467027493781E-004  5.864172956087620E-006
  1.830434143263842E-004  5.864172956087620E-006
  2.261145796844313E-004  5.864172956087620E-006
  2.969336725480479E-004  5.864172956087620E-006
  3.328582779290270E-004  5.864172956087620E-006
  3.614923347652932E-004  5.864172956087620E-006
  3.683366101299973E-004  5.864172956087620E-006
  4.250176405068096E-004  5.864172956087620E-006
  5.960785445600157E-004  5.864172956087620E-006
  5.968770386478085E-004  5.864172956087620E-006
  6.075706158938060E-004  5.864172956087620E-006
  6.118211003734530E-004  5.864172956087620E-006
  6.202366505381454E-004  5.864172956087620E-006
  6.269937337399779E-004  5.864172956087620E-006
  7.924331784038599E-004  5.864172956087620E-006
  1.081085215484991E-003  5.864172956087620E-006
  1.084894406924124E-003  5.864172956087620E-006
  1.124987539040613E-003  5.864172956087620E-006
  1.128810319708117E-003  5.864172956087620E-006
  1.187549038275886E-003  5.864172956087620E-006
  1.188733639429061E-003  5.864172956087620E-006
  1.355250072026794E-003  5.864172956087620E-006
  2.024091494601941E-003  5.864172956087620E-006
  2.258513067613844E-003  5.864172956087620E-006
  2.587174568670837E-003  5.864172956087620E-006
  2.840753649155319E-003  5.864172956087620E-006
  3.936937696748778E-003  5.864172956087620E-006
  3.999561561284108E-003  5.864172956087620E-006
 cut=1d-8, nber non-redundant internal coords=          42
 Check on Eigenvals of non-red overlap matrix:
  0.00000586  0.00000703  0.00002634  0.00003101  0.00004201  0.00005133  0.00005805  0.00006403
  0.00006626  0.00006774  0.00008737  0.00010512  0.00011140  0.00012908  0.00017165  0.00018304
  0.00022611  0.00029693  0.00033286  0.00036149  0.00036834  0.00042502  0.00059608  0.00059688
  0.00060757  0.00061182  0.00062024  0.00062699  0.00079243  0.00108109  0.00108489  0.00112499
  0.00112881  0.00118755  0.00118873  0.00135525  0.00202409  0.00225851  0.00258717  0.00284075
  0.00393694  0.00399956
 generating redundant internal coords
         300        3600          16
 search for int coords
   1 str   2   1   1.351
   2 str   3   2   1.761
   3 str   4   3   1.685
   4 str   5   1   1.444
   5 str   5   4   1.417
   6 str   6   5   1.422
   7 str   7   6   1.417
   8 str   8   7   1.685
   9 str   9   8   1.761
  10 str  10   6   1.444
  11 str  10   9   1.351
  12 str  11   1   1.080
  13 str  12   2   1.080
  14 str  13   4   1.079
  15 str  14   7   1.079
  16 str  15   9   1.080
  17 str  16  10   1.080
 nber stretches=          17
  18 ben   1   2   3
  19 prop tor   1   2   3   4
  20 ben   1   2  12
  21 ben   1   5   4
  22 ben   1   5   6
  23 prop tor   1   5   6   7
  24 prop tor   1   5   6  10
  25 ben   2   1   5
  26 prop tor   2   1   5   4
  27 prop tor   2   1   5   6
  28 ben   2   1  11
  29 ben   2   3   4
  30 prop tor   2   3   4   5
  31 prop tor   2   3   4  13
  32 ben   3   2  12
  33 ben   3   4   5
  34 prop tor   3   4   5   1
  35 prop tor   3   4   5   6
  36 ben   3   4  13
  37 ben   4   5   6
  38 prop tor   4   5   6   7
  39 prop tor   4   5   6  10
  40 prop tor   5   1   2   3
  41 prop tor   5   1   2  12
  42 ben   5   1  11
  43 ben   5   4  13
  44 ben   5   6   7
  45 prop tor   5   6   7   8
  46 prop tor   5   6   7  14
  47 ben   5   6  10
  48 prop tor   5   6  10   9
  49 prop tor   5   6  10  16
  50 ben   6   7   8
  51 prop tor   6   7   8   9
  52 ben   6   7  14
  53 ben   6  10   9
  54 ben   6  10  16
  55 ben   7   6  10
  56 prop tor   7   6  10   9
  57 prop tor   7   6  10  16
  58 ben   7   8   9
  59 prop tor   7   8   9  10
  60 prop tor   7   8   9  15
  61 ben   8   7  14
  62 ben   8   9  10
  63 prop tor   8   9  10   6
  64 prop tor   8   9  10  16
  65 ben   8   9  15
  66 ben   9  10  16
  67 prop tor  10   6   7   8
  68 prop tor  10   6   7  14
  69 ben  10   9  15
  70 prop tor  11   1   2   3
  71 prop tor  11   1   2  12
  72 prop tor  11   1   5   4
  73 prop tor  11   1   5   6
  74 prop tor  12   2   3   4
  75 prop tor  13   4   5   1
  76 prop tor  13   4   5   6
  77 prop tor  14   7   8   9
  78 prop tor  15   9  10   6
  79 prop tor  15   9  10  16
 nber bend=              26
 nber lin bend=           0
 nber prop tor=          36
 nber impr tor=           0
 nber tot redund int=          79
 Eigenvalues of G in red int coords
    Gval -0.00000000 -0.00000000 -0.00000000 -0.00000000 -0.00000000 -0.00000000 -0.00000000 -0.00000000
    Gval -0.00000000 -0.00000000 -0.00000000 -0.00000000 -0.00000000 -0.00000000 -0.00000000 -0.00000000
    Gval -0.00000000 -0.00000000  0.00000000  0.00000000  0.00000000  0.00000000  0.00000000  0.00000000
    Gval  0.00000000  0.00000000  0.00000000  0.00000000  0.00000000  0.00000000  0.00000000  0.00000000
    Gval  0.00000000  0.00000000  0.00000000  0.00000000  0.00000000  0.00000599  0.00000701  0.00002660
    Gval  0.00003297  0.00004204  0.00005131  0.00005797  0.00006417  0.00006699  0.00006787  0.00008856
    Gval  0.00010576  0.00011256  0.00013039  0.00017640  0.00018735  0.00023034  0.00029599  0.00033181
    Gval  0.00037702  0.00038335  0.00042684  0.00059603  0.00059685  0.00060805  0.00061248  0.00062091
    Gval  0.00062771  0.00077601  0.00107732  0.00108097  0.00112052  0.00112466  0.00118803  0.00118911
    Gval  0.00135135  0.00200398  0.00223286  0.00258205  0.00286069  0.00391503  0.00398227
  5.994080796552358E-006  5.994080796552358E-006
  7.006272575721363E-006  5.994080796552358E-006
  2.659875642911345E-005  5.994080796552358E-006
  3.296510415145991E-005  5.994080796552358E-006
  4.204181412072423E-005  5.994080796552358E-006
  5.130894330504704E-005  5.994080796552358E-006
  5.797126663338756E-005  5.994080796552358E-006
  6.417427798697094E-005  5.994080796552358E-006
  6.699338784510521E-005  5.994080796552358E-006
  6.786971324407323E-005  5.994080796552358E-006
  8.856462580190092E-005  5.994080796552358E-006
  1.057574551843966E-004  5.994080796552358E-006
  1.125610521224453E-004  5.994080796552358E-006
  1.303919271222895E-004  5.994080796552358E-006
  1.763959980752291E-004  5.994080796552358E-006
  1.873488623171305E-004  5.994080796552358E-006
  2.303449804767230E-004  5.994080796552358E-006
  2.959880137183267E-004  5.994080796552358E-006
  3.318078639384216E-004  5.994080796552358E-006
  3.770244888557572E-004  5.994080796552358E-006
  3.833485570462441E-004  5.994080796552358E-006
  4.268380629625450E-004  5.994080796552358E-006
  5.960311521188599E-004  5.994080796552358E-006
  5.968540906653271E-004  5.994080796552358E-006
  6.080466317254756E-004  5.994080796552358E-006
  6.124759511489072E-004  5.994080796552358E-006
  6.209144384502865E-004  5.994080796552358E-006
  6.277105975508727E-004  5.994080796552358E-006
  7.760069840551902E-004  5.994080796552358E-006
  1.077319574726672E-003  5.994080796552358E-006
  1.080971537321749E-003  5.994080796552358E-006
  1.120520896596483E-003  5.994080796552358E-006
  1.124655527679524E-003  5.994080796552358E-006
  1.188033083074413E-003  5.994080796552358E-006
  1.189113662148002E-003  5.994080796552358E-006
  1.351354075775885E-003  5.994080796552358E-006
  2.003982812373146E-003  5.994080796552358E-006
  2.232861114722720E-003  5.994080796552358E-006
  2.582046929549052E-003  5.994080796552358E-006
  2.860694158786865E-003  5.994080796552358E-006
  3.915031313461017E-003  5.994080796552358E-006
  3.982268142469575E-003  5.994080796552358E-006
 cut=1d-8, nber non-redundant internal coords=          42
 Check on Eigenvals of non-red overlap matrix:
  0.00000599  0.00000701  0.00002660  0.00003297  0.00004204  0.00005131  0.00005797  0.00006417
  0.00006699  0.00006787  0.00008856  0.00010576  0.00011256  0.00013039  0.00017640  0.00018735
  0.00023034  0.00029599  0.00033181  0.00037702  0.00038335  0.00042684  0.00059603  0.00059685
  0.00060805  0.00061248  0.00062091  0.00062771  0.00077601  0.00107732  0.00108097  0.00112052
  0.00112466  0.00118803  0.00118911  0.00135135  0.00200398  0.00223286  0.00258205  0.00286069
  0.00391503  0.00398227
 d1=
  -0.0   3.3   3.3   0.2  -0.0  -5.8   0.0  -0.1   0.0  -6.9   0.5  -0.0   0.4  -0.0   2.6  -0.0  -0.0   0.0   2.6  -0.1
   0.0   1.9  -0.0  -0.3   0.0   0.8   0.0   0.4  -0.0   0.0  -0.3  -0.0  -0.0  -0.0   0.3  -0.0   0.0   0.0   0.0   0.0
  -0.1  -0.0
 d2=
  -0.0   3.5   3.4   0.2   0.0  -5.9   0.0   0.1   0.0  -6.9  -0.7   0.0   0.4  -0.0  -2.5   0.0   0.0  -0.0   2.4   0.1
  -0.0  -2.0   0.0  -0.3  -0.0  -0.8  -0.0  -0.5   0.0  -0.0   0.3  -0.0   0.0   0.0  -0.3   0.0  -0.0  -0.0  -0.0  -0.0
   0.1   0.0
 curvilinear- renormalizn of Dush matrix done
  mol 1 sym            1  -> mol 2 sym            1

 Dushinsky matrix, ncs 2 in terms of ncs 1

   mode   freq    coeff     %      %tot     of    at

   1        -0.  0.0000     0.0     0.0   8        47.
   2        -0.  0.0000     0.0     0.0   8        47.
   3        -0.  0.0000     0.0     0.0   8        47.
   4         0.  0.0000     0.0     0.0   8        47.
   5         0. -0.0000     0.0     0.0   8        47.
   6         0. -0.0000     0.0     0.0   8        47.
   7        53. -0.9661    93.3   103.9   8        47.
   8        98.  0.9580    91.8   102.6   9        93.
   9       149. -0.3634    13.2   102.3   1      -390.
                 0.9300    86.5          10       204.
  10       251. -0.8968    80.4   102.8  11       232.
                 0.4395    19.3          13       297.
  11       315.  0.9953    99.1   100.5  14       297.
  12       429.  0.9922    98.4   100.6  15       425.
  13       437.  0.4402    19.4   104.5  11       232.
                 0.8841    78.2          13       297.
  14       440. -0.9609    92.3   104.2  12       274.
  15       584. -0.7633    58.3    98.7  16       443.
                 0.5265    27.7          20       549.
  16       584.  0.3611    13.0   102.3   1      -390.
                 0.8956    80.2          22       593.
  17       615. -0.9933    98.7   102.2  21       587.
  18       653.  0.7703    59.3    99.7  17       446.
                 0.4654    21.7          23       613.
  19       723. -0.3302    10.9    99.2  16       443.
                 0.9333    87.1          18       497.
  20       725. -0.3871    15.0    99.1  17       446.
                -0.9053    82.0          19       513.
  21       726. -0.3591    12.9    99.3   1      -390.
                 0.3520    12.4          22       593.
                 0.8338    69.5          25       705.
  22       776.  0.9955    99.1   101.1  27       721.
  23       788.  0.4475    20.0    99.5  16       443.
                 0.7108    50.5          20       549.
                -0.4742    22.5          24       688.
  24       798.  0.4188    17.5    99.9  17       446.
                -0.4983    24.8          23       613.
                 0.7056    49.8          26       712.
  25       851.  0.9789    95.8   101.3  28       838.
  26       914. -0.4429    19.6    99.4  20       549.
                -0.8681    75.4          24       688.
  27       916.  0.7300    53.3    99.4  23       613.
                 0.6399    40.9          26       712.
  28       924.  0.5713    32.6   100.3   1      -390.
                 0.4856    23.6          25       705.
                 0.4769    22.7          34      1126.
  29       927.  0.7383    54.5   100.6  29       885.
                 0.6697    44.9          30       940.
  30       946.  0.6678    44.6   100.7  29       885.
                -0.7414    55.0          30       940.
  31      1036.  0.9727    94.6   100.9  31      1034.
  32      1127.  0.9937    98.7    99.8  33      1099.
  33      1128. -0.8664    75.1    99.7  32      1036.
                 0.3879    15.0          34      1126.
  34      1199.  0.3215    10.3    99.5   1      -390.
                -0.7068    50.0          34      1126.
                 0.3334    11.1          37      1278.
                 0.3991    15.9          38      1286.
  35      1236.  0.9975    99.5   100.0  35      1205.
  36      1293.  0.9810    96.2    99.7  36      1277.
  37      1309.  0.8396    70.5   100.1  37      1278.
                -0.4345    18.9          38      1286.
  38      1374.  0.9125    83.3   100.4  40      1395.
                -0.3265    10.7          41      1429.
  39      1378. -0.9369    87.8   100.4  39      1336.
  40      1518. -0.8910    79.4   100.5  41      1429.
                 0.3672    13.5          42      1573.
  41      1550. -0.3526    12.4    99.9   1      -390.
                 0.3743    14.0          32      1036.
                 0.3473    12.1          37      1278.
                 0.7086    50.2          38      1286.
  42      1581. -0.9187    84.4    99.9  42      1573.
  43      3226. -0.9874    97.5   100.0  43      3226.
  44      3226. -0.9939    98.8   100.0  44      3227.
  45      3248.  0.8625    74.4   100.0  46      3265.
                -0.5048    25.5          48      3270.
  46      3250. -0.4558    20.8   100.0  45      3253.
                -0.8829    77.9          47      3266.
  47      3252.  0.8877    78.8   100.0  45      3253.
                -0.4450    19.8          47      3266.
  48      3254. -0.4992    24.9   100.0  46      3265.
                -0.8601    74.0          48      3270.
 nber times 1st assigned=           1           0
 nber times 1st assigned=           2           0
 nber times 1st assigned=           3           0
 nber times 1st assigned=           4           0
 nber times 1st assigned=           5           0
 nber times 1st assigned=           6           0
 nber times 1st assigned=           7           0
 nber times 1st assigned=           8           6
 nber times 1st assigned=           9           0
 nber times 1st assigned=          10           0
 nber times 1st assigned=          11           0
 nber times 1st assigned=          12           0
 nber times 1st assigned=          13           0
 nber times 1st assigned=          14           0
 nber times 1st assigned=          15           0
 nber times 1st assigned=          16           0
 nber times 1st assigned=          17           0
 nber times 1st assigned=          18           0
 nber times 1st assigned=          19           0
 nber times 1st assigned=          20           0
 nber times 1st assigned=          21           0
 nber times 1st assigned=          22           0
 nber times 1st assigned=          23           0
 nber times 1st assigned=          24           0
 nber times 1st assigned=          25           0
 nber times 1st assigned=          26           0
 nber times 1st assigned=          27           0
 nber times 1st assigned=          28           0
 nber times 1st assigned=          29           0
 nber times 1st assigned=          30           0
 nber times 1st assigned=          31           0
 nber times 1st assigned=          32           0
 nber times 1st assigned=          33           0
 nber times 1st assigned=          34           0
 nber times 1st assigned=          35           0
 nber times 1st assigned=          36           0
 nber times 1st assigned=          37           0
 nber times 1st assigned=          38           0
 nber times 1st assigned=          39           0
 nber times 1st assigned=          40           0
 nber times 1st assigned=          41           0
 nber times 1st assigned=          42           0
 nber times 1st assigned=          43           0
 nber times 1st assigned=          44           0
 nber times 1st assigned=          45           0
 nber times 1st assigned=          46           0
 nber times 1st assigned=          47           0
 nber times 1st assigned=          48           0
 Dushinsky matrix written to .out file
 modes represented=   42.2512518481210     

 Dushinsky matrix, ncs 1 in terms of ncs 2

   mode   freq    coeff     %      %tot     of    at

   1      -390. -0.3634    13.2    99.9   9       149.
                 0.3611    13.0          16       584.
                -0.3591    12.9          21       726.
                 0.5713    32.6          28       924.
                 0.3215    10.3          34      1199.
                -0.3526    12.4          41      1550.
   8        47. -0.9661    93.3   105.6   7        53.
   9        93.  0.9580    91.8   101.1   8        98.
  10       204.  0.9300    86.5   101.4   9       149.
  11       232. -0.8968    80.4   103.3  10       251.
                 0.4402    19.4          13       437.
  12       274. -0.9609    92.3   104.5  14       440.
  13       297.  0.4395    19.3   104.1  10       251.
                 0.8841    78.2          13       437.
  14       297.  0.9953    99.1   101.3  11       315.
  15       425.  0.9922    98.4   100.3  12       429.
  16       443. -0.7633    58.3    98.8  15       584.
                -0.3302    10.9          19       723.
                 0.4475    20.0          23       788.
  17       446.  0.7703    59.3    99.1  18       653.
                -0.3871    15.0          20       725.
                 0.4188    17.5          24       798.
  18       497.  0.9333    87.1    98.7  19       723.
  19       513. -0.9053    82.0    99.0  20       725.
  20       549.  0.5265    27.7    99.1  15       584.
                 0.7108    50.5          23       788.
                -0.4429    19.6          26       914.
  21       587. -0.9933    98.7   102.0  17       615.
  22       593.  0.8956    80.2   103.2  16       584.
                 0.3520    12.4          21       726.
  23       613.  0.4654    21.7    99.9  18       653.
                -0.4983    24.8          24       798.
                 0.7300    53.3          27       916.
  24       688. -0.4742    22.5    99.8  23       788.
                -0.8681    75.4          26       914.
  25       705.  0.8338    69.5   100.0  21       726.
                 0.4856    23.6          28       924.
  26       712.  0.7056    49.8    99.9  24       798.
                 0.6399    40.9          27       916.
  27       721.  0.9955    99.1   101.5  22       776.
  28       838.  0.9789    95.8   101.0  25       851.
  29       885.  0.7383    54.5   100.3  29       927.
                 0.6678    44.6          30       946.
  30       940.  0.6697    44.9   100.9  29       927.
                -0.7414    55.0          30       946.
  31      1034.  0.9727    94.6   100.8  31      1036.
  32      1036. -0.8664    75.1   100.2  33      1128.
                 0.3743    14.0          41      1550.
  33      1099.  0.9937    98.7    99.8  32      1127.
  34      1126.  0.4769    22.7    99.5  28       924.
                 0.3879    15.0          33      1128.
                -0.7068    50.0          34      1199.
  35      1205.  0.9975    99.5    99.9  35      1236.
  36      1277.  0.9810    96.2    99.9  36      1293.
  37      1278.  0.3334    11.1   100.1  34      1199.
                 0.8396    70.5          37      1309.
                 0.3473    12.1          41      1550.
  38      1286.  0.3991    15.9    99.8  34      1199.
                -0.4345    18.9          37      1309.
                 0.7086    50.2          41      1550.
  39      1336. -0.9369    87.8   100.1  39      1378.
  40      1395.  0.9125    83.3    99.9  38      1374.
  41      1429. -0.3265    10.7   100.3  38      1374.
                -0.8910    79.4          40      1518.
  42      1573.  0.3672    13.5   100.0  40      1518.
                -0.9187    84.4          42      1581.
  43      3226. -0.9874    97.5   100.0  43      3226.
  44      3227. -0.9939    98.8   100.0  44      3226.
  45      3253. -0.4558    20.8   100.0  46      3250.
                 0.8877    78.8          47      3252.
  46      3265.  0.8625    74.4   100.0  45      3248.
                -0.4992    24.9          48      3254.
  47      3266. -0.8829    77.9   100.0  46      3250.
                -0.4450    19.8          47      3252.
  48      3270. -0.5048    25.5   100.0  45      3248.
                -0.8601    74.0          48      3254.
 nber times 1st assigned=           1           0
 nber times 1st assigned=           2           0
 nber times 1st assigned=           3           0
 nber times 1st assigned=           4           0
 nber times 1st assigned=           5           0
 nber times 1st assigned=           6           0
 nber times 1st assigned=           7           0
 nber times 1st assigned=           8           0
 nber times 1st assigned=           9           0
 nber times 1st assigned=          10           0
 nber times 1st assigned=          11           0
 nber times 1st assigned=          12           0
 nber times 1st assigned=          13           0
 nber times 1st assigned=          14           0
 nber times 1st assigned=          15           0
 nber times 1st assigned=          16           0
 nber times 1st assigned=          17           0
 nber times 1st assigned=          18           0
 nber times 1st assigned=          19           0
 nber times 1st assigned=          20           0
 nber times 1st assigned=          21           0
 nber times 1st assigned=          22           0
 nber times 1st assigned=          23           0
 nber times 1st assigned=          24           0
 nber times 1st assigned=          25           0
 nber times 1st assigned=          26           0
 nber times 1st assigned=          27           0
 nber times 1st assigned=          28           0
 nber times 1st assigned=          29           0
 nber times 1st assigned=          30           0
 nber times 1st assigned=          31           0
 nber times 1st assigned=          32           0
 nber times 1st assigned=          33           0
 nber times 1st assigned=          34           0
 nber times 1st assigned=          35           0
 nber times 1st assigned=          36           0
 nber times 1st assigned=          37           0
 nber times 1st assigned=          38           0
 nber times 1st assigned=          39           0
 nber times 1st assigned=          40           0
 nber times 1st assigned=          41           0
 nber times 1st assigned=          42           0
 nber times 1st assigned=          43           0
 nber times 1st assigned=          44           0
 nber times 1st assigned=          45           0
 nber times 1st assigned=          46           0
 nber times 1st assigned=          47           0
 nber times 1st assigned=          48           0
 modes represented=   42.2512518481210     
 p1=
   -0.    0.    0.    0.    0.    0.    0.   -0.    0.    0.   -0.    0.    0.   -3.    0.    0.    0.   -0.   -0.   -0.
   -6.    0.    0.   -0.    0.    0.   -3.   -0.    6.   -1.    0.    0.   -3.    0.   -2.    1.    0.   -0.   -0.   -2.
    4.    2.   -0.   -0.   -0.   -0.   -0.   -0.
 p2=
    0.    0.    0.    0.   -0.   -0.   -0.   -0.   -0.   -0.    3.    0.    0.    0.    0.    0.   -6.   -0.    0.    0.
   -0.    3.    0.    0.    0.   -0.   -0.    0.   -3.   -4.   -0.    3.   -0.    0.    2.   -1.   -0.    3.    0.    2.
   -0.    3.    0.    0.    0.    0.   -0.   -0.

 Displacement: in terms of nc of 1 THEN of nc of 2

   1     freq=  -390. Q= -0.000 lam=    -0.0     freq=    -0. Q= -0.000 lam=    -0.0
   2     freq=    -0. Q=  0.000 lam=    -0.0     freq=    -0. Q=  0.000 lam=    -0.0
   3     freq=    -0. Q=  0.000 lam=    -0.0     freq=    -0. Q=  0.000 lam=    -0.0
   4     freq=     0. Q=  0.000 lam=     0.0     freq=     0. Q=  0.000 lam=     0.0
   5     freq=     0. Q=  0.000 lam=     0.0     freq=     0. Q=  0.000 lam=     0.0
   6     freq=     0. Q=  0.000 lam=     0.0     freq=     0. Q=  0.000 lam=     0.0
   7     freq=     0. Q=  0.000 lam=     0.0     freq=    53. Q=  0.002 lam=     0.0
   8     freq=    47. Q= -0.003 lam=     0.0     freq=    98. Q= -0.006 lam=     0.0
   9     freq=    93. Q=  0.005 lam=     0.0     freq=   149. Q=  0.000 lam=     0.0
  10     freq=   204. Q=  0.000 lam=     0.0     freq=   251. Q=  0.000 lam=     0.0
  11     freq=   232. Q= -0.000 lam=     0.0     freq=   315. Q= -0.231 lam=     8.4
  12     freq=   274. Q=  0.006 lam=     0.0     freq=   429. Q=  0.033 lam=     0.2
  13     freq=   297. Q=  0.002 lam=     0.0     freq=   437. Q=  0.000 lam=     0.0
  14     freq=   297. Q= -0.209 lam=     6.5     freq=   440. Q= -0.008 lam=     0.0
  15     freq=   425. Q=  0.024 lam=     0.1     freq=   584. Q=  0.002 lam=     0.0
  16     freq=   443. Q=  0.000 lam=     0.0     freq=   584. Q=  0.000 lam=     0.0
  17     freq=   446. Q=  0.000 lam=     0.0     freq=   615. Q=  0.599 lam=   110.5
  18     freq=   497. Q= -0.004 lam=     0.0     freq=   653. Q= -0.000 lam=     0.0
  19     freq=   513. Q= -0.000 lam=     0.0     freq=   723. Q= -0.004 lam=     0.0
  20     freq=   549. Q= -0.003 lam=     0.0     freq=   725. Q= -0.000 lam=     0.0
  21     freq=   587. Q= -0.591 lam=   102.5     freq=   726. Q= -0.000 lam=     0.0
  22     freq=   593. Q=  0.001 lam=     0.0     freq=   776. Q=  0.370 lam=    53.1
  23     freq=   613. Q=  0.000 lam=     0.0     freq=   788. Q=  0.001 lam=     0.0
  24     freq=   688. Q= -0.003 lam=     0.0     freq=   798. Q= -0.000 lam=     0.0
  25     freq=   705. Q=  0.000 lam=     0.0     freq=   851. Q=  0.000 lam=     0.0
  26     freq=   712. Q=  0.000 lam=     0.0     freq=   914. Q=  0.007 lam=     0.0
  27     freq=   721. Q= -0.304 lam=    33.2     freq=   916. Q= -0.000 lam=     0.0
  28     freq=   838. Q= -0.000 lam=     0.0     freq=   924. Q= -0.000 lam=     0.0
  29     freq=   885. Q=  0.674 lam=   200.7     freq=   927. Q=  0.401 lam=    74.7
  30     freq=   940. Q= -0.096 lam=     4.3     freq=   946. Q= -0.520 lam=   127.7
  31     freq=  1034. Q=  0.000 lam=     0.0     freq=  1036. Q=  0.000 lam=     0.0
  32     freq=  1036. Q=  0.000 lam=     0.0     freq=  1127. Q=  0.437 lam=   107.8
  33     freq=  1099. Q= -0.438 lam=   105.4     freq=  1128. Q= -0.000 lam=     0.0
  34     freq=  1126. Q=  0.000 lam=     0.0     freq=  1199. Q=  0.000 lam=     0.0
  35     freq=  1205. Q= -0.235 lam=    33.3     freq=  1236. Q= -0.253 lam=    39.7
  36     freq=  1277. Q=  0.102 lam=     6.7     freq=  1293. Q=  0.164 lam=    17.5
  37     freq=  1278. Q=  0.002 lam=     0.0     freq=  1309. Q=  0.000 lam=     0.0
  38     freq=  1286. Q= -0.000 lam=     0.0     freq=  1374. Q= -0.479 lam=   157.3
  39     freq=  1336. Q= -0.000 lam=     0.0     freq=  1378. Q= -0.000 lam=     0.0
  40     freq=  1395. Q= -0.294 lam=    60.3     freq=  1518. Q= -0.382 lam=   110.7
  41     freq=  1429. Q=  0.593 lam=   251.4     freq=  1550. Q=  0.000 lam=     0.0
  42     freq=  1573. Q=  0.288 lam=    65.1     freq=  1581. Q=  0.411 lam=   133.5
  43     freq=  3226. Q= -0.000 lam=     0.0     freq=  3226. Q= -0.000 lam=     0.0
  44     freq=  3227. Q= -0.000 lam=     0.0     freq=  3226. Q= -0.006 lam=     0.1
  45     freq=  3253. Q= -0.000 lam=     0.0     freq=  3248. Q= -0.009 lam=     0.1
  46     freq=  3265. Q= -0.051 lam=     4.2     freq=  3250. Q= -0.000 lam=     0.0
  47     freq=  3266. Q= -0.000 lam=     0.0     freq=  3252. Q= -0.000 lam=     0.0
  48     freq=  3270. Q= -0.071 lam=     8.4     freq=  3254. Q= -0.096 lam=    15.0

 total reorg energy (cm**-1, kcal/mol)=      882.      956.      2.52      2.73
 Nber of molecules processed=           2
