 Enter ifcurve (0=recti, 1=orth curvi, 2=apprx curvi, -1 = skip
 And atom ordering flag, 0= never changes, 1= use the first order thenceforth,
  2= deduce it (does read on fail), 3= always read it
 Reading file: 
 ./CDT_1_C0S1.log                                                               
                                          
  Entering Gaussian System, Link 0=g16                                          
  
 Gaussian format, type: g94, g98, g03= F F F
  #P Geom=AllCheck Guess=TCheck SCRF=Check GenChk RB3LYP TD(FC,Read)/6-3    
 energy type= TD      
 Original G94 input coords:
  6 -1.499511 -1.334951  0.249414
  6 -1.409153 -0.095280  0.889972
  6 -0.268466  0.679130  0.773469
  6  0.845682  0.238566 -0.000429
  6  2.024112  1.025436 -0.128114
  6  3.213300  0.744243 -0.852036
  6  4.161244  1.738263 -0.755549
  6  5.562016  1.991919 -1.285363
  6  5.865367  3.348913 -0.679811
  6  6.924749  4.262525 -0.680539
  6  6.653080  5.390608  0.073543
 16  5.063006  5.355144  0.813901
  6  4.761942  3.794080  0.093900
  6  3.739966  2.842999  0.056747
 16  2.139146  2.626449  0.702224
  6  0.728955 -1.029569 -0.644147
  6 -0.416974 -1.789917 -0.517335
  1 -2.395262 -1.937431  0.344024
  1 -2.240109  0.266808  1.485558
  1 -0.223040  1.636858  1.279670
  1  3.336748 -0.169414 -1.416468
  1  5.593949  2.005785 -2.383118
  1  6.273630  1.220000 -0.962866
  1  7.863106  4.127970 -1.203485
  1  7.289011  6.245959  0.242782
  1  1.550169 -1.404894 -1.242265
  1 -0.477253 -2.750169 -1.018097
 nber atoms=          27
  Total Energy, E(TD-HF/TD-DFT) =  -1374.04133249                               
  
          32          49 "  -1374.04133249"
After scan for Atom:   Atom  AN      X      Y      Z        X      Y      Z        X      Y      Z   
After scan for Atom:   Atom  AN      X      Y      Z        X      Y      Z        X      Y      Z   
After scan for Atom:   Atom  AN      X      Y      Z        X      Y      Z        X      Y      Z   
After scan for Atom:   Atom  AN      X      Y      Z        X      Y      Z        X      Y      Z   
After scan for Atom:   Atom  AN      X      Y      Z        X      Y      Z        X      Y      Z   
After scan for Atom:   Atom  AN      X      Y      Z        X      Y      Z        X      Y      Z   
After scan for Atom:   Atom  AN      X      Y      Z        X      Y      Z        X      Y      Z   
After scan for Atom:   Atom  AN      X      Y      Z        X      Y      Z        X      Y      Z   
After scan for Atom:   Atom  AN      X      Y      Z        X      Y      Z        X      Y      Z   
After scan for Atom:   Atom  AN      X      Y      Z        X      Y      Z        X      Y      Z   
After scan for Atom:   Atom  AN      X      Y      Z        X      Y      Z        X      Y      Z   
After scan for Atom:   Atom  AN      X      Y      Z        X      Y      Z        X      Y      Z   
After scan for Atom:   Atom  AN      X      Y      Z        X      Y      Z        X      Y      Z   
After scan for Atom:   Atom  AN      X      Y      Z        X      Y      Z        X      Y      Z   
After scan for Atom:   Atom  AN      X      Y      Z        X      Y      Z        X      Y      Z   
After scan for Atom:   Atom  AN      X      Y      Z        X      Y      Z        X      Y      Z   
After scan for Atom:   Atom  AN      X      Y      Z        X      Y      Z        X      Y      Z   
After scan for Atom:   Atom  AN      X      Y      Z        X      Y      Z        X      Y      Z   
After scan for Atom:   Atom  AN      X      Y      Z        X      Y      Z        X      Y      Z   
After scan for Atom:   Atom  AN      X      Y      Z        X      Y      Z        X      Y      Z   
After scan for Atom:   Atom  AN      X      Y      Z        X      Y      Z        X      Y      Z   
After scan for Atom:   Atom  AN      X      Y      Z        X      Y      Z        X      Y      Z   
After scan for Atom:   Atom  AN      X      Y      Z        X      Y      Z        X      Y      Z   
After scan for Atom:   Atom  AN      X      Y      Z        X      Y      Z        X      Y      Z   
After scan for Atom:   Atom  AN      X      Y      Z        X      Y      Z        X      Y      Z   
 g94    frequencies=
     0.0    0.0    0.0    0.0    0.0    0.0   32.0   40.0   89.7   90.2
   127.7  178.9  197.3  226.5  263.9  273.4  355.9  393.9  406.4  428.2
   440.4  510.7  511.9  547.0  549.8  571.3  615.9  621.9  637.7  653.8
   660.9  667.8  697.3  750.8  782.5  796.2  798.5  863.4  867.2  884.6
   933.9  950.7  959.8  971.4  978.7  992.5 1005.6 1036.9 1093.6 1097.8
  1146.2 1161.5 1185.1 1199.1 1207.3 1212.9 1253.2 1315.9 1323.3 1337.7
  1367.7 1413.9 1434.8 1462.2 1470.0 1477.4 1491.1 1523.8 1545.3 1559.8
  1627.8 2976.6 2987.7 3158.8 3163.5 3175.6 3184.6 3191.8 3195.9 3212.2
  3242.5
 g94    symmetries=
                                                 A      A      A      A
       A      A      A      A      A      A      A      A      A      A
       A      A      A      A      A      A      A      A      A      A
       A      A      A      A      A      A      A      A      A      A
       A      A      A      A      A      A      A      A      A      A
       A      A      A      A      A      A      A      A      A      A
       A      A      A      A      A      A      A      A      A      A
       A      A      A      A      A      A      A      A      A      A
       A
 atomic masses:
 12.0000 12.0000 12.0000 12.0000 12.0000 12.0000 12.0000 12.0000 12.0000 12.0000
 12.0000 31.9721 12.0000 12.0000 31.9721 12.0000 12.0000  1.0078  1.0078  1.0078
  1.0078  1.0078  1.0078  1.0078  1.0078  1.0078  1.0078
 looking for force constants in 
 ./CDT_1_C0S1.fchk                                                              
  
 Cartesian Force Constants                  R   N=        3321                  
  
 n3=          81        3321
 g94-fc frequencies=
    -1.6   -0.0    0.0    0.0    1.4    2.8   32.0   40.0   89.7   90.2
   127.7  178.9  197.3  226.5  263.9  273.4  355.9  393.9  406.4  428.2
   440.5  510.7  512.0  547.0  549.8  571.4  615.9  621.9  637.7  653.8
   660.9  667.8  697.3  750.8  782.5  796.2  798.5  863.4  867.2  884.7
   933.9  950.7  959.8  971.4  978.7  992.5 1005.6 1036.9 1093.6 1097.8
  1146.2 1161.5 1185.2 1199.1 1207.3 1213.0 1253.2 1315.9 1323.3 1337.7
  1367.7 1413.9 1434.8 1462.2 1470.1 1477.4 1491.2 1523.9 1545.4 1559.8
  1627.9 2976.7 2987.8 3158.9 3163.6 3175.6 3184.7 3191.9 3195.9 3212.3
  3242.6
 at 99999: n3=          81
 symm operator            1 :  F  nop=           0
 symm operator            2 :  F  nop=           0
 symm operator            3 :  F  nop=           0
 symm operator            4 :  F  nop=           0
 symm operator            5 :  F  nop=           0
 symm operator            6 :  F  nop=           0
 symm operator            7 :  F  nop=           0
 The point group of the molecule is  C1
 Symmetry rotation matrix:
   1.00000   0.00000   0.00000
   0.00000   1.00000   0.00000
   0.00000   0.00000   1.00000

 Projecting out zero-frequency components
 generating redundant internal coords
         300        3600          27
 search for int coords
   1 str   2   1   1.398
   2 str   3   2   1.384
   3 str   4   3   1.426
   4 str   5   4   1.423
   5 str   6   5   1.420
   6 str   7   6   1.377
   7 str   8   7   1.519
   8 str   9   8   1.517
   9 str  10   9   1.399
  10 str  11  10   1.384
  11 str  12  11   1.754
  12 str  13   9   1.419
  13 str  13  12   1.745
  14 str  14   7   1.434
  15 str  14  13   1.397
  16 str  15   5   1.807
  17 str  15  14   1.740
  18 str  16   4   1.427
  19 str  17   1   1.402
  20 str  17  16   1.381
  21 str  18   1   1.084
  22 str  19   2   1.085
  23 str  20   3   1.084
  24 str  21   6   1.081
  25 str  22   8   1.098
  26 str  23   8   1.098
  27 str  24  10   1.083
  28 str  25  11   1.079
  29 str  26  16   1.083
  30 str  27  17   1.085
 nber stretches=          30
  31 ben   1   2   3
  32 prop tor   1   2   3   4
  33 prop tor   1   2   3  20
  34 ben   1   2  19
  35 ben   1  17  16
  36 ben   1  17  27
  37 ben   2   1  17
  38 prop tor   2   1  17  16
  39 prop tor   2   1  17  27
  40 ben   2   1  18
  41 ben   2   3   4
  42 prop tor   2   3   4   5
  43 prop tor   2   3   4  16
  44 ben   2   3  20
  45 ben   3   2  19
  46 ben   3   4   5
  47 prop tor   3   4   5   6
  48 prop tor   3   4   5  15
  49 ben   3   4  16
  50 prop tor   3   4  16  17
  51 prop tor   3   4  16  26
  52 ben   4   3  20
  53 ben   4   5   6
  54 prop tor   4   5   6   7
  55 prop tor   4   5   6  21
  56 ben   4   5  15
  57 prop tor   4   5  15  14
  58 ben   4  16  17
  59 prop tor   4  16  17   1
  60 prop tor   4  16  17  27
  61 ben   4  16  26
  62 ben   5   4  16
  63 prop tor   5   4  16  17
  64 prop tor   5   4  16  26
  65 ben   5   6   7
  66 prop tor   5   6   7   8
  67 prop tor   5   6   7  14
  68 ben   5   6  21
  69 ben   5  15  14
  70 ben   6   5  15
  71 prop tor   6   5  15  14
  72 ben   6   7   8
  73 prop tor   6   7   8   9
  74 prop tor   6   7   8  22
  75 prop tor   6   7   8  23
  76 ben   6   7  14
  77 prop tor   6   7  14  13
  78 prop tor   6   7  14  15
  79 ben   7   6  21
  80 ben   7   8   9
  81 prop tor   7   8   9  10
  82 prop tor   7   8   9  13
  83 ben   7   8  22
  84 ben   7   8  23
  85 ben   7  14  13
  86 ben   7  14  15
  87 prop tor   7  14  15   5
  88 ben   8   7  14
  89 prop tor   8   7  14  13
  90 prop tor   8   7  14  15
  91 ben   8   9  10
  92 prop tor   8   9  10  11
  93 prop tor   8   9  10  24
  94 ben   8   9  13
  95 prop tor   8   9  13  12
  96 prop tor   8   9  13  14
  97 ben   9   8  22
  98 ben   9   8  23
  99 ben   9  10  11
 100 prop tor   9  10  11  12
 101 prop tor   9  10  11  25
 102 ben   9  10  24
 103 ben   9  13  12
 104 ben   9  13  14
 105 prop tor   9  13  14   7
 106 prop tor   9  13  14  15
 107 ben  10   9  13
 108 prop tor  10   9  13  12
 109 prop tor  10   9  13  14
 110 ben  10  11  12
 111 prop tor  10  11  12  13
 112 ben  10  11  25
 113 ben  11  10  24
 114 ben  11  12  13
 115 prop tor  11  12  13   9
 116 prop tor  11  12  13  14
 117 ben  12  11  25
 118 ben  12  13  14
 119 prop tor  12  13  14   7
 120 prop tor  12  13  14  15
 121 prop tor  13   9  10  11
 122 prop tor  13   9  10  24
 123 ben  13  14  15
 124 prop tor  13  14  15   5
 125 prop tor  14   7   8   9
 126 prop tor  14   7   8  22
 127 prop tor  14   7   8  23
 128 prop tor  15   5   6   7
 129 prop tor  15   5   6  21
 130 prop tor  16   4   5   6
 131 prop tor  16   4   5  15
 132 ben  16  17  27
 133 prop tor  17   1   2   3
 134 prop tor  17   1   2  19
 135 ben  17   1  18
 136 ben  17  16  26
 137 prop tor  18   1   2   3
 138 prop tor  18   1   2  19
 139 prop tor  18   1  17  16
 140 prop tor  18   1  17  27
 141 prop tor  19   2   3   4
 142 prop tor  19   2   3  20
 143 prop tor  20   3   4   5
 144 prop tor  20   3   4  16
 145 prop tor  21   6   7   8
 146 prop tor  21   6   7  14
 147 prop tor  22   8   9  10
 148 prop tor  22   8   9  13
 149 ben  22   8  23
 150 prop tor  23   8   9  10
 151 prop tor  23   8   9  13
 152 prop tor  24  10  11  12
 153 prop tor  24  10  11  25
 154 prop tor  25  11  12  13
 155 prop tor  26  16  17   1
 156 prop tor  26  16  17  27
 nber bend=              50
 nber lin bend=           0
 nber prop tor=          76
 nber impr tor=           0
 nber tot redund int=         156
 Eigenvalues of G in red int coords
    Gval -0.00000000 -0.00000000 -0.00000000 -0.00000000 -0.00000000 -0.00000000 -0.00000000 -0.00000000
    Gval -0.00000000 -0.00000000 -0.00000000 -0.00000000 -0.00000000 -0.00000000 -0.00000000 -0.00000000
    Gval -0.00000000 -0.00000000 -0.00000000 -0.00000000 -0.00000000 -0.00000000 -0.00000000 -0.00000000
    Gval -0.00000000 -0.00000000 -0.00000000 -0.00000000 -0.00000000 -0.00000000 -0.00000000 -0.00000000
    Gval -0.00000000 -0.00000000 -0.00000000 -0.00000000 -0.00000000 -0.00000000 -0.00000000 -0.00000000
    Gval -0.00000000 -0.00000000  0.00000000  0.00000000  0.00000000  0.00000000  0.00000000  0.00000000
    Gval  0.00000000  0.00000000  0.00000000  0.00000000  0.00000000  0.00000000  0.00000000  0.00000000
    Gval  0.00000000  0.00000000  0.00000000  0.00000000  0.00000000  0.00000000  0.00000000  0.00000000
    Gval  0.00000000  0.00000000  0.00000000  0.00000000  0.00000000  0.00000000  0.00000000  0.00000000
    Gval  0.00000000  0.00000000  0.00000000  0.00000000  0.00000000  0.00000000  0.00000000  0.00000000
    Gval  0.00000000  0.00000179  0.00000427  0.00000810  0.00000950  0.00001709  0.00002393  0.00002408
    Gval  0.00002717  0.00003866  0.00004463  0.00004883  0.00005323  0.00005770  0.00006420  0.00006866
    Gval  0.00007433  0.00007559  0.00009179  0.00009463  0.00010182  0.00010718  0.00011762  0.00012930
    Gval  0.00013485  0.00016246  0.00019091  0.00019919  0.00022707  0.00026833  0.00028194  0.00029620
    Gval  0.00030170  0.00035775  0.00036274  0.00036931  0.00038295  0.00041937  0.00043848  0.00053744
    Gval  0.00056205  0.00058371  0.00059305  0.00059359  0.00059670  0.00060385  0.00062130  0.00062159
    Gval  0.00062474  0.00063248  0.00065975  0.00103953  0.00105611  0.00108155  0.00110650  0.00111368
    Gval  0.00113776  0.00114200  0.00116927  0.00117144  0.00118052  0.00131766  0.00137716  0.00145370
    Gval  0.00166303  0.00188274  0.00195930  0.00208772  0.00233319  0.00266615  0.00301347  0.00312118
    Gval  0.00371188  0.00373367  0.00405117  0.00405909
  1.793524647267483E-006  1.793524647267483E-006
  4.268729278757850E-006  1.793524647267483E-006
  8.103939858840206E-006  1.793524647267483E-006
  9.500873248236599E-006  1.793524647267483E-006
  1.709337013294914E-005  1.793524647267483E-006
  2.392573174737928E-005  1.793524647267483E-006
  2.407595149647084E-005  1.793524647267483E-006
  2.716878074512601E-005  1.793524647267483E-006
  3.866377271976126E-005  1.793524647267483E-006
  4.463112474405141E-005  1.793524647267483E-006
  4.882600568050023E-005  1.793524647267483E-006
  5.323460066170226E-005  1.793524647267483E-006
  5.770374724396242E-005  1.793524647267483E-006
  6.420015474653860E-005  1.793524647267483E-006
  6.866143666599897E-005  1.793524647267483E-006
  7.433039032095549E-005  1.793524647267483E-006
  7.559334957032332E-005  1.793524647267483E-006
  9.178802065080721E-005  1.793524647267483E-006
  9.462654339627819E-005  1.793524647267483E-006
  1.018243325526248E-004  1.793524647267483E-006
  1.071783041359402E-004  1.793524647267483E-006
  1.176245551701596E-004  1.793524647267483E-006
  1.292957677798292E-004  1.793524647267483E-006
  1.348482977132728E-004  1.793524647267483E-006
  1.624604342492530E-004  1.793524647267483E-006
  1.909110486267989E-004  1.793524647267483E-006
  1.991921156821317E-004  1.793524647267483E-006
  2.270703884834853E-004  1.793524647267483E-006
  2.683251524352387E-004  1.793524647267483E-006
  2.819415138353509E-004  1.793524647267483E-006
  2.962011153299464E-004  1.793524647267483E-006
  3.016987127400152E-004  1.793524647267483E-006
  3.577509049979734E-004  1.793524647267483E-006
  3.627389987781623E-004  1.793524647267483E-006
  3.693057229892866E-004  1.793524647267483E-006
  3.829530825991342E-004  1.793524647267483E-006
  4.193656171924094E-004  1.793524647267483E-006
  4.384832723723798E-004  1.793524647267483E-006
  5.374392083367034E-004  1.793524647267483E-006
  5.620482283613278E-004  1.793524647267483E-006
  5.837107157353652E-004  1.793524647267483E-006
  5.930467685752720E-004  1.793524647267483E-006
  5.935934584836034E-004  1.793524647267483E-006
  5.967013772064850E-004  1.793524647267483E-006
  6.038485815940071E-004  1.793524647267483E-006
  6.212962343586830E-004  1.793524647267483E-006
  6.215915336386375E-004  1.793524647267483E-006
  6.247380557839795E-004  1.793524647267483E-006
  6.324789428781789E-004  1.793524647267483E-006
  6.597536737906205E-004  1.793524647267483E-006
  1.039532030120650E-003  1.793524647267483E-006
  1.056114455079902E-003  1.793524647267483E-006
  1.081550969797007E-003  1.793524647267483E-006
  1.106500899982716E-003  1.793524647267483E-006
  1.113679491019227E-003  1.793524647267483E-006
  1.137764568827524E-003  1.793524647267483E-006
  1.141997425484188E-003  1.793524647267483E-006
  1.169265048186030E-003  1.793524647267483E-006
  1.171435057166827E-003  1.793524647267483E-006
  1.180523411718743E-003  1.793524647267483E-006
  1.317658337375456E-003  1.793524647267483E-006
  1.377160936726508E-003  1.793524647267483E-006
  1.453702664201131E-003  1.793524647267483E-006
  1.663031496269870E-003  1.793524647267483E-006
  1.882744905989597E-003  1.793524647267483E-006
  1.959298203990058E-003  1.793524647267483E-006
  2.087723091823901E-003  1.793524647267483E-006
  2.333186102843946E-003  1.793524647267483E-006
  2.666150818102109E-003  1.793524647267483E-006
  3.013470275110297E-003  1.793524647267483E-006
  3.121182116209292E-003  1.793524647267483E-006
  3.711877878842811E-003  1.793524647267483E-006
  3.733667801679636E-003  1.793524647267483E-006
  4.051170993649269E-003  1.793524647267483E-006
  4.059092153514754E-003  1.793524647267483E-006
 cut=1d-8, nber non-redundant internal coords=          75
 Check on Eigenvals of non-red overlap matrix:
  0.00000179  0.00000427  0.00000810  0.00000950  0.00001709  0.00002393  0.00002408  0.00002717
  0.00003866  0.00004463  0.00004883  0.00005323  0.00005770  0.00006420  0.00006866  0.00007433
  0.00007559  0.00009179  0.00009463  0.00010182  0.00010718  0.00011762  0.00012930  0.00013485
  0.00016246  0.00019091  0.00019919  0.00022707  0.00026833  0.00028194  0.00029620  0.00030170
  0.00035775  0.00036274  0.00036931  0.00038295  0.00041937  0.00043848  0.00053744  0.00056205
  0.00058371  0.00059305  0.00059359  0.00059670  0.00060385  0.00062130  0.00062159  0.00062474
  0.00063248  0.00065975  0.00103953  0.00105611  0.00108155  0.00110650  0.00111368  0.00113776
  0.00114200  0.00116927  0.00117144  0.00118052  0.00131766  0.00137716  0.00145370  0.00166303
  0.00188274  0.00195930  0.00208772  0.00233319  0.00266615  0.00301347  0.00312118  0.00371188
  0.00373367  0.00405117  0.00405909
 Checking for correct frequencies
 recalc frequencies=
    -0.0   -0.0   -0.0   -0.0    0.0    0.0   32.0   40.0   89.7   90.2
   127.7  178.9  197.3  226.5  263.9  273.4  355.9  393.9  406.4  428.2
   440.5  510.7  512.0  547.0  549.8  571.4  615.9  621.9  637.7  653.8
   660.9  667.8  697.3  750.8  782.5  796.2  798.5  863.4  867.2  884.7
   933.9  950.7  959.8  971.4  978.7  992.5 1005.6 1036.9 1093.6 1097.8
  1146.2 1161.5 1185.2 1199.1 1207.3 1213.0 1253.2 1315.9 1323.3 1337.7
  1367.7 1413.9 1434.8 1462.2 1470.1 1477.4 1491.2 1523.9 1545.4 1559.8
  1627.9 2976.7 2987.8 3158.9 3163.6 3175.6 3184.7 3191.9 3195.9 3212.3
  3242.6
 recalc symmetries=
                                                                       
                                                                       
                                                                       
                                                                       
                                                                       
                                                                       
                                                                       
                                                                       
        
 recalc freqs check OK
 Zero-point lengths:
 10.0000 10.0000 10.0000 10.0000 10.0000 10.0000 43.8228 39.2062 26.1755 26.1095
 21.9351 18.5341 17.6502 16.4715 15.2615 14.9925 13.1404 12.4916 12.2975 11.9801
 11.8125 10.9703 10.9566 10.5995 10.5724 10.3715  9.9895  9.9408  9.8168  9.6957
  9.6434  9.5933  9.3885  9.0478  8.8623  8.7860  8.7730  8.4369  8.4184  8.3350
  8.1123  8.0401  8.0019  7.9543  7.9245  7.8691  7.8176  7.6989  7.4966  7.4824
  7.3225  7.2741  7.2013  7.1593  7.1350  7.1183  7.0030  6.8341  6.8149  6.7782
  6.7034  6.5931  6.5448  6.4832  6.4659  6.4498  6.4200  6.3507  6.3064  6.2771
  6.1445  4.5439  4.5355  4.4109  4.4076  4.3993  4.3930  4.3881  4.3853  4.3741
  4.3536
 highest evec of mol 1
 -0.0000  0.0000  0.0000
  0.0002 -0.0001 -0.0001
 -0.0001 -0.0000  0.0000
  0.0002  0.0001 -0.0000
 -0.0002 -0.0002 -0.0000
  0.0001 -0.0001 -0.0001
  0.0001  0.0002  0.0001
 -0.0001  0.0005  0.0003
 -0.0051 -0.0041  0.0002
  0.0503 -0.0182 -0.0342
  0.1613  0.2334  0.0520
 -0.0017  0.0002  0.0009
 -0.0023 -0.0025 -0.0003
  0.0001  0.0002  0.0000
 -0.0001  0.0001  0.0001
 -0.0002 -0.0000  0.0001
  0.0001  0.0002  0.0000
 -0.0000 -0.0000  0.0000
 -0.0004  0.0002  0.0003
  0.0000  0.0001  0.0001
 -0.0001  0.0004  0.0002
  0.0003  0.0001 -0.0019
  0.0014 -0.0012  0.0005
 -0.1464  0.0236  0.0830
 -0.5514 -0.7466 -0.1495
  0.0004 -0.0002 -0.0003
 -0.0000 -0.0004 -0.0002
 generating redundant internal coords
         300        3600          27
 Adding extra bonds for z output only
           6           6           6           6           6           6
           6           6           6           6           6          16
           6           6          16           6           6           1
           1           1           1           1           1           1
           1           1           1
 search for int coords
   1 str   2   1   1.398
   2 str   3   2   1.384
   3 str   4   3   1.426
   4 str   5   4   1.423
   5 str   6   5   1.420
   6 str   7   6   1.377
   7 str   8   7   1.519
   8 str   9   8   1.517
   9 str  10   9   1.399
  10 str  11  10   1.384
  11 str  12  11   1.754
  12 str  13   9   1.419
  13 str  13  12   1.745
  14 str  14   7   1.434
  15 str  14  13   1.397
  16 str  15   5   1.807
  17 str  15  14   1.740
  18 str  16   4   1.427
  19 str  17   1   1.402
  20 str  17  16   1.381
  21 str  18   1   1.084
  22 str  19   2   1.085
  23 str  20   3   1.084
  24 str  21   6   1.081
  25 str  22   8   1.098
  26 str  23   8   1.098
  27 str  24  10   1.083
  28 str  25  11   1.079
  29 str  26  16   1.083
  30 str  27  17   1.085
 nber stretches=          30
  31 ben   1   2   3
  32 prop tor   1   2   3   4
  33 prop tor   1   2   3  20
  34 ben   1   2  19
  35 ben   1  17  16
  36 ben   1  17  27
  37 ben   2   1  17
  38 prop tor   2   1  17  16
  39 prop tor   2   1  17  27
  40 ben   2   1  18
  41 ben   2   3   4
  42 prop tor   2   3   4   5
  43 prop tor   2   3   4  16
  44 ben   2   3  20
  45 ben   3   2  19
  46 ben   3   4   5
  47 prop tor   3   4   5   6
  48 prop tor   3   4   5  15
  49 ben   3   4  16
  50 prop tor   3   4  16  17
  51 prop tor   3   4  16  26
  52 ben   4   3  20
  53 ben   4   5   6
  54 prop tor   4   5   6   7
  55 prop tor   4   5   6  21
  56 ben   4   5  15
  57 prop tor   4   5  15  14
  58 ben   4  16  17
  59 prop tor   4  16  17   1
  60 prop tor   4  16  17  27
  61 ben   4  16  26
  62 ben   5   4  16
  63 prop tor   5   4  16  17
  64 prop tor   5   4  16  26
  65 ben   5   6   7
  66 prop tor   5   6   7   8
  67 prop tor   5   6   7  14
  68 ben   5   6  21
  69 ben   5  15  14
  70 ben   6   5  15
  71 prop tor   6   5  15  14
  72 ben   6   7   8
  73 prop tor   6   7   8   9
  74 prop tor   6   7   8  22
  75 prop tor   6   7   8  23
  76 ben   6   7  14
  77 prop tor   6   7  14  13
  78 prop tor   6   7  14  15
  79 ben   7   6  21
  80 ben   7   8   9
  81 prop tor   7   8   9  10
  82 prop tor   7   8   9  13
  83 ben   7   8  22
  84 ben   7   8  23
  85 ben   7  14  13
  86 ben   7  14  15
  87 prop tor   7  14  15   5
  88 ben   8   7  14
  89 prop tor   8   7  14  13
  90 prop tor   8   7  14  15
  91 ben   8   9  10
  92 prop tor   8   9  10  11
  93 prop tor   8   9  10  24
  94 ben   8   9  13
  95 prop tor   8   9  13  12
  96 prop tor   8   9  13  14
  97 ben   9   8  22
  98 ben   9   8  23
  99 ben   9  10  11
 100 prop tor   9  10  11  12
 101 prop tor   9  10  11  25
 102 ben   9  10  24
 103 ben   9  13  12
 104 ben   9  13  14
 105 prop tor   9  13  14   7
 106 prop tor   9  13  14  15
 107 ben  10   9  13
 108 prop tor  10   9  13  12
 109 prop tor  10   9  13  14
 110 ben  10  11  12
 111 prop tor  10  11  12  13
 112 ben  10  11  25
 113 ben  11  10  24
 114 ben  11  12  13
 115 prop tor  11  12  13   9
 116 prop tor  11  12  13  14
 117 ben  12  11  25
 118 ben  12  13  14
 119 prop tor  12  13  14   7
 120 prop tor  12  13  14  15
 121 prop tor  13   9  10  11
 122 prop tor  13   9  10  24
 123 ben  13  14  15
 124 prop tor  13  14  15   5
 125 prop tor  14   7   8   9
 126 prop tor  14   7   8  22
 127 prop tor  14   7   8  23
 128 prop tor  15   5   6   7
 129 prop tor  15   5   6  21
 130 prop tor  16   4   5   6
 131 prop tor  16   4   5  15
 132 ben  16  17  27
 133 prop tor  17   1   2   3
 134 prop tor  17   1   2  19
 135 ben  17   1  18
 136 ben  17  16  26
 137 prop tor  18   1   2   3
 138 prop tor  18   1   2  19
 139 prop tor  18   1  17  16
 140 prop tor  18   1  17  27
 141 prop tor  19   2   3   4
 142 prop tor  19   2   3  20
 143 prop tor  20   3   4   5
 144 prop tor  20   3   4  16
 145 prop tor  21   6   7   8
 146 prop tor  21   6   7  14
 147 prop tor  22   8   9  10
 148 prop tor  22   8   9  13
 149 ben  22   8  23
 150 prop tor  23   8   9  10
 151 prop tor  23   8   9  13
 152 prop tor  24  10  11  12
 153 prop tor  24  10  11  25
 154 prop tor  25  11  12  13
 155 prop tor  26  16  17   1
 156 prop tor  26  16  17  27
 nber bend=              50
 nber lin bend=           0
 nber prop tor=          76
 nber impr tor=           0
 nber tot redund int=         156
 Reading file: 
 ./CDT_1_C1S0.log                                                               
                                          
  Entering Gaussian System, Link 0=g16                                          
  
 Gaussian format, type: g94, g98, g03= F F F
  #P Geom=AllCheck Guess=TCheck SCRF=Check GenChk UB3LYP/6-311G(d,p) Fre    
 energy type= B3LYP   
 Original G94 input coords:
  6 -1.476604 -1.328436  0.240446
  6 -1.410581 -0.086161  0.878499
  6 -0.272509  0.690988  0.765493
  6  0.837037  0.245505  0.007224
  6  2.026590  1.044420 -0.118441
  6  3.199598  0.750134 -0.847620
  6  4.154027  1.740346 -0.753912
  6  5.547002  1.991803 -1.285079
  6  5.855855  3.341078 -0.679042
  6  6.921077  4.245398 -0.686461
  6  6.636996  5.364961  0.076697
 16  5.067078  5.338373  0.818277
  6  4.765186  3.791733  0.098588
  6  3.741230  2.833214  0.055743
 16  2.157691  2.615773  0.697330
  6  0.749470 -1.016527 -0.631390
  6 -0.392587 -1.787800 -0.513047
  1 -2.369211 -1.935779  0.330310
  1 -2.250501  0.269901  1.461897
  1 -0.240696  1.651786  1.266113
  1  3.318060 -0.160889 -1.415941
  1  5.572465  2.015095 -2.379438
  1  6.255936  1.222202 -0.962707
  1  7.857561  4.114874 -1.210767
  1  7.275954  6.219673  0.246905
  1  1.577893 -1.391126 -1.217790
  1 -0.444607 -2.750509 -1.006306
 nber atoms=          27
  SCF Done:  E(UB3LYP) =  -1373.91536290     A.U. after    1 cycles             
  
          23          40 "  -1373.91536290"
After scan for Atom:   Atom  AN      X      Y      Z        X      Y      Z        X      Y      Z   
After scan for Atom:   Atom  AN      X      Y      Z        X      Y      Z        X      Y      Z   
After scan for Atom:   Atom  AN      X      Y      Z        X      Y      Z        X      Y      Z   
After scan for Atom:   Atom  AN      X      Y      Z        X      Y      Z        X      Y      Z   
After scan for Atom:   Atom  AN      X      Y      Z        X      Y      Z        X      Y      Z   
After scan for Atom:   Atom  AN      X      Y      Z        X      Y      Z        X      Y      Z   
After scan for Atom:   Atom  AN      X      Y      Z        X      Y      Z        X      Y      Z   
After scan for Atom:   Atom  AN      X      Y      Z        X      Y      Z        X      Y      Z   
After scan for Atom:   Atom  AN      X      Y      Z        X      Y      Z        X      Y      Z   
After scan for Atom:   Atom  AN      X      Y      Z        X      Y      Z        X      Y      Z   
After scan for Atom:   Atom  AN      X      Y      Z        X      Y      Z        X      Y      Z   
After scan for Atom:   Atom  AN      X      Y      Z        X      Y      Z        X      Y      Z   
After scan for Atom:   Atom  AN      X      Y      Z        X      Y      Z        X      Y      Z   
After scan for Atom:   Atom  AN      X      Y      Z        X      Y      Z        X      Y      Z   
After scan for Atom:   Atom  AN      X      Y      Z        X      Y      Z        X      Y      Z   
After scan for Atom:   Atom  AN      X      Y      Z        X      Y      Z        X      Y      Z   
After scan for Atom:   Atom  AN      X      Y      Z        X      Y      Z        X      Y      Z   
After scan for Atom:   Atom  AN      X      Y      Z        X      Y      Z        X      Y      Z   
After scan for Atom:   Atom  AN      X      Y      Z        X      Y      Z        X      Y      Z   
After scan for Atom:   Atom  AN      X      Y      Z        X      Y      Z        X      Y      Z   
After scan for Atom:   Atom  AN      X      Y      Z        X      Y      Z        X      Y      Z   
After scan for Atom:   Atom  AN      X      Y      Z        X      Y      Z        X      Y      Z   
After scan for Atom:   Atom  AN      X      Y      Z        X      Y      Z        X      Y      Z   
After scan for Atom:   Atom  AN      X      Y      Z        X      Y      Z        X      Y      Z   
After scan for Atom:   Atom  AN      X      Y      Z        X      Y      Z        X      Y      Z   
 g94    frequencies=
     0.0    0.0    0.0    0.0    0.0    0.0   13.4   42.5   94.3  115.3
   137.8  204.4  206.3  253.0  268.6  329.3  361.4  392.7  441.8  444.0
   465.0  519.9  550.5  571.8  586.1  600.8  622.4  645.9  654.0  675.9
   687.4  712.0  754.9  780.4  817.4  829.6  862.1  907.9  914.6  942.2
   951.9  955.7  993.7  994.6 1007.7 1024.1 1025.2 1046.0 1104.9 1112.9
  1166.7 1185.6 1198.4 1207.2 1220.2 1227.1 1280.4 1331.4 1336.0 1359.2
  1368.6 1431.6 1438.8 1461.1 1474.1 1480.7 1489.3 1524.4 1545.3 1590.8
  1624.3 3042.7 3073.5 3177.0 3187.1 3195.8 3204.0 3209.5 3219.8 3230.0
  3240.6
 g94    symmetries=
                                                 A      A      A      A
       A      A      A      A      A      A      A      A      A      A
       A      A      A      A      A      A      A      A      A      A
       A      A      A      A      A      A      A      A      A      A
       A      A      A      A      A      A      A      A      A      A
       A      A      A      A      A      A      A      A      A      A
       A      A      A      A      A      A      A      A      A      A
       A      A      A      A      A      A      A      A      A      A
       A
 atomic masses:
 12.0000 12.0000 12.0000 12.0000 12.0000 12.0000 12.0000 12.0000 12.0000 12.0000
 12.0000 31.9721 12.0000 12.0000 31.9721 12.0000 12.0000  1.0078  1.0078  1.0078
  1.0078  1.0078  1.0078  1.0078  1.0078  1.0078  1.0078
 looking for force constants in 
 ./CDT_1_C1S0.fchk                                                              
  
 Cartesian Force Constants                  R   N=        3321                  
  
 n3=          81        3321
 g94-fc frequencies=
    -1.2   -0.0   -0.0    0.0    2.1    2.7   13.5   42.5   94.3  115.3
   137.8  204.4  206.3  253.0  268.6  329.3  361.4  392.7  441.8  444.0
   465.0  520.0  550.5  571.8  586.2  600.8  622.4  645.9  654.0  675.9
   687.4  712.0  754.9  780.4  817.4  829.6  862.1  908.0  914.6  942.2
   951.9  955.8  993.7  994.6 1007.7 1024.1 1025.2 1046.0 1105.0 1112.9
  1166.8 1185.7 1198.4 1207.2 1220.2 1227.2 1280.5 1331.5 1336.1 1359.2
  1368.7 1431.6 1438.8 1461.1 1474.1 1480.8 1489.3 1524.5 1545.4 1590.8
  1624.3 3042.8 3073.6 3177.1 3187.1 3195.9 3204.0 3209.5 3219.9 3230.1
  3240.7
 at 99999: n3=          81
 symm operator            1 :  F  nop=           0
 symm operator            2 :  F  nop=           0
 symm operator            3 :  F  nop=           0
 symm operator            4 :  F  nop=           0
 symm operator            5 :  F  nop=           0
 symm operator            6 :  F  nop=           0
 symm operator            7 :  F  nop=           0
 The point group of the molecule is  C1
 Symmetry rotation matrix:
   1.00000   0.00000   0.00000
   0.00000   1.00000   0.00000
   0.00000   0.00000   1.00000

 Projecting out zero-frequency components
 generating redundant internal coords
         300        3600          27
 search for int coords
   1 str   2   1   1.398
   2 str   3   2   1.383
   3 str   4   3   1.416
   4 str   5   4   1.438
   5 str   6   5   1.412
   6 str   7   6   1.378
   7 str   8   7   1.512
   8 str   9   8   1.511
   9 str  10   9   1.397
  10 str  11  10   1.384
  11 str  12  11   1.736
  12 str  13   9   1.413
  13 str  13  12   1.732
  14 str  14   7   1.421
  15 str  14  13   1.403
  16 str  15   5   1.775
  17 str  15  14   1.722
  18 str  16   4   1.417
  19 str  17   1   1.398
  20 str  17  16   1.383
  21 str  18   1   1.083
  22 str  19   2   1.083
  23 str  20   3   1.084
  24 str  21   6   1.080
  25 str  22   8   1.095
  26 str  23   8   1.095
  27 str  24  10   1.081
  28 str  25  11   1.081
  29 str  26  16   1.082
  30 str  27  17   1.083
 nber stretches=          30
  31 ben   1   2   3
  32 prop tor   1   2   3   4
  33 prop tor   1   2   3  20
  34 ben   1   2  19
  35 ben   1  17  16
  36 ben   1  17  27
  37 ben   2   1  17
  38 prop tor   2   1  17  16
  39 prop tor   2   1  17  27
  40 ben   2   1  18
  41 ben   2   3   4
  42 prop tor   2   3   4   5
  43 prop tor   2   3   4  16
  44 ben   2   3  20
  45 ben   3   2  19
  46 ben   3   4   5
  47 prop tor   3   4   5   6
  48 prop tor   3   4   5  15
  49 ben   3   4  16
  50 prop tor   3   4  16  17
  51 prop tor   3   4  16  26
  52 ben   4   3  20
  53 ben   4   5   6
  54 prop tor   4   5   6   7
  55 prop tor   4   5   6  21
  56 ben   4   5  15
  57 prop tor   4   5  15  14
  58 ben   4  16  17
  59 prop tor   4  16  17   1
  60 prop tor   4  16  17  27
  61 ben   4  16  26
  62 ben   5   4  16
  63 prop tor   5   4  16  17
  64 prop tor   5   4  16  26
  65 ben   5   6   7
  66 prop tor   5   6   7   8
  67 prop tor   5   6   7  14
  68 ben   5   6  21
  69 ben   5  15  14
  70 ben   6   5  15
  71 prop tor   6   5  15  14
  72 ben   6   7   8
  73 prop tor   6   7   8   9
  74 prop tor   6   7   8  22
  75 prop tor   6   7   8  23
  76 ben   6   7  14
  77 prop tor   6   7  14  13
  78 prop tor   6   7  14  15
  79 ben   7   6  21
  80 ben   7   8   9
  81 prop tor   7   8   9  10
  82 prop tor   7   8   9  13
  83 ben   7   8  22
  84 ben   7   8  23
  85 ben   7  14  13
  86 ben   7  14  15
  87 prop tor   7  14  15   5
  88 ben   8   7  14
  89 prop tor   8   7  14  13
  90 prop tor   8   7  14  15
  91 ben   8   9  10
  92 prop tor   8   9  10  11
  93 prop tor   8   9  10  24
  94 ben   8   9  13
  95 prop tor   8   9  13  12
  96 prop tor   8   9  13  14
  97 ben   9   8  22
  98 ben   9   8  23
  99 ben   9  10  11
 100 prop tor   9  10  11  12
 101 prop tor   9  10  11  25
 102 ben   9  10  24
 103 ben   9  13  12
 104 ben   9  13  14
 105 prop tor   9  13  14   7
 106 prop tor   9  13  14  15
 107 ben  10   9  13
 108 prop tor  10   9  13  12
 109 prop tor  10   9  13  14
 110 ben  10  11  12
 111 prop tor  10  11  12  13
 112 ben  10  11  25
 113 ben  11  10  24
 114 ben  11  12  13
 115 prop tor  11  12  13   9
 116 prop tor  11  12  13  14
 117 ben  12  11  25
 118 ben  12  13  14
 119 prop tor  12  13  14   7
 120 prop tor  12  13  14  15
 121 prop tor  13   9  10  11
 122 prop tor  13   9  10  24
 123 ben  13  14  15
 124 prop tor  13  14  15   5
 125 prop tor  14   7   8   9
 126 prop tor  14   7   8  22
 127 prop tor  14   7   8  23
 128 prop tor  15   5   6   7
 129 prop tor  15   5   6  21
 130 prop tor  16   4   5   6
 131 prop tor  16   4   5  15
 132 ben  16  17  27
 133 prop tor  17   1   2   3
 134 prop tor  17   1   2  19
 135 ben  17   1  18
 136 ben  17  16  26
 137 prop tor  18   1   2   3
 138 prop tor  18   1   2  19
 139 prop tor  18   1  17  16
 140 prop tor  18   1  17  27
 141 prop tor  19   2   3   4
 142 prop tor  19   2   3  20
 143 prop tor  20   3   4   5
 144 prop tor  20   3   4  16
 145 prop tor  21   6   7   8
 146 prop tor  21   6   7  14
 147 prop tor  22   8   9  10
 148 prop tor  22   8   9  13
 149 ben  22   8  23
 150 prop tor  23   8   9  10
 151 prop tor  23   8   9  13
 152 prop tor  24  10  11  12
 153 prop tor  24  10  11  25
 154 prop tor  25  11  12  13
 155 prop tor  26  16  17   1
 156 prop tor  26  16  17  27
 nber bend=              50
 nber lin bend=           0
 nber prop tor=          76
 nber impr tor=           0
 nber tot redund int=         156
 Eigenvalues of G in red int coords
    Gval -0.00000000 -0.00000000 -0.00000000 -0.00000000 -0.00000000 -0.00000000 -0.00000000 -0.00000000
    Gval -0.00000000 -0.00000000 -0.00000000 -0.00000000 -0.00000000 -0.00000000 -0.00000000 -0.00000000
    Gval -0.00000000 -0.00000000 -0.00000000 -0.00000000 -0.00000000 -0.00000000 -0.00000000 -0.00000000
    Gval -0.00000000 -0.00000000 -0.00000000 -0.00000000 -0.00000000 -0.00000000 -0.00000000 -0.00000000
    Gval -0.00000000 -0.00000000 -0.00000000  0.00000000  0.00000000  0.00000000  0.00000000  0.00000000
    Gval  0.00000000  0.00000000  0.00000000  0.00000000  0.00000000  0.00000000  0.00000000  0.00000000
    Gval  0.00000000  0.00000000  0.00000000  0.00000000  0.00000000  0.00000000  0.00000000  0.00000000
    Gval  0.00000000  0.00000000  0.00000000  0.00000000  0.00000000  0.00000000  0.00000000  0.00000000
    Gval  0.00000000  0.00000000  0.00000000  0.00000000  0.00000000  0.00000000  0.00000000  0.00000000
    Gval  0.00000000  0.00000000  0.00000000  0.00000000  0.00000000  0.00000000  0.00000000  0.00000000
    Gval  0.00000000  0.00000180  0.00000427  0.00000813  0.00000960  0.00001704  0.00002387  0.00002414
    Gval  0.00002731  0.00003879  0.00004466  0.00004888  0.00005339  0.00005780  0.00006434  0.00006876
    Gval  0.00007547  0.00007597  0.00009216  0.00009483  0.00010219  0.00010714  0.00011777  0.00012985
    Gval  0.00013498  0.00016352  0.00019151  0.00020141  0.00022654  0.00027005  0.00028401  0.00030050
    Gval  0.00030238  0.00035999  0.00036508  0.00037042  0.00038439  0.00041786  0.00043681  0.00053106
    Gval  0.00056798  0.00058325  0.00059304  0.00059362  0.00059673  0.00060404  0.00062139  0.00062397
    Gval  0.00062475  0.00063225  0.00066040  0.00104180  0.00105203  0.00108124  0.00111041  0.00111589
    Gval  0.00113907  0.00114439  0.00117294  0.00117353  0.00118163  0.00132645  0.00138490  0.00145568
    Gval  0.00167134  0.00188180  0.00196435  0.00208260  0.00235251  0.00265606  0.00302814  0.00312168
    Gval  0.00373391  0.00375140  0.00406423  0.00407642
  1.803001903742979E-006  1.803001903742979E-006
  4.271958957740104E-006  1.803001903742979E-006
  8.128729350899831E-006  1.803001903742979E-006
  9.601614792123428E-006  1.803001903742979E-006
  1.703636426326350E-005  1.803001903742979E-006
  2.386563518496655E-005  1.803001903742979E-006
  2.414322918806138E-005  1.803001903742979E-006
  2.731062981870512E-005  1.803001903742979E-006
  3.879310633289200E-005  1.803001903742979E-006
  4.466375347861087E-005  1.803001903742979E-006
  4.888098486518469E-005  1.803001903742979E-006
  5.338766035719279E-005  1.803001903742979E-006
  5.780453668436815E-005  1.803001903742979E-006
  6.434461330626633E-005  1.803001903742979E-006
  6.875876381685689E-005  1.803001903742979E-006
  7.547496399726984E-005  1.803001903742979E-006
  7.597497870451434E-005  1.803001903742979E-006
  9.216216687120163E-005  1.803001903742979E-006
  9.483131625962516E-005  1.803001903742979E-006
  1.021949116102551E-004  1.803001903742979E-006
  1.071430188694918E-004  1.803001903742979E-006
  1.177709555228781E-004  1.803001903742979E-006
  1.298513034812361E-004  1.803001903742979E-006
  1.349764663435103E-004  1.803001903742979E-006
  1.635210486328149E-004  1.803001903742979E-006
  1.915076492580353E-004  1.803001903742979E-006
  2.014097260800335E-004  1.803001903742979E-006
  2.265370952158459E-004  1.803001903742979E-006
  2.700543126614516E-004  1.803001903742979E-006
  2.840101352537653E-004  1.803001903742979E-006
  3.004966317993459E-004  1.803001903742979E-006
  3.023779942159268E-004  1.803001903742979E-006
  3.599873854113245E-004  1.803001903742979E-006
  3.650804199501688E-004  1.803001903742979E-006
  3.704180336064992E-004  1.803001903742979E-006
  3.843934284099844E-004  1.803001903742979E-006
  4.178564371400981E-004  1.803001903742979E-006
  4.368143055113904E-004  1.803001903742979E-006
  5.310614214661997E-004  1.803001903742979E-006
  5.679838586545282E-004  1.803001903742979E-006
  5.832507742983533E-004  1.803001903742979E-006
  5.930434082726948E-004  1.803001903742979E-006
  5.936211595040353E-004  1.803001903742979E-006
  5.967317078973337E-004  1.803001903742979E-006
  6.040434676647934E-004  1.803001903742979E-006
  6.213878397835732E-004  1.803001903742979E-006
  6.239657689229391E-004  1.803001903742979E-006
  6.247465394536804E-004  1.803001903742979E-006
  6.322470326476679E-004  1.803001903742979E-006
  6.604017896836628E-004  1.803001903742979E-006
  1.041795518392588E-003  1.803001903742979E-006
  1.052031505889040E-003  1.803001903742979E-006
  1.081241589361087E-003  1.803001903742979E-006
  1.110412271687400E-003  1.803001903742979E-006
  1.115888011373961E-003  1.803001903742979E-006
  1.139065300382748E-003  1.803001903742979E-006
  1.144391430221663E-003  1.803001903742979E-006
  1.172938745903355E-003  1.803001903742979E-006
  1.173528934576276E-003  1.803001903742979E-006
  1.181630912724126E-003  1.803001903742979E-006
  1.326451319952903E-003  1.803001903742979E-006
  1.384898332136663E-003  1.803001903742979E-006
  1.455679141976918E-003  1.803001903742979E-006
  1.671344533383213E-003  1.803001903742979E-006
  1.881800991311933E-003  1.803001903742979E-006
  1.964350392758837E-003  1.803001903742979E-006
  2.082597694037663E-003  1.803001903742979E-006
  2.352509068821217E-003  1.803001903742979E-006
  2.656061728851034E-003  1.803001903742979E-006
  3.028141084123403E-003  1.803001903742979E-006
  3.121680649131839E-003  1.803001903742979E-006
  3.733911242693528E-003  1.803001903742979E-006
  3.751399279686193E-003  1.803001903742979E-006
  4.064234461386982E-003  1.803001903742979E-006
  4.076423795186279E-003  1.803001903742979E-006
 cut=1d-8, nber non-redundant internal coords=          75
 Check on Eigenvals of non-red overlap matrix:
  0.00000180  0.00000427  0.00000813  0.00000960  0.00001704  0.00002387  0.00002414  0.00002731
  0.00003879  0.00004466  0.00004888  0.00005339  0.00005780  0.00006434  0.00006876  0.00007547
  0.00007597  0.00009216  0.00009483  0.00010219  0.00010714  0.00011777  0.00012985  0.00013498
  0.00016352  0.00019151  0.00020141  0.00022654  0.00027005  0.00028401  0.00030050  0.00030238
  0.00035999  0.00036508  0.00037042  0.00038439  0.00041786  0.00043681  0.00053106  0.00056798
  0.00058325  0.00059304  0.00059362  0.00059673  0.00060404  0.00062139  0.00062397  0.00062475
  0.00063225  0.00066040  0.00104180  0.00105203  0.00108124  0.00111041  0.00111589  0.00113907
  0.00114439  0.00117294  0.00117353  0.00118163  0.00132645  0.00138490  0.00145568  0.00167134
  0.00188180  0.00196435  0.00208260  0.00235251  0.00265606  0.00302814  0.00312168  0.00373391
  0.00375140  0.00406423  0.00407642
 Checking for correct frequencies
 recalc frequencies=
    -0.0   -0.0    0.0    0.0    0.0    0.0   13.4   42.5   94.3  115.3
   137.8  204.4  206.3  253.0  268.6  329.3  361.4  392.7  441.8  444.0
   465.0  520.0  550.5  571.8  586.2  600.8  622.4  645.9  654.0  675.9
   687.4  712.0  754.9  780.4  817.4  829.6  862.1  908.0  914.6  942.2
   951.9  955.8  993.7  994.6 1007.7 1024.1 1025.2 1046.0 1105.0 1112.9
  1166.8 1185.7 1198.4 1207.2 1220.2 1227.2 1280.5 1331.5 1336.1 1359.2
  1368.7 1431.6 1438.8 1461.1 1474.1 1480.8 1489.3 1524.5 1545.4 1590.8
  1624.3 3042.8 3073.6 3177.1 3187.1 3195.9 3204.0 3209.5 3219.9 3230.1
  3240.7
 recalc symmetries=
                                                                       
                                                                       
                                                                       
                                                                       
                                                                       
                                                                       
                                                                       
                                                                       
        
 recalc freqs check OK
 Zero-point lengths:
 10.0000 10.0000 10.0000 10.0000 10.0000 10.0000 67.8120 38.0491 25.5249 23.0888
 21.1194 17.3419 17.2588 15.5855 15.1278 13.6607 13.0401 12.5101 11.7949 11.7656
 11.4964 10.8721 10.5660 10.3675 10.2398 10.1139  9.9373  9.7549  9.6943  9.5356
  9.4553  9.2910  9.0232  8.8745  8.6710  8.6073  8.4433  8.2274  8.1975  8.0765
  8.0351  8.0190  7.8643  7.8608  7.8097  7.7469  7.7428  7.6653  7.4580  7.4313
  7.2578  7.1997  7.1612  7.1351  7.0971  7.0769  6.9281  6.7941  6.7824  6.7243
  6.7011  6.5521  6.5357  6.4857  6.4570  6.4425  6.4239  6.3495  6.3064  6.2157
  6.1512  4.4943  4.4717  4.3983  4.3913  4.3853  4.3797  4.3760  4.3690  4.3620
  4.3549
 highest evec of mol 2
 -0.0000 -0.0000 -0.0000
 -0.0002  0.0002  0.0002
 -0.0001  0.0001  0.0001
  0.0001  0.0000 -0.0000
 -0.0001  0.0001  0.0001
  0.0001 -0.0010 -0.0006
  0.0001 -0.0002 -0.0001
 -0.0003 -0.0001  0.0001
  0.0066  0.0053 -0.0002
 -0.0957  0.0244  0.0597
 -0.1546 -0.2236 -0.0506
  0.0022 -0.0001 -0.0011
  0.0034  0.0027 -0.0001
 -0.0005 -0.0000  0.0002
 -0.0000 -0.0000  0.0000
  0.0004 -0.0002 -0.0003
  0.0000 -0.0003 -0.0002
  0.0001  0.0001 -0.0000
  0.0006 -0.0003 -0.0004
 -0.0000 -0.0004 -0.0002
 -0.0003  0.0031  0.0019
 -0.0002 -0.0004 -0.0003
 -0.0001 -0.0005 -0.0000
  0.2956 -0.0436 -0.1668
  0.5244  0.7056  0.1420
 -0.0012  0.0005  0.0009
  0.0001  0.0009  0.0004
 Enter nber and list of atoms to keep of mol #2
 keep list:          27           1           2           3           4
           5           6           7           8           9          10
          11          12          13          14          15          16
          17          18          19          20          21          22
          23          24          25          26          27
 reordering atoms
           1  -5.61517878639861     
           2  -4.78378904216044     
           3  -3.40974411425983     
           4  -2.82555638844190     
           5  -1.39775710151204     
           6 -0.668871131216463     
           7  0.695867856778605     
           8   1.93856587408978     
           9   3.02583167909457     
          10   4.42295401840304     
          11   4.90427372149259     
          12   3.66489158790626     
          13   2.45919118366741     
          14   1.06019693521053     
          15 -0.309564660576730     
          16  -3.68612524152657     
          17  -5.05958841267605     
          18  -6.69149082385788     
          19  -5.21417890070149     
          20  -2.78169149499734     
          21  -1.14828715855264     
          22   1.99016458407684     
          23   1.99060820462559     
          24   5.07040645107918     
          25   5.93827869258548     
          26  -3.27635090174880     
          27  -5.70455758796874     
           1           1
           2           2
           3           3
           4           4
           5           5
           6           6
           7           7
           8           8
           9           9
          10          10
          11          11
          12          12
          13          13
          14          14
          15          15
          16          16
          17          17
          18          18
          19          19
          20          20
          21          21
          22          22
          23          23
          24          24
          25          25
          26          26
          27          27
 initial cartes coords mol 1
   6  -0.00032  -0.21789  -5.63676
   6  -0.00154  -1.32886  -4.78764
   6  -0.00132  -1.16821  -3.41336
   6   0.00012   0.13019  -2.82302
   6   0.00031   0.30874  -1.41154
   6  -0.00009   1.51558  -0.66264
   6  -0.00024   1.31484   0.69960
   6  -0.00101   2.17842   1.94918
   6  -0.00072   1.12240   3.03775
   6  -0.00050   1.08606   4.43619
   6   0.00012  -0.20537   4.93342
  16   0.00051  -1.42625   3.67358
   6  -0.00023  -0.17334   2.45860
   6   0.00011  -0.07213   1.06572
  16   0.00056  -1.12870  -0.31624
   6   0.00133   1.24753  -3.71055
   6   0.00113   1.06931  -5.08007
   1  -0.00049  -0.34943  -6.71240
   1  -0.00272  -2.32914  -5.20688
   1  -0.00252  -2.04556  -2.77633
   1  -0.00044   2.48523  -1.14052
   1  -0.88130   2.83322   2.00016
   1   0.87839   2.83435   2.00070
   1  -0.00081   1.95499   5.08199
   1   0.00027  -0.52013   5.96570
   1   0.00261   2.25268  -3.30721
   1   0.00213   1.93750  -5.73025
 initial cartes coords mol 2
   6  -0.00005  -0.20461  -5.61518
   6  -0.01538  -1.32856  -4.78379
   6  -0.01557  -1.17384  -3.40974
   6  -0.00059   0.11574  -2.82556
   6  -0.00089   0.29033  -1.39776
   6  -0.00561   1.49986  -0.66887
   6  -0.00507   1.30564   0.69587
   6  -0.00933   2.16670   1.93857
   6  -0.00477   1.11739   3.02583
   6  -0.00472   1.09297   4.42295
   6   0.00087  -0.20505   4.90427
  16   0.00615  -1.42127   3.66489
   6   0.00084  -0.17730   2.45919
   6   0.00037  -0.06824   1.06020
  16   0.00508  -1.11239  -0.30956
   6   0.01482   1.24153  -3.68613
   6   0.01516   1.07795  -5.05959
   1   0.00012  -0.32806  -6.69149
   1  -0.02757  -2.32215  -5.21418
   1  -0.02909  -2.05709  -2.78169
   1  -0.01107   2.46791  -1.14829
   1  -0.89313   2.81094   1.99016
   1   0.86836   2.81919   1.99061
   1  -0.00851   1.95883   5.07041
   1   0.00217  -0.51906   5.93828
   1   0.02845   2.24272  -3.27635
   1   0.02769   1.94782  -5.70456
 loop 1 0
 mod cartes coords mol 2
   6  -0.00005  -0.20461  -5.61518
   6  -0.01538  -1.32856  -4.78379
   6  -0.01557  -1.17384  -3.40974
   6  -0.00059   0.11574  -2.82556
   6  -0.00089   0.29033  -1.39776
   6  -0.00561   1.49986  -0.66887
   6  -0.00507   1.30564   0.69587
   6  -0.00933   2.16670   1.93857
   6  -0.00477   1.11739   3.02583
   6  -0.00472   1.09297   4.42295
   6   0.00087  -0.20505   4.90427
  16   0.00615  -1.42127   3.66489
   6   0.00084  -0.17730   2.45919
   6   0.00037  -0.06824   1.06020
  16   0.00508  -1.11239  -0.30956
   6   0.01482   1.24153  -3.68613
   6   0.01516   1.07795  -5.05959
   1   0.00012  -0.32806  -6.69149
   1  -0.02757  -2.32215  -5.21418
   1  -0.02909  -2.05709  -2.78169
   1  -0.01107   2.46791  -1.14829
   1  -0.89313   2.81094   1.99016
   1   0.86836   2.81919   1.99061
   1  -0.00851   1.95883   5.07041
   1   0.00217  -0.51906   5.93828
   1   0.02845   2.24272  -3.27635
   1   0.02769   1.94782  -5.70456
 read in order, maxerr=  0.04 for atom  26
 final axis swaps:           1           1           1
 final xyz swap pattern=           1
 reorder list:
   1   2   3   4   5   6   7   8   9  10  11  12  13  14  15  16  17  18  19  20
  21  22  23  24  25  26  27
 axis signs=           1           1           1
  6    -0.000046 -0.204608 -5.615179    -0.000318 -0.217891 -5.636761
  6    -0.015378 -1.328563 -4.783789    -0.001542 -1.328860 -4.787638
  6    -0.015572 -1.173839 -3.409744    -0.001321 -1.168211 -3.413359
  6    -0.000588  0.115742 -2.825556     0.000121  0.130186 -2.823018
  6    -0.000893  0.290334 -1.397757     0.000309  0.308744 -1.411536
  6    -0.005608  1.499861 -0.668871    -0.000086  1.515579 -0.662637
  6    -0.005069  1.305637  0.695868    -0.000237  1.314844  0.699599
  6    -0.009327  2.166702  1.938566    -0.001013  2.178418  1.949178
  6    -0.004767  1.117394  3.025832    -0.000722  1.122403  3.037746
  6    -0.004716  1.092965  4.422954    -0.000503  1.086056  4.436194
  6     0.000869 -0.205046  4.904274     0.000118 -0.205372  4.933417
 16     0.006147 -1.421268  3.664892     0.000506 -1.426250  3.673583
  6     0.000836 -0.177304  2.459191    -0.000234 -0.173338  2.458605
  6     0.000370 -0.068240  1.060197     0.000110 -0.072130  1.065720
 16     0.005076 -1.112386 -0.309565     0.000565 -1.128705 -0.316238
  6     0.014825  1.241532 -3.686125     0.001329  1.247531 -3.710546
  6     0.015162  1.077947 -5.059588     0.001133  1.069307 -5.080071
  1     0.000123 -0.328061 -6.691491    -0.000489 -0.349433 -6.712401
  1    -0.027565 -2.322150 -5.214179    -0.002718 -2.329138 -5.206876
  1    -0.029089 -2.057091 -2.781691    -0.002524 -2.045556 -2.776326
  1    -0.011074  2.467908 -1.148287    -0.000442  2.485228 -1.140520
  1    -0.893132  2.810937  1.990165    -0.881304  2.833221  2.000155
  1     0.868365  2.819193  1.990608     0.878395  2.834349  2.000700
  1    -0.008511  1.958833  5.070406    -0.000806  1.954986  5.081990
  1     0.002167 -0.519057  5.938279     0.000268 -0.520133  5.965696
  1     0.028451  2.242718 -3.276351     0.002611  2.252679 -3.307207
  1     0.027686  1.947819 -5.704558     0.002126  1.937496 -5.730246
 generating redundant internal coords
         300        3600          27
 Adding extra bonds for z output only
           6           6           6           6           6           6
           6           6           6           6           6          16
           6           6          16           6           6           1
           1           1           1           1           1           1
           1           1           1
 search for int coords
   1 str   2   1   1.398
   2 str   3   2   1.383
   3 str   4   3   1.416
   4 str   5   4   1.438
   5 str   6   5   1.412
   6 str   7   6   1.378
   7 str   8   7   1.512
   8 str   9   8   1.511
   9 str  10   9   1.397
  10 str  11  10   1.384
  11 str  12  11   1.736
  12 str  13   9   1.413
  13 str  13  12   1.732
  14 str  14   7   1.421
  15 str  14  13   1.403
  16 str  15   5   1.775
  17 str  15  14   1.722
  18 str  16   4   1.417
  19 str  17   1   1.398
  20 str  17  16   1.383
  21 str  18   1   1.083
  22 str  19   2   1.083
  23 str  20   3   1.084
  24 str  21   6   1.080
  25 str  22   8   1.095
  26 str  23   8   1.095
  27 str  24  10   1.081
  28 str  25  11   1.081
  29 str  26  16   1.082
  30 str  27  17   1.083
 nber stretches=          30
  31 ben   1   2   3
  32 prop tor   1   2   3   4
  33 prop tor   1   2   3  20
  34 ben   1   2  19
  35 ben   1  17  16
  36 ben   1  17  27
  37 ben   2   1  17
  38 prop tor   2   1  17  16
  39 prop tor   2   1  17  27
  40 ben   2   1  18
  41 ben   2   3   4
  42 prop tor   2   3   4   5
  43 prop tor   2   3   4  16
  44 ben   2   3  20
  45 ben   3   2  19
  46 ben   3   4   5
  47 prop tor   3   4   5   6
  48 prop tor   3   4   5  15
  49 ben   3   4  16
  50 prop tor   3   4  16  17
  51 prop tor   3   4  16  26
  52 ben   4   3  20
  53 ben   4   5   6
  54 prop tor   4   5   6   7
  55 prop tor   4   5   6  21
  56 ben   4   5  15
  57 prop tor   4   5  15  14
  58 ben   4  16  17
  59 prop tor   4  16  17   1
  60 prop tor   4  16  17  27
  61 ben   4  16  26
  62 ben   5   4  16
  63 prop tor   5   4  16  17
  64 prop tor   5   4  16  26
  65 ben   5   6   7
  66 prop tor   5   6   7   8
  67 prop tor   5   6   7  14
  68 ben   5   6  21
  69 ben   5  15  14
  70 ben   6   5  15
  71 prop tor   6   5  15  14
  72 ben   6   7   8
  73 prop tor   6   7   8   9
  74 prop tor   6   7   8  22
  75 prop tor   6   7   8  23
  76 ben   6   7  14
  77 prop tor   6   7  14  13
  78 prop tor   6   7  14  15
  79 ben   7   6  21
  80 ben   7   8   9
  81 prop tor   7   8   9  10
  82 prop tor   7   8   9  13
  83 ben   7   8  22
  84 ben   7   8  23
  85 ben   7  14  13
  86 ben   7  14  15
  87 prop tor   7  14  15   5
  88 ben   8   7  14
  89 prop tor   8   7  14  13
  90 prop tor   8   7  14  15
  91 ben   8   9  10
  92 prop tor   8   9  10  11
  93 prop tor   8   9  10  24
  94 ben   8   9  13
  95 prop tor   8   9  13  12
  96 prop tor   8   9  13  14
  97 ben   9   8  22
  98 ben   9   8  23
  99 ben   9  10  11
 100 prop tor   9  10  11  12
 101 prop tor   9  10  11  25
 102 ben   9  10  24
 103 ben   9  13  12
 104 ben   9  13  14
 105 prop tor   9  13  14   7
 106 prop tor   9  13  14  15
 107 ben  10   9  13
 108 prop tor  10   9  13  12
 109 prop tor  10   9  13  14
 110 ben  10  11  12
 111 prop tor  10  11  12  13
 112 ben  10  11  25
 113 ben  11  10  24
 114 ben  11  12  13
 115 prop tor  11  12  13   9
 116 prop tor  11  12  13  14
 117 ben  12  11  25
 118 ben  12  13  14
 119 prop tor  12  13  14   7
 120 prop tor  12  13  14  15
 121 prop tor  13   9  10  11
 122 prop tor  13   9  10  24
 123 ben  13  14  15
 124 prop tor  13  14  15   5
 125 prop tor  14   7   8   9
 126 prop tor  14   7   8  22
 127 prop tor  14   7   8  23
 128 prop tor  15   5   6   7
 129 prop tor  15   5   6  21
 130 prop tor  16   4   5   6
 131 prop tor  16   4   5  15
 132 ben  16  17  27
 133 prop tor  17   1   2   3
 134 prop tor  17   1   2  19
 135 ben  17   1  18
 136 ben  17  16  26
 137 prop tor  18   1   2   3
 138 prop tor  18   1   2  19
 139 prop tor  18   1  17  16
 140 prop tor  18   1  17  27
 141 prop tor  19   2   3   4
 142 prop tor  19   2   3  20
 143 prop tor  20   3   4   5
 144 prop tor  20   3   4  16
 145 prop tor  21   6   7   8
 146 prop tor  21   6   7  14
 147 prop tor  22   8   9  10
 148 prop tor  22   8   9  13
 149 ben  22   8  23
 150 prop tor  23   8   9  10
 151 prop tor  23   8   9  13
 152 prop tor  24  10  11  12
 153 prop tor  24  10  11  25
 154 prop tor  25  11  12  13
 155 prop tor  26  16  17   1
 156 prop tor  26  16  17  27
 nber bend=              50
 nber lin bend=           0
 nber prop tor=          76
 nber impr tor=           0
 nber tot redund int=         156
 generating redundant internal coords
         300        3600          27
 search for int coords
   1 str   2   1   1.398
   2 str   3   2   1.384
   3 str   4   3   1.426
   4 str   5   4   1.423
   5 str   6   5   1.420
   6 str   7   6   1.377
   7 str   8   7   1.519
   8 str   9   8   1.517
   9 str  10   9   1.399
  10 str  11  10   1.384
  11 str  12  11   1.754
  12 str  13   9   1.419
  13 str  13  12   1.745
  14 str  14   7   1.434
  15 str  14  13   1.397
  16 str  15   5   1.807
  17 str  15  14   1.740
  18 str  16   4   1.427
  19 str  17   1   1.402
  20 str  17  16   1.381
  21 str  18   1   1.084
  22 str  19   2   1.085
  23 str  20   3   1.084
  24 str  21   6   1.081
  25 str  22   8   1.098
  26 str  23   8   1.098
  27 str  24  10   1.083
  28 str  25  11   1.079
  29 str  26  16   1.083
  30 str  27  17   1.085
 nber stretches=          30
  31 ben   1   2   3
  32 prop tor   1   2   3   4
  33 prop tor   1   2   3  20
  34 ben   1   2  19
  35 ben   1  17  16
  36 ben   1  17  27
  37 ben   2   1  17
  38 prop tor   2   1  17  16
  39 prop tor   2   1  17  27
  40 ben   2   1  18
  41 ben   2   3   4
  42 prop tor   2   3   4   5
  43 prop tor   2   3   4  16
  44 ben   2   3  20
  45 ben   3   2  19
  46 ben   3   4   5
  47 prop tor   3   4   5   6
  48 prop tor   3   4   5  15
  49 ben   3   4  16
  50 prop tor   3   4  16  17
  51 prop tor   3   4  16  26
  52 ben   4   3  20
  53 ben   4   5   6
  54 prop tor   4   5   6   7
  55 prop tor   4   5   6  21
  56 ben   4   5  15
  57 prop tor   4   5  15  14
  58 ben   4  16  17
  59 prop tor   4  16  17   1
  60 prop tor   4  16  17  27
  61 ben   4  16  26
  62 ben   5   4  16
  63 prop tor   5   4  16  17
  64 prop tor   5   4  16  26
  65 ben   5   6   7
  66 prop tor   5   6   7   8
  67 prop tor   5   6   7  14
  68 ben   5   6  21
  69 ben   5  15  14
  70 ben   6   5  15
  71 prop tor   6   5  15  14
  72 ben   6   7   8
  73 prop tor   6   7   8   9
  74 prop tor   6   7   8  22
  75 prop tor   6   7   8  23
  76 ben   6   7  14
  77 prop tor   6   7  14  13
  78 prop tor   6   7  14  15
  79 ben   7   6  21
  80 ben   7   8   9
  81 prop tor   7   8   9  10
  82 prop tor   7   8   9  13
  83 ben   7   8  22
  84 ben   7   8  23
  85 ben   7  14  13
  86 ben   7  14  15
  87 prop tor   7  14  15   5
  88 ben   8   7  14
  89 prop tor   8   7  14  13
  90 prop tor   8   7  14  15
  91 ben   8   9  10
  92 prop tor   8   9  10  11
  93 prop tor   8   9  10  24
  94 ben   8   9  13
  95 prop tor   8   9  13  12
  96 prop tor   8   9  13  14
  97 ben   9   8  22
  98 ben   9   8  23
  99 ben   9  10  11
 100 prop tor   9  10  11  12
 101 prop tor   9  10  11  25
 102 ben   9  10  24
 103 ben   9  13  12
 104 ben   9  13  14
 105 prop tor   9  13  14   7
 106 prop tor   9  13  14  15
 107 ben  10   9  13
 108 prop tor  10   9  13  12
 109 prop tor  10   9  13  14
 110 ben  10  11  12
 111 prop tor  10  11  12  13
 112 ben  10  11  25
 113 ben  11  10  24
 114 ben  11  12  13
 115 prop tor  11  12  13   9
 116 prop tor  11  12  13  14
 117 ben  12  11  25
 118 ben  12  13  14
 119 prop tor  12  13  14   7
 120 prop tor  12  13  14  15
 121 prop tor  13   9  10  11
 122 prop tor  13   9  10  24
 123 ben  13  14  15
 124 prop tor  13  14  15   5
 125 prop tor  14   7   8   9
 126 prop tor  14   7   8  22
 127 prop tor  14   7   8  23
 128 prop tor  15   5   6   7
 129 prop tor  15   5   6  21
 130 prop tor  16   4   5   6
 131 prop tor  16   4   5  15
 132 ben  16  17  27
 133 prop tor  17   1   2   3
 134 prop tor  17   1   2  19
 135 ben  17   1  18
 136 ben  17  16  26
 137 prop tor  18   1   2   3
 138 prop tor  18   1   2  19
 139 prop tor  18   1  17  16
 140 prop tor  18   1  17  27
 141 prop tor  19   2   3   4
 142 prop tor  19   2   3  20
 143 prop tor  20   3   4   5
 144 prop tor  20   3   4  16
 145 prop tor  21   6   7   8
 146 prop tor  21   6   7  14
 147 prop tor  22   8   9  10
 148 prop tor  22   8   9  13
 149 ben  22   8  23
 150 prop tor  23   8   9  10
 151 prop tor  23   8   9  13
 152 prop tor  24  10  11  12
 153 prop tor  24  10  11  25
 154 prop tor  25  11  12  13
 155 prop tor  26  16  17   1
 156 prop tor  26  16  17  27
 nber bend=              50
 nber lin bend=           0
 nber prop tor=          76
 nber impr tor=           0
 nber tot redund int=         156
 Eigenvalues of G in red int coords
    Gval -0.00000000 -0.00000000 -0.00000000 -0.00000000 -0.00000000 -0.00000000 -0.00000000 -0.00000000
    Gval -0.00000000 -0.00000000 -0.00000000 -0.00000000 -0.00000000 -0.00000000 -0.00000000 -0.00000000
    Gval -0.00000000 -0.00000000 -0.00000000 -0.00000000 -0.00000000 -0.00000000 -0.00000000 -0.00000000
    Gval -0.00000000 -0.00000000 -0.00000000 -0.00000000 -0.00000000 -0.00000000 -0.00000000 -0.00000000
    Gval -0.00000000 -0.00000000 -0.00000000 -0.00000000 -0.00000000  0.00000000  0.00000000  0.00000000
    Gval  0.00000000  0.00000000  0.00000000  0.00000000  0.00000000  0.00000000  0.00000000  0.00000000
    Gval  0.00000000  0.00000000  0.00000000  0.00000000  0.00000000  0.00000000  0.00000000  0.00000000
    Gval  0.00000000  0.00000000  0.00000000  0.00000000  0.00000000  0.00000000  0.00000000  0.00000000
    Gval  0.00000000  0.00000000  0.00000000  0.00000000  0.00000000  0.00000000  0.00000000  0.00000000
    Gval  0.00000000  0.00000000  0.00000000  0.00000000  0.00000000  0.00000000  0.00000000  0.00000000
    Gval  0.00000000  0.00000179  0.00000427  0.00000810  0.00000950  0.00001709  0.00002393  0.00002408
    Gval  0.00002717  0.00003866  0.00004463  0.00004883  0.00005323  0.00005770  0.00006420  0.00006866
    Gval  0.00007433  0.00007559  0.00009179  0.00009463  0.00010182  0.00010718  0.00011762  0.00012930
    Gval  0.00013485  0.00016246  0.00019091  0.00019919  0.00022707  0.00026833  0.00028194  0.00029620
    Gval  0.00030170  0.00035775  0.00036274  0.00036931  0.00038295  0.00041937  0.00043848  0.00053744
    Gval  0.00056205  0.00058371  0.00059305  0.00059359  0.00059670  0.00060385  0.00062130  0.00062159
    Gval  0.00062474  0.00063248  0.00065975  0.00103953  0.00105611  0.00108155  0.00110650  0.00111368
    Gval  0.00113776  0.00114200  0.00116927  0.00117144  0.00118052  0.00131766  0.00137716  0.00145370
    Gval  0.00166303  0.00188274  0.00195930  0.00208772  0.00233319  0.00266615  0.00301347  0.00312118
    Gval  0.00371188  0.00373367  0.00405117  0.00405909
  1.793524647267471E-006  1.793524647267471E-006
  4.268729278757888E-006  1.793524647267471E-006
  8.103939858840807E-006  1.793524647267471E-006
  9.500873248236975E-006  1.793524647267471E-006
  1.709337013294928E-005  1.793524647267471E-006
  2.392573174737946E-005  1.793524647267471E-006
  2.407595149647082E-005  1.793524647267471E-006
  2.716878074512614E-005  1.793524647267471E-006
  3.866377271976126E-005  1.793524647267471E-006
  4.463112474405139E-005  1.793524647267471E-006
  4.882600568050030E-005  1.793524647267471E-006
  5.323460066170229E-005  1.793524647267471E-006
  5.770374724396242E-005  1.793524647267471E-006
  6.420015474653868E-005  1.793524647267471E-006
  6.866143666599901E-005  1.793524647267471E-006
  7.433039032095553E-005  1.793524647267471E-006
  7.559334957032403E-005  1.793524647267471E-006
  9.178802065080722E-005  1.793524647267471E-006
  9.462654339627821E-005  1.793524647267471E-006
  1.018243325526247E-004  1.793524647267471E-006
  1.071783041359403E-004  1.793524647267471E-006
  1.176245551701596E-004  1.793524647267471E-006
  1.292957677798292E-004  1.793524647267471E-006
  1.348482977132726E-004  1.793524647267471E-006
  1.624604342492536E-004  1.793524647267471E-006
  1.909110486267998E-004  1.793524647267471E-006
  1.991921156821317E-004  1.793524647267471E-006
  2.270703884834859E-004  1.793524647267471E-006
  2.683251524352392E-004  1.793524647267471E-006
  2.819415138353515E-004  1.793524647267471E-006
  2.962011153299475E-004  1.793524647267471E-006
  3.016987127400158E-004  1.793524647267471E-006
  3.577509049979742E-004  1.793524647267471E-006
  3.627389987781627E-004  1.793524647267471E-006
  3.693057229892875E-004  1.793524647267471E-006
  3.829530825991357E-004  1.793524647267471E-006
  4.193656171924109E-004  1.793524647267471E-006
  4.384832723723818E-004  1.793524647267471E-006
  5.374392083367032E-004  1.793524647267471E-006
  5.620482283613277E-004  1.793524647267471E-006
  5.837107157353654E-004  1.793524647267471E-006
  5.930467685752726E-004  1.793524647267471E-006
  5.935934584836037E-004  1.793524647267471E-006
  5.967013772064857E-004  1.793524647267471E-006
  6.038485815940068E-004  1.793524647267471E-006
  6.212962343586829E-004  1.793524647267471E-006
  6.215915336386366E-004  1.793524647267471E-006
  6.247380557839792E-004  1.793524647267471E-006
  6.324789428781782E-004  1.793524647267471E-006
  6.597536737906198E-004  1.793524647267471E-006
  1.039532030120649E-003  1.793524647267471E-006
  1.056114455079901E-003  1.793524647267471E-006
  1.081550969797003E-003  1.793524647267471E-006
  1.106500899982713E-003  1.793524647267471E-006
  1.113679491019224E-003  1.793524647267471E-006
  1.137764568827524E-003  1.793524647267471E-006
  1.141997425484187E-003  1.793524647267471E-006
  1.169265048186031E-003  1.793524647267471E-006
  1.171435057166827E-003  1.793524647267471E-006
  1.180523411718739E-003  1.793524647267471E-006
  1.317658337375454E-003  1.793524647267471E-006
  1.377160936726508E-003  1.793524647267471E-006
  1.453702664201128E-003  1.793524647267471E-006
  1.663031496269870E-003  1.793524647267471E-006
  1.882744905989591E-003  1.793524647267471E-006
  1.959298203990058E-003  1.793524647267471E-006
  2.087723091823898E-003  1.793524647267471E-006
  2.333186102843943E-003  1.793524647267471E-006
  2.666150818102114E-003  1.793524647267471E-006
  3.013470275110296E-003  1.793524647267471E-006
  3.121182116209298E-003  1.793524647267471E-006
  3.711877878842816E-003  1.793524647267471E-006
  3.733667801679642E-003  1.793524647267471E-006
  4.051170993649279E-003  1.793524647267471E-006
  4.059092153514760E-003  1.793524647267471E-006
 cut=1d-8, nber non-redundant internal coords=          75
 Check on Eigenvals of non-red overlap matrix:
  0.00000179  0.00000427  0.00000810  0.00000950  0.00001709  0.00002393  0.00002408  0.00002717
  0.00003866  0.00004463  0.00004883  0.00005323  0.00005770  0.00006420  0.00006866  0.00007433
  0.00007559  0.00009179  0.00009463  0.00010182  0.00010718  0.00011762  0.00012930  0.00013485
  0.00016246  0.00019091  0.00019919  0.00022707  0.00026833  0.00028194  0.00029620  0.00030170
  0.00035775  0.00036274  0.00036931  0.00038295  0.00041937  0.00043848  0.00053744  0.00056205
  0.00058371  0.00059305  0.00059359  0.00059670  0.00060385  0.00062130  0.00062159  0.00062474
  0.00063248  0.00065975  0.00103953  0.00105611  0.00108155  0.00110650  0.00111368  0.00113776
  0.00114200  0.00116927  0.00117144  0.00118052  0.00131766  0.00137716  0.00145370  0.00166303
  0.00188274  0.00195930  0.00208772  0.00233319  0.00266615  0.00301347  0.00312118  0.00371188
  0.00373367  0.00405117  0.00405909
 generating redundant internal coords
         300        3600          27
 search for int coords
   1 str   2   1   1.398
   2 str   3   2   1.383
   3 str   4   3   1.416
   4 str   5   4   1.438
   5 str   6   5   1.412
   6 str   7   6   1.378
   7 str   8   7   1.512
   8 str   9   8   1.511
   9 str  10   9   1.397
  10 str  11  10   1.384
  11 str  12  11   1.736
  12 str  13   9   1.413
  13 str  13  12   1.732
  14 str  14   7   1.421
  15 str  14  13   1.403
  16 str  15   5   1.775
  17 str  15  14   1.722
  18 str  16   4   1.417
  19 str  17   1   1.398
  20 str  17  16   1.383
  21 str  18   1   1.083
  22 str  19   2   1.083
  23 str  20   3   1.084
  24 str  21   6   1.080
  25 str  22   8   1.095
  26 str  23   8   1.095
  27 str  24  10   1.081
  28 str  25  11   1.081
  29 str  26  16   1.082
  30 str  27  17   1.083
 nber stretches=          30
  31 ben   1   2   3
  32 prop tor   1   2   3   4
  33 prop tor   1   2   3  20
  34 ben   1   2  19
  35 ben   1  17  16
  36 ben   1  17  27
  37 ben   2   1  17
  38 prop tor   2   1  17  16
  39 prop tor   2   1  17  27
  40 ben   2   1  18
  41 ben   2   3   4
  42 prop tor   2   3   4   5
  43 prop tor   2   3   4  16
  44 ben   2   3  20
  45 ben   3   2  19
  46 ben   3   4   5
  47 prop tor   3   4   5   6
  48 prop tor   3   4   5  15
  49 ben   3   4  16
  50 prop tor   3   4  16  17
  51 prop tor   3   4  16  26
  52 ben   4   3  20
  53 ben   4   5   6
  54 prop tor   4   5   6   7
  55 prop tor   4   5   6  21
  56 ben   4   5  15
  57 prop tor   4   5  15  14
  58 ben   4  16  17
  59 prop tor   4  16  17   1
  60 prop tor   4  16  17  27
  61 ben   4  16  26
  62 ben   5   4  16
  63 prop tor   5   4  16  17
  64 prop tor   5   4  16  26
  65 ben   5   6   7
  66 prop tor   5   6   7   8
  67 prop tor   5   6   7  14
  68 ben   5   6  21
  69 ben   5  15  14
  70 ben   6   5  15
  71 prop tor   6   5  15  14
  72 ben   6   7   8
  73 prop tor   6   7   8   9
  74 prop tor   6   7   8  22
  75 prop tor   6   7   8  23
  76 ben   6   7  14
  77 prop tor   6   7  14  13
  78 prop tor   6   7  14  15
  79 ben   7   6  21
  80 ben   7   8   9
  81 prop tor   7   8   9  10
  82 prop tor   7   8   9  13
  83 ben   7   8  22
  84 ben   7   8  23
  85 ben   7  14  13
  86 ben   7  14  15
  87 prop tor   7  14  15   5
  88 ben   8   7  14
  89 prop tor   8   7  14  13
  90 prop tor   8   7  14  15
  91 ben   8   9  10
  92 prop tor   8   9  10  11
  93 prop tor   8   9  10  24
  94 ben   8   9  13
  95 prop tor   8   9  13  12
  96 prop tor   8   9  13  14
  97 ben   9   8  22
  98 ben   9   8  23
  99 ben   9  10  11
 100 prop tor   9  10  11  12
 101 prop tor   9  10  11  25
 102 ben   9  10  24
 103 ben   9  13  12
 104 ben   9  13  14
 105 prop tor   9  13  14   7
 106 prop tor   9  13  14  15
 107 ben  10   9  13
 108 prop tor  10   9  13  12
 109 prop tor  10   9  13  14
 110 ben  10  11  12
 111 prop tor  10  11  12  13
 112 ben  10  11  25
 113 ben  11  10  24
 114 ben  11  12  13
 115 prop tor  11  12  13   9
 116 prop tor  11  12  13  14
 117 ben  12  11  25
 118 ben  12  13  14
 119 prop tor  12  13  14   7
 120 prop tor  12  13  14  15
 121 prop tor  13   9  10  11
 122 prop tor  13   9  10  24
 123 ben  13  14  15
 124 prop tor  13  14  15   5
 125 prop tor  14   7   8   9
 126 prop tor  14   7   8  22
 127 prop tor  14   7   8  23
 128 prop tor  15   5   6   7
 129 prop tor  15   5   6  21
 130 prop tor  16   4   5   6
 131 prop tor  16   4   5  15
 132 ben  16  17  27
 133 prop tor  17   1   2   3
 134 prop tor  17   1   2  19
 135 ben  17   1  18
 136 ben  17  16  26
 137 prop tor  18   1   2   3
 138 prop tor  18   1   2  19
 139 prop tor  18   1  17  16
 140 prop tor  18   1  17  27
 141 prop tor  19   2   3   4
 142 prop tor  19   2   3  20
 143 prop tor  20   3   4   5
 144 prop tor  20   3   4  16
 145 prop tor  21   6   7   8
 146 prop tor  21   6   7  14
 147 prop tor  22   8   9  10
 148 prop tor  22   8   9  13
 149 ben  22   8  23
 150 prop tor  23   8   9  10
 151 prop tor  23   8   9  13
 152 prop tor  24  10  11  12
 153 prop tor  24  10  11  25
 154 prop tor  25  11  12  13
 155 prop tor  26  16  17   1
 156 prop tor  26  16  17  27
 nber bend=              50
 nber lin bend=           0
 nber prop tor=          76
 nber impr tor=           0
 nber tot redund int=         156
 Eigenvalues of G in red int coords
    Gval -0.00000000 -0.00000000 -0.00000000 -0.00000000 -0.00000000 -0.00000000 -0.00000000 -0.00000000
    Gval -0.00000000 -0.00000000 -0.00000000 -0.00000000 -0.00000000 -0.00000000 -0.00000000 -0.00000000
    Gval -0.00000000 -0.00000000 -0.00000000 -0.00000000 -0.00000000 -0.00000000 -0.00000000 -0.00000000
    Gval -0.00000000 -0.00000000 -0.00000000 -0.00000000 -0.00000000 -0.00000000 -0.00000000 -0.00000000
    Gval -0.00000000 -0.00000000 -0.00000000 -0.00000000 -0.00000000 -0.00000000  0.00000000  0.00000000
    Gval  0.00000000  0.00000000  0.00000000  0.00000000  0.00000000  0.00000000  0.00000000  0.00000000
    Gval  0.00000000  0.00000000  0.00000000  0.00000000  0.00000000  0.00000000  0.00000000  0.00000000
    Gval  0.00000000  0.00000000  0.00000000  0.00000000  0.00000000  0.00000000  0.00000000  0.00000000
    Gval  0.00000000  0.00000000  0.00000000  0.00000000  0.00000000  0.00000000  0.00000000  0.00000000
    Gval  0.00000000  0.00000000  0.00000000  0.00000000  0.00000000  0.00000000  0.00000000  0.00000000
    Gval  0.00000000  0.00000180  0.00000427  0.00000813  0.00000960  0.00001704  0.00002387  0.00002414
    Gval  0.00002731  0.00003879  0.00004466  0.00004888  0.00005339  0.00005780  0.00006434  0.00006876
    Gval  0.00007547  0.00007597  0.00009216  0.00009483  0.00010219  0.00010714  0.00011777  0.00012985
    Gval  0.00013498  0.00016352  0.00019151  0.00020141  0.00022654  0.00027005  0.00028401  0.00030050
    Gval  0.00030238  0.00035999  0.00036508  0.00037042  0.00038439  0.00041786  0.00043681  0.00053106
    Gval  0.00056798  0.00058325  0.00059304  0.00059362  0.00059673  0.00060404  0.00062139  0.00062397
    Gval  0.00062475  0.00063225  0.00066040  0.00104180  0.00105203  0.00108124  0.00111041  0.00111589
    Gval  0.00113907  0.00114439  0.00117294  0.00117353  0.00118163  0.00132645  0.00138490  0.00145568
    Gval  0.00167134  0.00188180  0.00196435  0.00208260  0.00235251  0.00265606  0.00302814  0.00312168
    Gval  0.00373391  0.00375140  0.00406423  0.00407642
  1.803001903742901E-006  1.803001903742901E-006
  4.271958957740000E-006  1.803001903742901E-006
  8.128729350899812E-006  1.803001903742901E-006
  9.601614792123309E-006  1.803001903742901E-006
  1.703636426326343E-005  1.803001903742901E-006
  2.386563518496669E-005  1.803001903742901E-006
  2.414322918806147E-005  1.803001903742901E-006
  2.731062981870516E-005  1.803001903742901E-006
  3.879310633289199E-005  1.803001903742901E-006
  4.466375347861089E-005  1.803001903742901E-006
  4.888098486518459E-005  1.803001903742901E-006
  5.338766035719272E-005  1.803001903742901E-006
  5.780453668436808E-005  1.803001903742901E-006
  6.434461330626636E-005  1.803001903742901E-006
  6.875876381685682E-005  1.803001903742901E-006
  7.547496399726998E-005  1.803001903742901E-006
  7.597497870451437E-005  1.803001903742901E-006
  9.216216687120158E-005  1.803001903742901E-006
  9.483131625962515E-005  1.803001903742901E-006
  1.021949116102549E-004  1.803001903742901E-006
  1.071430188694920E-004  1.803001903742901E-006
  1.177709555228781E-004  1.803001903742901E-006
  1.298513034812360E-004  1.803001903742901E-006
  1.349764663435101E-004  1.803001903742901E-006
  1.635210486328147E-004  1.803001903742901E-006
  1.915076492580362E-004  1.803001903742901E-006
  2.014097260800335E-004  1.803001903742901E-006
  2.265370952158456E-004  1.803001903742901E-006
  2.700543126614512E-004  1.803001903742901E-006
  2.840101352537650E-004  1.803001903742901E-006
  3.004966317993464E-004  1.803001903742901E-006
  3.023779942159264E-004  1.803001903742901E-006
  3.599873854113245E-004  1.803001903742901E-006
  3.650804199501685E-004  1.803001903742901E-006
  3.704180336064992E-004  1.803001903742901E-006
  3.843934284099846E-004  1.803001903742901E-006
  4.178564371400976E-004  1.803001903742901E-006
  4.368143055113902E-004  1.803001903742901E-006
  5.310614214661998E-004  1.803001903742901E-006
  5.679838586545277E-004  1.803001903742901E-006
  5.832507742983533E-004  1.803001903742901E-006
  5.930434082726932E-004  1.803001903742901E-006
  5.936211595040336E-004  1.803001903742901E-006
  5.967317078973324E-004  1.803001903742901E-006
  6.040434676647931E-004  1.803001903742901E-006
  6.213878397835726E-004  1.803001903742901E-006
  6.239657689229377E-004  1.803001903742901E-006
  6.247465394536800E-004  1.803001903742901E-006
  6.322470326476665E-004  1.803001903742901E-006
  6.604017896836614E-004  1.803001903742901E-006
  1.041795518392587E-003  1.803001903742901E-006
  1.052031505889040E-003  1.803001903742901E-006
  1.081241589361083E-003  1.803001903742901E-006
  1.110412271687400E-003  1.803001903742901E-006
  1.115888011373962E-003  1.803001903742901E-006
  1.139065300382748E-003  1.803001903742901E-006
  1.144391430221662E-003  1.803001903742901E-006
  1.172938745903356E-003  1.803001903742901E-006
  1.173528934576276E-003  1.803001903742901E-006
  1.181630912724122E-003  1.803001903742901E-006
  1.326451319952905E-003  1.803001903742901E-006
  1.384898332136664E-003  1.803001903742901E-006
  1.455679141976917E-003  1.803001903742901E-006
  1.671344533383212E-003  1.803001903742901E-006
  1.881800991311934E-003  1.803001903742901E-006
  1.964350392758837E-003  1.803001903742901E-006
  2.082597694037661E-003  1.803001903742901E-006
  2.352509068821217E-003  1.803001903742901E-006
  2.656061728851027E-003  1.803001903742901E-006
  3.028141084123400E-003  1.803001903742901E-006
  3.121680649131835E-003  1.803001903742901E-006
  3.733911242693526E-003  1.803001903742901E-006
  3.751399279686192E-003  1.803001903742901E-006
  4.064234461386981E-003  1.803001903742901E-006
  4.076423795186277E-003  1.803001903742901E-006
 cut=1d-8, nber non-redundant internal coords=          75
 Check on Eigenvals of non-red overlap matrix:
  0.00000180  0.00000427  0.00000813  0.00000960  0.00001704  0.00002387  0.00002414  0.00002731
  0.00003879  0.00004466  0.00004888  0.00005339  0.00005780  0.00006434  0.00006876  0.00007547
  0.00007597  0.00009216  0.00009483  0.00010219  0.00010714  0.00011777  0.00012985  0.00013498
  0.00016352  0.00019151  0.00020141  0.00022654  0.00027005  0.00028401  0.00030050  0.00030238
[...]
 nber times 1st assigned=          38           0
 nber times 1st assigned=          39           0
 nber times 1st assigned=          40           0
 nber times 1st assigned=          41           0
 nber times 1st assigned=          42           0
 nber times 1st assigned=          43           0
 nber times 1st assigned=          44           0
 nber times 1st assigned=          45           0
 nber times 1st assigned=          46           0
 nber times 1st assigned=          47           0
 nber times 1st assigned=          48           0
 nber times 1st assigned=          49           0
 nber times 1st assigned=          50           0
 nber times 1st assigned=          51           0
 nber times 1st assigned=          52           0
 nber times 1st assigned=          53           0
 nber times 1st assigned=          54           0
 nber times 1st assigned=          55           0
 nber times 1st assigned=          56           0
 nber times 1st assigned=          57           0
 nber times 1st assigned=          58           0
 nber times 1st assigned=          59           0
 nber times 1st assigned=          60           0
 nber times 1st assigned=          61           0
 nber times 1st assigned=          62           0
 nber times 1st assigned=          63           0
 nber times 1st assigned=          64           0
 nber times 1st assigned=          65           0
 nber times 1st assigned=          66           0
 nber times 1st assigned=          67           0
 nber times 1st assigned=          68           0
 nber times 1st assigned=          69           0
 nber times 1st assigned=          70           0
 nber times 1st assigned=          71           0
 nber times 1st assigned=          72           0
 nber times 1st assigned=          73           0
 nber times 1st assigned=          74           0
 nber times 1st assigned=          75           0
 nber times 1st assigned=          76           0
 nber times 1st assigned=          77           0
 nber times 1st assigned=          78           0
 nber times 1st assigned=          79           0
 nber times 1st assigned=          80           0
 nber times 1st assigned=          81           0
 Dushinsky matrix written to .out file
 modes represented=   75.2201356594014     

 Dushinsky matrix, ncs 1 in terms of ncs 2

   mode   freq    coeff     %      %tot     of    at

   7        32.  0.9948    99.0   101.0   8        42.
   8        40.  0.9972    99.4   101.2   7        13.
   9        90.  0.9748    95.0   100.5  10       115.
  10        90.  0.9932    98.6   101.2   9        94.
  11       128.  0.9674    93.6   101.2  11       138.
  12       179.  0.4163    17.3    99.9  12       204.
                -0.8654    74.9          13       206.
  13       197. -0.9016    81.3   100.4  12       204.
                -0.4373    19.1          13       206.
  14       227.  0.9920    98.4   101.1  14       253.
  15       264. -0.9994    99.9   101.5  15       269.
  16       273. -0.9884    97.7   100.5  16       329.
  17       356.  0.9968    99.4    99.3  17       361.
  18       394. -0.9368    87.8   101.8  20       444.
  19       406.  0.9942    98.8    98.4  18       393.
  20       428. -0.9854    97.1   100.4  19       442.
  21       440. -0.9858    97.2   100.6  21       465.
  22       511. -0.9467    89.6    99.8  23       551.
  23       512.  0.9981    99.6   100.1  22       520.
  24       547.  0.9850    97.0   101.2  24       572.
  25       550. -0.9854    97.1    99.9  25       586.
  26       571. -0.9916    98.3   101.1  26       601.
  27       616.  0.8594    73.8    99.9  28       646.
                -0.4791    23.0          33       755.
  28       622. -0.9638    92.9    99.9  27       622.
  29       638. -0.9203    84.7   100.5  29       654.
  30       654.  0.4910    24.1    99.1  28       646.
                 0.8445    71.3          33       755.
  31       661. -0.9339    87.2   100.0  31       687.
  32       668. -0.9765    95.4    99.9  30       676.
  33       697. -0.9920    98.4   100.5  32       712.
  34       751.  0.9813    96.3   100.6  34       780.
  35       783. -0.5032    25.3   100.3  36       830.
                 0.8301    68.9          37       862.
  36       796. -0.8513    72.5   100.7  36       830.
                -0.5015    25.2          37       862.
  37       799. -0.9961    99.2   100.2  35       817.
  38       863.  0.9640    92.9   100.0  40       942.
  39       867.  0.9540    91.0   101.1  38       908.
  40       885.  0.9796    96.0   100.5  39       915.
  41       934.  0.9789    95.8   100.8  42       956.
  42       951.  0.9613    92.4   100.4  41       952.
  43       960.  0.9937    98.7   100.6  43       994.
  44       971.  0.9902    98.0   100.2  44       995.
  45       979.  0.9787    95.8   100.4  47      1025.
  46       993. -0.9518    90.6   100.0  45      1008.
  47      1006. -0.9450    89.3   100.1  46      1024.
  48      1037. -0.9920    98.4   100.0  48      1046.
  49      1094.  0.9375    87.9   100.0  49      1105.
                -0.3283    10.8          50      1113.
  50      1098.  0.3350    11.2   100.4  49      1105.
                 0.9348    87.4          50      1113.
  51      1146. -0.9994    99.9   100.7  51      1167.
  52      1162.  0.9366    87.7   100.3  52      1186.
  53      1185.  0.9763    95.3   100.2  53      1198.
  54      1199. -0.9282    86.2   100.6  54      1207.
  55      1207. -0.5986    35.8   100.0  55      1220.
                -0.7113    50.6          56      1227.
  56      1213.  0.7523    56.6   100.2  55      1220.
                -0.6275    39.4          56      1227.
  57      1253. -0.9815    96.3   100.0  57      1280.
  58      1316.  0.9208    84.8   100.1  58      1331.
                -0.3207    10.3          59      1336.
  59      1323.  0.9262    85.8   100.0  59      1336.
  60      1338.  0.8806    77.5   100.1  60      1359.
  61      1368. -0.9719    94.5   100.1  61      1369.
  62      1414. -0.3385    11.5   100.4  60      1359.
                 0.8303    68.9          62      1432.
  63      1435. -0.8996    80.9   100.5  63      1439.
  64      1462. -0.6798    46.2   100.3  64      1461.
                 0.5733    32.9          65      1474.
  65      1470.  0.3938    15.5   100.3  64      1461.
                 0.3781    14.3          65      1474.
                 0.7503    56.3          66      1481.
  66      1477. -0.3473    12.1   100.2  64      1461.
                -0.6184    38.2          65      1474.
                 0.5887    34.7          66      1481.
  67      1491.  0.9120    83.2   100.1  67      1489.
  68      1524.  0.8640    74.6   100.2  68      1524.
                -0.3850    14.8          69      1545.
  69      1545. -0.3287    10.8   100.4  68      1524.
                -0.8897    79.1          69      1545.
  70      1560.  0.9711    94.3   100.3  70      1591.
  71      1628.  0.9937    98.7   100.0  71      1624.
  72      2977. -0.9997    99.9    99.9  72      3043.
  73      2988.  1.0000   100.0   100.1  73      3074.
  74      3159. -0.7474    55.9   100.0  74      3177.
                 0.6144    37.7          75      3187.
  75      3164. -0.4723    22.3   100.0  74      3177.
                -0.6774    45.9          75      3187.
                -0.5374    28.9          76      3196.
  76      3176.  0.4346    18.9   100.0  74      3177.
                 0.3719    13.8          75      3187.
                -0.8032    64.5          76      3196.
  77      3185.  0.9415    88.6   100.0  77      3204.
  78      3192. -0.9670    93.5   100.0  78      3209.
  79      3196. -0.9823    96.5   100.0  79      3220.
  80      3212. -0.9994    99.9   100.0  80      3230.
  81      3243. -0.9824    96.5   100.0  81      3241.
 nber times 1st assigned=           1           0
 nber times 1st assigned=           2           0
 nber times 1st assigned=           3           0
 nber times 1st assigned=           4           0
 nber times 1st assigned=           5           0
 nber times 1st assigned=           6           0
 nber times 1st assigned=           7           0
 nber times 1st assigned=           8           0
 nber times 1st assigned=           9           0
 nber times 1st assigned=          10           0
 nber times 1st assigned=          11           0
 nber times 1st assigned=          12           0
 nber times 1st assigned=          13           0
 nber times 1st assigned=          14           0
 nber times 1st assigned=          15           0
 nber times 1st assigned=          16           0
 nber times 1st assigned=          17           0
 nber times 1st assigned=          18           0
 nber times 1st assigned=          19           0
 nber times 1st assigned=          20           0
 nber times 1st assigned=          21           0
 nber times 1st assigned=          22           0
 nber times 1st assigned=          23           0
 nber times 1st assigned=          24           0
 nber times 1st assigned=          25           0
 nber times 1st assigned=          26           0
 nber times 1st assigned=          27           0
 nber times 1st assigned=          28           0
 nber times 1st assigned=          29           0
 nber times 1st assigned=          30           0
 nber times 1st assigned=          31           0
 nber times 1st assigned=          32           0
 nber times 1st assigned=          33           0
 nber times 1st assigned=          34           0
 nber times 1st assigned=          35           0
 nber times 1st assigned=          36           0
 nber times 1st assigned=          37           0
 nber times 1st assigned=          38           0
 nber times 1st assigned=          39           0
 nber times 1st assigned=          40           0
 nber times 1st assigned=          41           0
 nber times 1st assigned=          42           0
 nber times 1st assigned=          43           0
 nber times 1st assigned=          44           0
 nber times 1st assigned=          45           0
 nber times 1st assigned=          46           0
 nber times 1st assigned=          47           0
 nber times 1st assigned=          48           0
 nber times 1st assigned=          49           0
 nber times 1st assigned=          50           0
 nber times 1st assigned=          51           0
 nber times 1st assigned=          52           0
 nber times 1st assigned=          53           0
 nber times 1st assigned=          54           0
 nber times 1st assigned=          55           0
 nber times 1st assigned=          56           0
 nber times 1st assigned=          57           0
 nber times 1st assigned=          58           0
 nber times 1st assigned=          59           0
 nber times 1st assigned=          60           0
 nber times 1st assigned=          61           0
 nber times 1st assigned=          62           0
 nber times 1st assigned=          63           0
 nber times 1st assigned=          64           0
 nber times 1st assigned=          65           0
 nber times 1st assigned=          66           0
 nber times 1st assigned=          67           0
 nber times 1st assigned=          68           0
 nber times 1st assigned=          69           0
 nber times 1st assigned=          70           0
 nber times 1st assigned=          71           0
 nber times 1st assigned=          72           0
 nber times 1st assigned=          73           0
 nber times 1st assigned=          74           0
 nber times 1st assigned=          75           0
 nber times 1st assigned=          76           0
 nber times 1st assigned=          77           0
 nber times 1st assigned=          78           0
 nber times 1st assigned=          79           0
 nber times 1st assigned=          80           0
 nber times 1st assigned=          81           0
 modes represented=   75.2201356594014     
 p1=
    0.   -0.   -0.   -0.    0.    0.   -0.   -5.   -0.   -2.    0.   -0.    6.   -0.    4.   -0.   -3.   -0.    0.   -2.
   -0.    0.    2.    3.    0.   -3.    0.   -2.    2.    0.   -2.    0.    1.    0.   -0.   -0.   -3.   -0.    0.    1.
   -0.   -0.   -0.    0.   -0.    1.    0.    0.    0.    0.    0.    0.   -0.   -0.   -0.   -0.    0.    0.   -0.   -1.
    0.    0.   -1.   -0.    0.    1.   -0.   -1.    1.    0.    1.   -0.    0.   -0.    0.   -0.   -0.   -0.    0.    0.
   -0.
 p2=
   -0.   -0.   -0.   -0.    0.    0.    5.    0.    2.   -0.   -0.    6.    3.    0.    4.    0.    3.    0.   -2.    0.
   -0.   -2.   -0.   -2.   -0.   -3.   -1.    0.    2.    0.   -3.    1.   -0.    0.   -3.   -0.    0.   -0.   -1.   -0.
    0.   -0.   -0.   -0.    1.   -0.    0.    0.   -0.   -0.    0.   -0.   -0.   -0.   -0.   -0.    0.   -0.    1.    1.
    0.    0.   -1.    0.    1.   -0.   -0.    1.    1.   -0.   -1.   -0.   -0.   -0.    0.   -0.   -0.   -0.    0.    0.
   -0.

 Displacement: in terms of nc of 1 THEN of nc of 2

   1     freq=    -0. Q=  0.000 lam=    -0.0     freq=    -0. Q=  0.000 lam=    -0.0
   2     freq=    -0. Q= -0.000 lam=    -0.0     freq=    -0. Q= -0.000 lam=    -0.0
   3     freq=    -0. Q= -0.000 lam=    -0.0     freq=     0. Q= -0.000 lam=     0.0
   4     freq=    -0. Q= -0.000 lam=    -0.0     freq=     0. Q= -0.000 lam=     0.0
   5     freq=     0. Q=  0.000 lam=     0.0     freq=     0. Q=  0.000 lam=     0.0
   6     freq=     0. Q=  0.000 lam=     0.0     freq=     0. Q=  0.000 lam=     0.0
   7     freq=    32. Q= -0.001 lam=     0.0     freq=    13. Q= -0.080 lam=     0.0
   8     freq=    40. Q= -0.137 lam=     0.4     freq=    42. Q= -0.002 lam=     0.0
   9     freq=    90. Q= -0.017 lam=     0.0     freq=    94. Q= -0.076 lam=     0.3
  10     freq=    90. Q= -0.078 lam=     0.3     freq=   115. Q= -0.005 lam=     0.0
  11     freq=   128. Q=  0.011 lam=     0.0     freq=   138. Q=  0.001 lam=     0.0
  12     freq=   179. Q= -0.006 lam=     0.0     freq=   204. Q= -0.341 lam=    11.9
  13     freq=   197. Q=  0.367 lam=    13.3     freq=   206. Q=  0.160 lam=     2.7
  14     freq=   227. Q= -0.001 lam=     0.0     freq=   253. Q= -0.001 lam=     0.0
  15     freq=   264. Q=  0.261 lam=     9.0     freq=   269. Q=  0.265 lam=     9.4
  16     freq=   273. Q= -0.007 lam=     0.0     freq=   329. Q= -0.003 lam=     0.0
  17     freq=   356. Q= -0.255 lam=    11.6     freq=   361. Q= -0.260 lam=    12.2
  18     freq=   394. Q= -0.003 lam=     0.0     freq=   393. Q= -0.002 lam=     0.0
  19     freq=   406. Q=  0.002 lam=     0.0     freq=   442. Q=  0.184 lam=     7.5
  20     freq=   428. Q= -0.202 lam=     8.8     freq=   444. Q= -0.024 lam=     0.1
  21     freq=   440. Q= -0.002 lam=     0.0     freq=   465. Q= -0.001 lam=     0.0
  22     freq=   511. Q=  0.003 lam=     0.0     freq=   520. Q=  0.154 lam=     6.1
  23     freq=   512. Q=  0.144 lam=     5.3     freq=   551. Q=  0.001 lam=     0.0
  24     freq=   547. Q=  0.267 lam=    19.4     freq=   572. Q=  0.221 lam=    14.0
  25     freq=   550. Q=  0.000 lam=     0.0     freq=   586. Q=  0.003 lam=     0.0
  26     freq=   571. Q= -0.313 lam=    27.9     freq=   601. Q= -0.345 lam=    35.8
  27     freq=   616. Q=  0.001 lam=     0.0     freq=   622. Q=  0.146 lam=     6.6
  28     freq=   622. Q= -0.201 lam=    12.6     freq=   646. Q= -0.001 lam=     0.0
  29     freq=   638. Q=  0.229 lam=    16.7     freq=   654. Q=  0.215 lam=    15.2
  30     freq=   654. Q=  0.001 lam=     0.0     freq=   676. Q=  0.002 lam=     0.0
  31     freq=   661. Q= -0.210 lam=    14.5     freq=   687. Q= -0.291 lam=    29.2
  32     freq=   668. Q=  0.001 lam=     0.0     freq=   712. Q=  0.122 lam=     5.3
  33     freq=   697. Q=  0.104 lam=     3.8     freq=   755. Q=  0.001 lam=     0.0
  34     freq=   751. Q=  0.001 lam=     0.0     freq=   780. Q=  0.001 lam=     0.0
  35     freq=   783. Q= -0.003 lam=     0.0     freq=   817. Q= -0.317 lam=    41.2
  36     freq=   796. Q= -0.001 lam=     0.0     freq=   830. Q= -0.001 lam=     0.0
  37     freq=   799. Q= -0.318 lam=    40.5     freq=   862. Q= -0.001 lam=     0.0
  38     freq=   863. Q= -0.002 lam=     0.0     freq=   908. Q= -0.000 lam=     0.0
  39     freq=   867. Q=  0.000 lam=     0.0     freq=   915. Q=  0.127 lam=     7.4
  40     freq=   885. Q=  0.090 lam=     3.6     freq=   942. Q=  0.001 lam=     0.0
  41     freq=   934. Q= -0.020 lam=     0.2     freq=   952. Q= -0.000 lam=     0.0
  42     freq=   951. Q= -0.001 lam=     0.0     freq=   956. Q= -0.001 lam=     0.0
  43     freq=   960. Q= -0.001 lam=     0.0     freq=   994. Q= -0.000 lam=     0.0
  44     freq=   971. Q=  0.054 lam=     1.4     freq=   995. Q=  0.039 lam=     0.8
  45     freq=   979. Q= -0.000 lam=     0.0     freq=  1008. Q= -0.160 lam=    12.9
  46     freq=   993. Q=  0.171 lam=    14.6     freq=  1024. Q=  0.032 lam=     0.5
  47     freq=  1006. Q=  0.022 lam=     0.2     freq=  1025. Q=  0.001 lam=     0.0
  48     freq=  1037. Q=  0.038 lam=     0.8     freq=  1046. Q=  0.030 lam=     0.5
  49     freq=  1094. Q=  0.003 lam=     0.0     freq=  1105. Q=  0.008 lam=     0.0
  50     freq=  1098. Q=  0.032 lam=     0.6     freq=  1113. Q=  0.026 lam=     0.4
  51     freq=  1146. Q=  0.000 lam=     0.0     freq=  1167. Q=  0.000 lam=     0.0
  52     freq=  1162. Q=  0.051 lam=     1.5     freq=  1186. Q=  0.042 lam=     1.0
  53     freq=  1185. Q= -0.001 lam=     0.0     freq=  1198. Q= -0.012 lam=     0.1
  54     freq=  1199. Q= -0.040 lam=     1.0     freq=  1207. Q= -0.069 lam=     2.9
  55     freq=  1207. Q= -0.004 lam=     0.0     freq=  1220. Q= -0.001 lam=     0.0
  56     freq=  1213. Q= -0.008 lam=     0.0     freq=  1227. Q= -0.007 lam=     0.0
  57     freq=  1253. Q=  0.044 lam=     1.2     freq=  1280. Q=  0.051 lam=     1.6
  58     freq=  1316. Q=  0.022 lam=     0.3     freq=  1331. Q=  0.007 lam=     0.0
  59     freq=  1323. Q= -0.066 lam=     2.9     freq=  1336. Q= -0.088 lam=     5.2
  60     freq=  1338. Q= -0.125 lam=    10.4     freq=  1359. Q= -0.174 lam=    20.7
  61     freq=  1368. Q=  0.020 lam=     0.3     freq=  1369. Q=  0.008 lam=     0.0
  62     freq=  1414. Q=  0.025 lam=     0.5     freq=  1432. Q=  0.027 lam=     0.5
  63     freq=  1435. Q= -0.087 lam=     5.4     freq=  1439. Q= -0.092 lam=     6.2
  64     freq=  1462. Q= -0.066 lam=     3.2     freq=  1461. Q= -0.004 lam=     0.0
  65     freq=  1470. Q=  0.015 lam=     0.2     freq=  1474. Q=  0.171 lam=    21.6
  66     freq=  1477. Q=  0.078 lam=     4.5     freq=  1481. Q=  0.063 lam=     2.9
  67     freq=  1491. Q= -0.001 lam=     0.0     freq=  1489. Q= -0.070 lam=     3.7
  68     freq=  1524. Q= -0.215 lam=    35.3     freq=  1524. Q= -0.218 lam=    36.3
  69     freq=  1545. Q=  0.198 lam=    30.2     freq=  1545. Q=  0.095 lam=     7.0
  70     freq=  1560. Q=  0.008 lam=     0.1     freq=  1591. Q=  0.018 lam=     0.3
  71     freq=  1628. Q=  0.178 lam=    25.7     freq=  1624. Q=  0.139 lam=    15.7
  72     freq=  2977. Q= -0.040 lam=     2.4     freq=  3043. Q= -0.041 lam=     2.6
  73     freq=  2988. Q=  0.000 lam=     0.0     freq=  3074. Q=  0.000 lam=     0.0
  74     freq=  3159. Q= -0.014 lam=     0.3     freq=  3177. Q= -0.006 lam=     0.1
  75     freq=  3164. Q=  0.003 lam=     0.0     freq=  3187. Q=  0.011 lam=     0.2
  76     freq=  3176. Q= -0.005 lam=     0.0     freq=  3196. Q= -0.003 lam=     0.0
  77     freq=  3185. Q= -0.000 lam=     0.0     freq=  3204. Q= -0.005 lam=     0.0
  78     freq=  3192. Q= -0.015 lam=     0.4     freq=  3209. Q= -0.017 lam=     0.5
  79     freq=  3196. Q=  0.015 lam=     0.3     freq=  3220. Q=  0.019 lam=     0.6
  80     freq=  3212. Q=  0.001 lam=     0.0     freq=  3230. Q=  0.001 lam=     0.0
  81     freq=  3243. Q= -0.016 lam=     0.4     freq=  3241. Q= -0.014 lam=     0.3

 total reorg energy (cm**-1, kcal/mol)=      332.      350.      0.95      1.00
 Nber of molecules processed=           2
