 Enter ifcurve (0=recti, 1=orth curvi, 2=apprx curvi, -1 = skip
 And atom ordering flag, 0= never changes, 1= use the first order thenceforth,
  2= deduce it (does read on fail), 3= always read it
 Reading file: 
 ./CDT_0_C0S1.log                                                               
                                          
  Entering Gaussian System, Link 0=g16                                          
  
 Gaussian format, type: g94, g98, g03= F F F
  #P Geom=AllCheck Guess=TCheck SCRF=Check GenChk RB3LYP TD(FC,Read)/6-3    
 energy type= TD      
 Original G94 input coords:
  6 -1.010187 -0.200996 -0.001967
  6 -0.396734  1.045756 -0.001392
  6  0.992410  0.967325  0.001665
  6  2.162734  1.929270  0.003617
  6  3.320176  0.951864  0.006718
  6  4.710240  1.011831  0.009699
  6  5.307069 -0.242961  0.011758
 16  4.151523 -1.577214  0.010055
  6  2.838139 -0.413293  0.006498
  6  1.456264 -0.404116  0.003500
 16  0.127529 -1.550485  0.001313
  1 -2.068082 -0.415863 -0.004128
  1 -0.969462  1.964767 -0.003187
  1  2.165289  2.601138  0.881365
  1  2.169094  2.600071 -0.874928
  1  5.295132  1.923150  0.010417
  1  6.362016 -0.471863  0.014187
 nber atoms=          17
  Total Energy, E(TD-HF/TD-DFT) =  -1142.90931779                               
  
          32          49 "  -1142.90931779"
After scan for Atom:   Atom  AN      X      Y      Z        X      Y      Z        X      Y      Z   
After scan for Atom:   Atom  AN      X      Y      Z        X      Y      Z        X      Y      Z   
After scan for Atom:   Atom  AN      X      Y      Z        X      Y      Z        X      Y      Z   
After scan for Atom:   Atom  AN      X      Y      Z        X      Y      Z        X      Y      Z   
After scan for Atom:   Atom  AN      X      Y      Z        X      Y      Z        X      Y      Z   
After scan for Atom:   Atom  AN      X      Y      Z        X      Y      Z        X      Y      Z   
After scan for Atom:   Atom  AN      X      Y      Z        X      Y      Z        X      Y      Z   
After scan for Atom:   Atom  AN      X      Y      Z        X      Y      Z        X      Y      Z   
After scan for Atom:   Atom  AN      X      Y      Z        X      Y      Z        X      Y      Z   
After scan for Atom:   Atom  AN      X      Y      Z        X      Y      Z        X      Y      Z   
After scan for Atom:   Atom  AN      X      Y      Z        X      Y      Z        X      Y      Z   
After scan for Atom:   Atom  AN      X      Y      Z        X      Y      Z        X      Y      Z   
After scan for Atom:   Atom  AN      X      Y      Z        X      Y      Z        X      Y      Z   
After scan for Atom:   Atom  AN      X      Y      Z        X      Y      Z        X      Y      Z   
After scan for Atom:   Atom  AN      X      Y      Z        X      Y      Z        X      Y      Z   
 g94    frequencies=
     0.0    0.0    0.0    0.0    0.0    0.0   26.7  114.8  199.2  201.9
   214.7  339.0  405.1  434.7  445.3  497.9  534.2  565.0  611.3  620.8
   624.0  632.4  673.4  759.2  790.8  861.3  866.7  908.8  935.8  961.5
   965.6 1077.2 1088.1 1117.1 1198.6 1211.9 1226.4 1301.5 1310.3 1397.2
  1403.3 1455.6 1491.5 1496.6 1548.6 2829.1 2866.2 3193.4 3193.7 3239.3
  3239.5
 g94    symmetries=
                                                 A      A      A      A
       A      A      A      A      A      A      A      A      A      A
       A      A      A      A      A      A      A      A      A      A
       A      A      A      A      A      A      A      A      A      A
       A      A      A      A      A      A      A      A      A      A
       A
 atomic masses:
 12.0000 12.0000 12.0000 12.0000 12.0000 12.0000 12.0000 31.9721 12.0000 12.0000
 31.9721  1.0078  1.0078  1.0078  1.0078  1.0078  1.0078
 looking for force constants in 
 ./CDT_0_C0S1.fchk                                                              
  
 Cartesian Force Constants                  R   N=        1326                  
  
 n3=          51        1326
 g94-fc frequencies=
    -0.0    0.0    0.0    0.5    1.8    2.6   26.7  114.8  199.2  201.9
   214.7  339.1  405.1  434.7  445.3  497.9  534.2  565.0  611.4  620.8
   624.0  632.4  673.5  759.2  790.8  861.3  866.7  908.8  935.8  961.5
   965.7 1077.2 1088.2 1117.1 1198.6 1211.9 1226.5 1301.5 1310.3 1397.2
  1403.4 1455.7 1491.6 1496.6 1548.7 2829.2 2866.3 3193.5 3193.7 3239.4
  3239.5
 at 99999: n3=          51
 symm operator            1 :  F  nop=           0
 symm operator            2 :  F  nop=           0
 symm operator            3 :  F  nop=           0
 symm operator            4 :  F  nop=           0
 symm operator            5 :  F  nop=           0
 symm operator            6 :  F  nop=           0
 symm operator            7 :  F  nop=           0
 The point group of the molecule is  C1
 Symmetry rotation matrix:
   1.00000   0.00000   0.00000
   0.00000   1.00000   0.00000
   0.00000   0.00000   1.00000

 Projecting out zero-frequency components
 generating redundant internal coords
         300        3600          17
 search for int coords
   1 str   2   1   1.390
   2 str   3   2   1.391
   3 str   4   3   1.515
   4 str   5   4   1.515
   5 str   6   5   1.391
   6 str   7   6   1.390
   7 str   8   7   1.765
   8 str   9   5   1.448
   9 str   9   8   1.755
  10 str  10   3   1.448
  11 str  10   9   1.382
  12 str  11   1   1.765
  13 str  11  10   1.755
  14 str  12   1   1.079
  15 str  13   2   1.083
  16 str  14   4   1.105
  17 str  15   4   1.105
  18 str  16   6   1.083
  19 str  17   7   1.079
 nber stretches=          19
  20 ben   1   2   3
  21 prop tor   1   2   3   4
  22 prop tor   1   2   3  10
  23 ben   1   2  13
  24 ben   1  11  10
  25 ben   2   1  11
  26 prop tor   2   1  11  10
  27 ben   2   1  12
  28 ben   2   3   4
  29 prop tor   2   3   4   5
  30 prop tor   2   3   4  14
  31 prop tor   2   3   4  15
  32 ben   2   3  10
  33 prop tor   2   3  10   9
  34 prop tor   2   3  10  11
  35 ben   3   2  13
  36 ben   3   4   5
  37 prop tor   3   4   5   6
  38 prop tor   3   4   5   9
  39 ben   3   4  14
  40 ben   3   4  15
  41 ben   3  10   9
  42 ben   3  10  11
  43 prop tor   3  10  11   1
  44 ben   4   3  10
  45 prop tor   4   3  10   9
  46 prop tor   4   3  10  11
  47 ben   4   5   6
  48 prop tor   4   5   6   7
  49 prop tor   4   5   6  16
  50 ben   4   5   9
  51 prop tor   4   5   9   8
  52 prop tor   4   5   9  10
  53 ben   5   4  14
  54 ben   5   4  15
  55 ben   5   6   7
  56 prop tor   5   6   7   8
  57 prop tor   5   6   7  17
  58 ben   5   6  16
  59 ben   5   9   8
  60 ben   5   9  10
  61 prop tor   5   9  10   3
  62 prop tor   5   9  10  11
  63 ben   6   5   9
  64 prop tor   6   5   9   8
  65 prop tor   6   5   9  10
  66 ben   6   7   8
  67 prop tor   6   7   8   9
  68 ben   6   7  17
  69 ben   7   6  16
  70 ben   7   8   9
  71 prop tor   7   8   9   5
  72 prop tor   7   8   9  10
  73 ben   8   7  17
  74 ben   8   9  10
  75 prop tor   8   9  10   3
  76 prop tor   8   9  10  11
  77 prop tor   9   5   6   7
  78 prop tor   9   5   6  16
  79 ben   9  10  11
  80 prop tor   9  10  11   1
  81 prop tor  10   3   4   5
  82 prop tor  10   3   4  14
  83 prop tor  10   3   4  15
  84 prop tor  11   1   2   3
  85 prop tor  11   1   2  13
  86 ben  11   1  12
  87 prop tor  12   1   2   3
  88 prop tor  12   1   2  13
  89 prop tor  12   1  11  10
  90 prop tor  13   2   3   4
  91 prop tor  13   2   3  10
  92 prop tor  14   4   5   6
  93 prop tor  14   4   5   9
  94 ben  14   4  15
  95 prop tor  15   4   5   6
  96 prop tor  15   4   5   9
  97 prop tor  16   6   7   8
  98 prop tor  16   6   7  17
  99 prop tor  17   7   8   9
 nber bend=              32
 nber lin bend=           0
 nber prop tor=          48
 nber impr tor=           0
 nber tot redund int=          99
 Eigenvalues of G in red int coords
    Gval -0.00000000 -0.00000000 -0.00000000 -0.00000000 -0.00000000 -0.00000000 -0.00000000 -0.00000000
    Gval -0.00000000 -0.00000000 -0.00000000 -0.00000000 -0.00000000 -0.00000000 -0.00000000 -0.00000000
    Gval -0.00000000 -0.00000000 -0.00000000 -0.00000000 -0.00000000 -0.00000000 -0.00000000 -0.00000000
    Gval -0.00000000 -0.00000000 -0.00000000  0.00000000  0.00000000  0.00000000  0.00000000  0.00000000
    Gval  0.00000000  0.00000000  0.00000000  0.00000000  0.00000000  0.00000000  0.00000000  0.00000000
    Gval  0.00000000  0.00000000  0.00000000  0.00000000  0.00000000  0.00000000  0.00000000  0.00000000
    Gval  0.00000000  0.00000000  0.00000000  0.00000000  0.00000000  0.00000000  0.00000774  0.00001791
    Gval  0.00002329  0.00003800  0.00004595  0.00004845  0.00005727  0.00006080  0.00007972  0.00008746
    Gval  0.00009312  0.00009347  0.00012099  0.00013473  0.00015183  0.00018517  0.00027935  0.00028807
    Gval  0.00029710  0.00031860  0.00035390  0.00037532  0.00042380  0.00042535  0.00058484  0.00059646
    Gval  0.00059683  0.00061374  0.00062370  0.00062626  0.00107633  0.00108067  0.00108163  0.00117794
    Gval  0.00117832  0.00129028  0.00133691  0.00165918  0.00192476  0.00197285  0.00225408  0.00278258
    Gval  0.00298191  0.00396447  0.00406925
  7.740756787771038E-006  7.740756787771038E-006
  1.791497109967251E-005  7.740756787771038E-006
  2.328816651150040E-005  7.740756787771038E-006
  3.800231979784101E-005  7.740756787771038E-006
  4.595251489937042E-005  7.740756787771038E-006
  4.844967907174187E-005  7.740756787771038E-006
  5.727120852044334E-005  7.740756787771038E-006
  6.079559634178509E-005  7.740756787771038E-006
  7.972346796087293E-005  7.740756787771038E-006
  8.746042165039879E-005  7.740756787771038E-006
  9.312466555942051E-005  7.740756787771038E-006
  9.346589969798420E-005  7.740756787771038E-006
  1.209924744051616E-004  7.740756787771038E-006
  1.347343620899979E-004  7.740756787771038E-006
  1.518332424773539E-004  7.740756787771038E-006
  1.851716240168488E-004  7.740756787771038E-006
  2.793476936827333E-004  7.740756787771038E-006
  2.880738842325394E-004  7.740756787771038E-006
  2.970988012152186E-004  7.740756787771038E-006
  3.185983320649382E-004  7.740756787771038E-006
  3.539042981108541E-004  7.740756787771038E-006
  3.753175132905150E-004  7.740756787771038E-006
  4.238049532379861E-004  7.740756787771038E-006
  4.253517392530103E-004  7.740756787771038E-006
  5.848441815420256E-004  7.740756787771038E-006
  5.964606401502889E-004  7.740756787771038E-006
  5.968257805851802E-004  7.740756787771038E-006
  6.137424915249825E-004  7.740756787771038E-006
  6.237046779256027E-004  7.740756787771038E-006
  6.262581112234572E-004  7.740756787771038E-006
  1.076327962961579E-003  7.740756787771038E-006
  1.080668976924581E-003  7.740756787771038E-006
  1.081634188847439E-003  7.740756787771038E-006
  1.177939005938344E-003  7.740756787771038E-006
  1.178316562199581E-003  7.740756787771038E-006
  1.290278225702585E-003  7.740756787771038E-006
  1.336907866554291E-003  7.740756787771038E-006
  1.659175034184991E-003  7.740756787771038E-006
  1.924760955355251E-003  7.740756787771038E-006
  1.972849225709153E-003  7.740756787771038E-006
  2.254076031955297E-003  7.740756787771038E-006
  2.782581773432715E-003  7.740756787771038E-006
  2.981907342400543E-003  7.740756787771038E-006
  3.964472492001610E-003  7.740756787771038E-006
  4.069251229211156E-003  7.740756787771038E-006
 cut=1d-8, nber non-redundant internal coords=          45
 Check on Eigenvals of non-red overlap matrix:
  0.00000774  0.00001791  0.00002329  0.00003800  0.00004595  0.00004845  0.00005727  0.00006080
  0.00007972  0.00008746  0.00009312  0.00009347  0.00012099  0.00013473  0.00015183  0.00018517
  0.00027935  0.00028807  0.00029710  0.00031860  0.00035390  0.00037532  0.00042380  0.00042535
  0.00058484  0.00059646  0.00059683  0.00061374  0.00062370  0.00062626  0.00107633  0.00108067
  0.00108163  0.00117794  0.00117832  0.00129028  0.00133691  0.00165918  0.00192476  0.00197285
  0.00225408  0.00278258  0.00298191  0.00396447  0.00406925
 Checking for correct frequencies
 recalc frequencies=
    -0.0   -0.0   -0.0    0.0    0.0    0.0   26.7  114.8  199.2  201.9
   214.7  339.1  405.1  434.7  445.3  497.9  534.2  565.0  611.4  620.8
   624.0  632.4  673.5  759.2  790.8  861.3  866.7  908.8  935.8  961.5
   965.7 1077.2 1088.2 1117.1 1198.6 1211.9 1226.5 1301.5 1310.3 1397.2
  1403.4 1455.7 1491.6 1496.6 1548.7 2829.2 2866.3 3193.5 3193.7 3239.4
  3239.5
 recalc symmetries=
                                                                       
                                                                       
                                                                       
                                                                       
                                                                       
        
 recalc freqs check OK
 Zero-point lengths:
 10.0000 10.0000 10.0000 10.0000 10.0000 10.0000 47.9989 23.1410 17.5631 17.4480
 16.9175 13.4637 12.3167 11.8902 11.7485 11.1100 10.7264 10.4299 10.0265  9.9502
  9.9240  9.8585  9.5530  8.9975  8.8157  8.4471  8.4208  8.2236  8.1042  7.9951
  7.9778  7.5535  7.5154  7.4172  7.1607  7.1213  7.0790  6.8717  6.8487  6.6322
  6.6177  6.4978  6.4191  6.4082  6.2997  4.6609  4.6306  4.3870  4.3868  4.3558
  4.3557
 highest evec of mol 1
  0.2061  0.0508  0.0004
  0.0169 -0.0428  0.0001
 -0.0051 -0.0001 -0.0000
  0.0000  0.0017 -0.0000
  0.0048 -0.0002  0.0000
 -0.0159 -0.0389 -0.0000
 -0.1880  0.0490 -0.0004
  0.0006  0.0010  0.0000
  0.0028  0.0005  0.0000
 -0.0029  0.0005 -0.0000
 -0.0006  0.0011 -0.0000
 -0.6795 -0.1409 -0.0014
 -0.0638  0.1064 -0.0002
 -0.0000 -0.0039 -0.0044
 -0.0000 -0.0039  0.0044
  0.0596  0.0965  0.0001
  0.6201 -0.1372  0.0014
 generating redundant internal coords
         300        3600          17
 Adding extra bonds for z output only
           6           6           6           6           6           6
           6          16           6           6          16           1
           1           1           1           1           1
 search for int coords
   1 str   2   1   1.390
   2 str   3   2   1.391
   3 str   4   3   1.515
   4 str   5   4   1.515
   5 str   6   5   1.391
   6 str   7   6   1.390
   7 str   8   7   1.765
   8 str   9   5   1.448
   9 str   9   8   1.755
  10 str  10   3   1.448
  11 str  10   9   1.382
  12 str  11   1   1.765
  13 str  11  10   1.755
  14 str  12   1   1.079
  15 str  13   2   1.083
  16 str  14   4   1.105
  17 str  15   4   1.105
  18 str  16   6   1.083
  19 str  17   7   1.079
 nber stretches=          19
  20 ben   1   2   3
  21 prop tor   1   2   3   4
  22 prop tor   1   2   3  10
  23 ben   1   2  13
  24 ben   1  11  10
  25 ben   2   1  11
  26 prop tor   2   1  11  10
  27 ben   2   1  12
  28 ben   2   3   4
  29 prop tor   2   3   4   5
  30 prop tor   2   3   4  14
  31 prop tor   2   3   4  15
  32 ben   2   3  10
  33 prop tor   2   3  10   9
  34 prop tor   2   3  10  11
  35 ben   3   2  13
  36 ben   3   4   5
  37 prop tor   3   4   5   6
  38 prop tor   3   4   5   9
  39 ben   3   4  14
  40 ben   3   4  15
  41 ben   3  10   9
  42 ben   3  10  11
  43 prop tor   3  10  11   1
  44 ben   4   3  10
  45 prop tor   4   3  10   9
  46 prop tor   4   3  10  11
  47 ben   4   5   6
  48 prop tor   4   5   6   7
  49 prop tor   4   5   6  16
  50 ben   4   5   9
  51 prop tor   4   5   9   8
  52 prop tor   4   5   9  10
  53 ben   5   4  14
  54 ben   5   4  15
  55 ben   5   6   7
  56 prop tor   5   6   7   8
  57 prop tor   5   6   7  17
  58 ben   5   6  16
  59 ben   5   9   8
  60 ben   5   9  10
  61 prop tor   5   9  10   3
  62 prop tor   5   9  10  11
  63 ben   6   5   9
  64 prop tor   6   5   9   8
  65 prop tor   6   5   9  10
  66 ben   6   7   8
  67 prop tor   6   7   8   9
  68 ben   6   7  17
  69 ben   7   6  16
  70 ben   7   8   9
  71 prop tor   7   8   9   5
  72 prop tor   7   8   9  10
  73 ben   8   7  17
  74 ben   8   9  10
  75 prop tor   8   9  10   3
  76 prop tor   8   9  10  11
  77 prop tor   9   5   6   7
  78 prop tor   9   5   6  16
  79 ben   9  10  11
  80 prop tor   9  10  11   1
  81 prop tor  10   3   4   5
  82 prop tor  10   3   4  14
  83 prop tor  10   3   4  15
  84 prop tor  11   1   2   3
  85 prop tor  11   1   2  13
  86 ben  11   1  12
  87 prop tor  12   1   2   3
  88 prop tor  12   1   2  13
  89 prop tor  12   1  11  10
  90 prop tor  13   2   3   4
  91 prop tor  13   2   3  10
  92 prop tor  14   4   5   6
  93 prop tor  14   4   5   9
  94 ben  14   4  15
  95 prop tor  15   4   5   6
  96 prop tor  15   4   5   9
  97 prop tor  16   6   7   8
  98 prop tor  16   6   7  17
  99 prop tor  17   7   8   9
 nber bend=              32
 nber lin bend=           0
 nber prop tor=          48
 nber impr tor=           0
 nber tot redund int=          99
 Reading file: 
 ./CDT_0_C1S0.log                                                               
                                          
  Entering Gaussian System, Link 0=g16                                          
  
 Gaussian format, type: g94, g98, g03= F F F
  #P Geom=AllCheck Guess=TCheck SCRF=Check GenChk UB3LYP/6-311G(d,p) Fre    
 energy type= B3LYP   
 Original G94 input coords:
  6 -0.986048 -0.205282 -0.001914
  6 -0.397916  1.055521 -0.001403
  6  0.989015  0.964849  0.001660
  6  2.162641  1.915193  0.003628
  6  3.323537  0.949343  0.006731
  6  4.711551  1.021580  0.009695
  6  5.282875 -0.246927  0.011704
 16  4.135663 -1.550805  0.010007
  6  2.846124 -0.393290  0.006510
  6  1.448545 -0.384008  0.003475
 16  0.143739 -1.524290  0.001336
  1 -2.043761 -0.429944 -0.004072
  1 -0.974534  1.970263 -0.003208
  1  2.165058  2.567142  0.883599
  1  2.168875  2.566074 -0.877115
  1  5.300276  1.928579  0.010421
  1  6.337509 -0.485619  0.014134
 nber atoms=          17
  SCF Done:  E(UB3LYP) =  -1142.78639722     A.U. after    1 cycles             
  
          23          40 "  -1142.78639722"
After scan for Atom:   Atom  AN      X      Y      Z        X      Y      Z        X      Y      Z   
After scan for Atom:   Atom  AN      X      Y      Z        X      Y      Z        X      Y      Z   
After scan for Atom:   Atom  AN      X      Y      Z        X      Y      Z        X      Y      Z   
After scan for Atom:   Atom  AN      X      Y      Z        X      Y      Z        X      Y      Z   
After scan for Atom:   Atom  AN      X      Y      Z        X      Y      Z        X      Y      Z   
After scan for Atom:   Atom  AN      X      Y      Z        X      Y      Z        X      Y      Z   
After scan for Atom:   Atom  AN      X      Y      Z        X      Y      Z        X      Y      Z   
After scan for Atom:   Atom  AN      X      Y      Z        X      Y      Z        X      Y      Z   
After scan for Atom:   Atom  AN      X      Y      Z        X      Y      Z        X      Y      Z   
After scan for Atom:   Atom  AN      X      Y      Z        X      Y      Z        X      Y      Z   
After scan for Atom:   Atom  AN      X      Y      Z        X      Y      Z        X      Y      Z   
After scan for Atom:   Atom  AN      X      Y      Z        X      Y      Z        X      Y      Z   
After scan for Atom:   Atom  AN      X      Y      Z        X      Y      Z        X      Y      Z   
After scan for Atom:   Atom  AN      X      Y      Z        X      Y      Z        X      Y      Z   
After scan for Atom:   Atom  AN      X      Y      Z        X      Y      Z        X      Y      Z   
 g94    frequencies=
     0.0    0.0    0.0    0.0    0.0    0.0  104.1  137.7  208.6  252.6
   290.7  424.0  438.1  463.2  472.7  567.6  572.0  595.7  649.3  654.4
   703.2  762.3  765.1  792.7  824.2  901.4  918.7  939.9  955.5  977.5
  1001.1 1096.8 1096.9 1169.3 1206.1 1250.9 1277.1 1318.9 1329.8 1406.3
  1418.9 1451.5 1489.8 1496.5 1524.6 3041.8 3072.3 3220.2 3220.4 3236.7
  3237.1
 g94    symmetries=
                                                 A      A      A      A
       A      A      A      A      A      A      A      A      A      A
       A      A      A      A      A      A      A      A      A      A
       A      A      A      A      A      A      A      A      A      A
       A      A      A      A      A      A      A      A      A      A
       A
 atomic masses:
 12.0000 12.0000 12.0000 12.0000 12.0000 12.0000 12.0000 31.9721 12.0000 12.0000
 31.9721  1.0078  1.0078  1.0078  1.0078  1.0078  1.0078
 looking for force constants in 
 ./CDT_0_C1S0.fchk                                                              
  
 Cartesian Force Constants                  R   N=        1326                  
  
 n3=          51        1326
 g94-fc frequencies=
    -2.4    0.0    0.0    0.0    2.2    4.7  104.1  137.7  208.6  252.6
   290.7  424.0  438.1  463.2  472.7  567.6  572.0  595.7  649.3  654.5
   703.2  762.3  765.1  792.7  824.3  901.4  918.8  939.9  955.6  977.5
  1001.2 1096.8 1096.9 1169.3 1206.1 1250.9 1277.1 1318.9 1329.8 1406.3
  1418.9 1451.6 1489.9 1496.6 1524.6 3041.9 3072.3 3220.3 3220.5 3236.8
  3237.2
 at 99999: n3=          51
 symm operator            1 :  F  nop=           0
 symm operator            2 :  F  nop=           0
 symm operator            3 :  F  nop=           0
 symm operator            4 :  F  nop=           0
 symm operator            5 :  F  nop=           0
 symm operator            6 :  F  nop=           0
 symm operator            7 :  F  nop=           0
 The point group of the molecule is  C1
 Symmetry rotation matrix:
   1.00000   0.00000   0.00000
   0.00000   1.00000   0.00000
   0.00000   0.00000   1.00000

 Projecting out zero-frequency components
 generating redundant internal coords
         300        3600          17
 search for int coords
   1 str   2   1   1.391
   2 str   3   2   1.390
   3 str   4   3   1.510
   4 str   5   4   1.510
   5 str   6   5   1.390
   6 str   7   6   1.391
   7 str   8   7   1.737
   8 str   9   5   1.425
   9 str   9   8   1.733
  10 str  10   3   1.425
  11 str  10   9   1.398
  12 str  11   1   1.737
  13 str  11  10   1.733
  14 str  12   1   1.081
  15 str  13   2   1.081
  16 str  14   4   1.095
  17 str  15   4   1.095
  18 str  16   6   1.081
  19 str  17   7   1.081
 nber stretches=          19
  20 ben   1   2   3
  21 prop tor   1   2   3   4
  22 prop tor   1   2   3  10
  23 ben   1   2  13
  24 ben   1  11  10
  25 ben   2   1  11
  26 prop tor   2   1  11  10
  27 ben   2   1  12
  28 ben   2   3   4
  29 prop tor   2   3   4   5
  30 prop tor   2   3   4  14
  31 prop tor   2   3   4  15
  32 ben   2   3  10
  33 prop tor   2   3  10   9
  34 prop tor   2   3  10  11
  35 ben   3   2  13
  36 ben   3   4   5
  37 prop tor   3   4   5   6
  38 prop tor   3   4   5   9
  39 ben   3   4  14
  40 ben   3   4  15
  41 ben   3  10   9
  42 ben   3  10  11
  43 prop tor   3  10  11   1
  44 ben   4   3  10
  45 prop tor   4   3  10   9
  46 prop tor   4   3  10  11
  47 ben   4   5   6
  48 prop tor   4   5   6   7
  49 prop tor   4   5   6  16
  50 ben   4   5   9
  51 prop tor   4   5   9   8
  52 prop tor   4   5   9  10
  53 ben   5   4  14
  54 ben   5   4  15
  55 ben   5   6   7
  56 prop tor   5   6   7   8
  57 prop tor   5   6   7  17
  58 ben   5   6  16
  59 ben   5   9   8
  60 ben   5   9  10
  61 prop tor   5   9  10   3
  62 prop tor   5   9  10  11
  63 ben   6   5   9
  64 prop tor   6   5   9   8
  65 prop tor   6   5   9  10
  66 ben   6   7   8
  67 prop tor   6   7   8   9
  68 ben   6   7  17
  69 ben   7   6  16
  70 ben   7   8   9
  71 prop tor   7   8   9   5
  72 prop tor   7   8   9  10
  73 ben   8   7  17
  74 ben   8   9  10
  75 prop tor   8   9  10   3
  76 prop tor   8   9  10  11
  77 prop tor   9   5   6   7
  78 prop tor   9   5   6  16
  79 ben   9  10  11
  80 prop tor   9  10  11   1
  81 prop tor  10   3   4   5
  82 prop tor  10   3   4  14
  83 prop tor  10   3   4  15
  84 prop tor  11   1   2   3
  85 prop tor  11   1   2  13
  86 ben  11   1  12
  87 prop tor  12   1   2   3
  88 prop tor  12   1   2  13
  89 prop tor  12   1  11  10
  90 prop tor  13   2   3   4
  91 prop tor  13   2   3  10
  92 prop tor  14   4   5   6
  93 prop tor  14   4   5   9
  94 ben  14   4  15
  95 prop tor  15   4   5   6
  96 prop tor  15   4   5   9
  97 prop tor  16   6   7   8
  98 prop tor  16   6   7  17
  99 prop tor  17   7   8   9
 nber bend=              32
 nber lin bend=           0
 nber prop tor=          48
 nber impr tor=           0
 nber tot redund int=          99
 Eigenvalues of G in red int coords
    Gval -0.00000000 -0.00000000 -0.00000000 -0.00000000 -0.00000000 -0.00000000 -0.00000000 -0.00000000
    Gval -0.00000000 -0.00000000 -0.00000000 -0.00000000 -0.00000000 -0.00000000 -0.00000000 -0.00000000
    Gval -0.00000000 -0.00000000 -0.00000000 -0.00000000 -0.00000000 -0.00000000 -0.00000000 -0.00000000
    Gval -0.00000000 -0.00000000 -0.00000000  0.00000000  0.00000000  0.00000000  0.00000000  0.00000000
    Gval  0.00000000  0.00000000  0.00000000  0.00000000  0.00000000  0.00000000  0.00000000  0.00000000
    Gval  0.00000000  0.00000000  0.00000000  0.00000000  0.00000000  0.00000000  0.00000000  0.00000000
    Gval  0.00000000  0.00000000  0.00000000  0.00000000  0.00000000  0.00000000  0.00000778  0.00001804
    Gval  0.00002331  0.00003813  0.00004621  0.00004879  0.00005728  0.00006164  0.00008133  0.00008769
    Gval  0.00009362  0.00009400  0.00012212  0.00013472  0.00015342  0.00018610  0.00028275  0.00029416
    Gval  0.00029628  0.00031623  0.00036069  0.00037532  0.00042131  0.00042580  0.00058334  0.00059655
    Gval  0.00059689  0.00061519  0.00062364  0.00062605  0.00107751  0.00108025  0.00108113  0.00117975
    Gval  0.00118018  0.00131412  0.00134651  0.00167189  0.00192650  0.00196619  0.00223963  0.00277601
    Gval  0.00302730  0.00401281  0.00411777
  7.781541759539449E-006  7.781541759539449E-006
  1.804327359644873E-005  7.781541759539449E-006
  2.331193030122889E-005  7.781541759539449E-006
  3.812725809153308E-005  7.781541759539449E-006
  4.620591240185665E-005  7.781541759539449E-006
  4.878927464922723E-005  7.781541759539449E-006
  5.728463082472392E-005  7.781541759539449E-006
  6.163734518044524E-005  7.781541759539449E-006
  8.133160787863596E-005  7.781541759539449E-006
  8.768883510912209E-005  7.781541759539449E-006
  9.362019560855000E-005  7.781541759539449E-006
  9.399819907582964E-005  7.781541759539449E-006
  1.221194588612851E-004  7.781541759539449E-006
  1.347199629589217E-004  7.781541759539449E-006
  1.534180455227457E-004  7.781541759539449E-006
  1.861023992434128E-004  7.781541759539449E-006
  2.827542261054291E-004  7.781541759539449E-006
  2.941578689766456E-004  7.781541759539449E-006
  2.962761924952256E-004  7.781541759539449E-006
  3.162342203776802E-004  7.781541759539449E-006
  3.606850953402988E-004  7.781541759539449E-006
  3.753216400953531E-004  7.781541759539449E-006
  4.213108554555921E-004  7.781541759539449E-006
  4.258013476573166E-004  7.781541759539449E-006
  5.833386261180285E-004  7.781541759539449E-006
  5.965491091685150E-004  7.781541759539449E-006
  5.968904393994691E-004  7.781541759539449E-006
  6.151911065746184E-004  7.781541759539449E-006
  6.236370246208607E-004  7.781541759539449E-006
  6.260530097730937E-004  7.781541759539449E-006
  1.077513527291635E-003  7.781541759539449E-006
  1.080253330800223E-003  7.781541759539449E-006
  1.081134708638267E-003  7.781541759539449E-006
  1.179746212910665E-003  7.781541759539449E-006
  1.180178939977726E-003  7.781541759539449E-006
  1.314119389718795E-003  7.781541759539449E-006
  1.346514664172152E-003  7.781541759539449E-006
  1.671894428045619E-003  7.781541759539449E-006
  1.926502426993253E-003  7.781541759539449E-006
  1.966194848053527E-003  7.781541759539449E-006
  2.239632588692074E-003  7.781541759539449E-006
  2.776009737813097E-003  7.781541759539449E-006
  3.027295108495367E-003  7.781541759539449E-006
  4.012810514390340E-003  7.781541759539449E-006
  4.117766975263988E-003  7.781541759539449E-006
 cut=1d-8, nber non-redundant internal coords=          45
 Check on Eigenvals of non-red overlap matrix:
  0.00000778  0.00001804  0.00002331  0.00003813  0.00004621  0.00004879  0.00005728  0.00006164
  0.00008133  0.00008769  0.00009362  0.00009400  0.00012212  0.00013472  0.00015342  0.00018610
  0.00028275  0.00029416  0.00029628  0.00031623  0.00036069  0.00037532  0.00042131  0.00042580
  0.00058334  0.00059655  0.00059689  0.00061519  0.00062364  0.00062605  0.00107751  0.00108025
  0.00108113  0.00117975  0.00118018  0.00131412  0.00134651  0.00167189  0.00192650  0.00196619
  0.00223963  0.00277601  0.00302730  0.00401281  0.00411777
 Checking for correct frequencies
 recalc frequencies=
    -0.0   -0.0   -0.0    0.0    0.0    0.0  104.1  137.7  208.6  252.6
   290.7  424.0  438.1  463.2  472.7  567.6  572.0  595.7  649.3  654.5
   703.2  762.3  765.1  792.7  824.3  901.4  918.8  939.9  955.6  977.5
  1001.2 1096.8 1096.9 1169.3 1206.1 1250.9 1277.1 1318.9 1329.8 1406.3
  1418.9 1451.6 1489.9 1496.6 1524.6 3041.9 3072.3 3220.3 3220.5 3236.8
  3237.2
 recalc symmetries=
                                                                       
                                                                       
                                                                       
                                                                       
                                                                       
        
 recalc freqs check OK
 Zero-point lengths:
 10.0000 10.0000 10.0000 10.0000 10.0000 10.0000 24.2929 21.1289 17.1658 15.5979
 14.5394 12.0390 11.8440 11.5188 11.4022 10.4054 10.3653 10.1573  9.7289  9.6907
  9.3489  8.9791  8.9626  8.8050  8.6350  8.2572  8.1789  8.0863  8.0198  7.9294
  7.8351  7.4857  7.4853  7.2499  7.1384  7.0095  6.9371  6.8263  6.7983  6.6109
  6.5813  6.5070  6.4228  6.4083  6.3491  4.4950  4.4726  4.3687  4.3685  4.3575
  4.3573
 highest evec of mol 2
 -0.1857 -0.0481 -0.0004
 -0.0458  0.0868 -0.0002
  0.0070 -0.0008  0.0000
 -0.0000  0.0004 -0.0000
 -0.0068 -0.0007 -0.0000
  0.0455  0.0836  0.0000
  0.1796 -0.0491  0.0004
 -0.0012 -0.0013 -0.0000
 -0.0033 -0.0002 -0.0000
  0.0034 -0.0002  0.0000
  0.0012 -0.0014  0.0000
  0.6027  0.1302  0.0012
  0.1571 -0.2525  0.0005
 -0.0000 -0.0006 -0.0005
 -0.0000 -0.0006  0.0005
 -0.1555 -0.2427 -0.0002
 -0.5831  0.1341 -0.0013
 Enter nber and list of atoms to keep of mol #2
 keep list:          17           1           2           3           4
           5           6           7           8           9          10
          11          12          13          14          15          16
          17
 reordering atoms
           1  -3.13453891799033     
           2  -2.55479482908339     
           3  -1.16728877154538     
           4  3.531791035417334E-007
           5   1.16729023109298     
           6   2.55479695316023     
           7   3.13453719702558     
           8   1.99601030248413     
           9  0.698806609574567     
          10 -0.698806508562014     
          11  -1.99601117206236     
          12  -4.19073849925319     
          13  -3.13747867962573     
          14 -1.765303985930972E-006
          15 -2.232437987190585E-006
          16   3.13748457457605     
          17   4.19073619061817     
           1           1
           2           2
           3           3
           4           4
           5           5
           6           6
           7           7
           8           8
           9           9
          10          10
          11          11
          12          12
          13          13
          14          14
          15          15
          16          16
          17          17
 initial cartes coords mol 1
   6   0.00000   0.03545  -3.15871
   6   0.00000   1.28625  -2.55355
   6   0.00000   1.21705  -1.16391
   6  -0.00000   2.18674  -0.00000
   6  -0.00000   1.21705   1.16391
   6   0.00000   1.28625   2.55355
   6   0.00001   0.03545   3.15870
  16   0.00000  -1.30645   2.01205
   6  -0.00000  -0.15128   0.69095
   6  -0.00000  -0.15128  -0.69095
  16  -0.00000  -1.30645  -2.01205
   1   0.00001  -0.18644  -4.21515
   1   0.00001   2.20144  -3.13237
   1   0.87814   2.85810  -0.00000
   1  -0.87815   2.85809  -0.00000
   1   0.00000   2.20143   3.13238
   1   0.00001  -0.18644   4.21515
 initial cartes coords mol 2
   6  -0.00000   0.01929  -3.13454
   6  -0.00000   1.28397  -2.55479
   6   0.00000   1.20251  -1.16729
   6   0.00000   2.16063   0.00000
   6   0.00000   1.20251   1.16729
   6  -0.00000   1.28397   2.55480
   6   0.00000   0.01928   3.13454
  16  -0.00000  -1.29219   1.99601
   6   0.00000  -0.14326   0.69881
   6   0.00000  -0.14326  -0.69881
  16  -0.00000  -1.29219  -1.99601
   1  -0.00000  -0.21239  -4.19074
   1  -0.00000   2.19486  -3.13748
   1   0.88036   2.81206  -0.00000
   1  -0.88036   2.81206  -0.00000
   1  -0.00000   2.19486   3.13748
   1  -0.00000  -0.21240   4.19074
 loop 1 0
 mod cartes coords mol 2
   6  -0.00000   0.01929  -3.13454
   6  -0.00000   1.28397  -2.55479
   6   0.00000   1.20251  -1.16729
   6   0.00000   2.16063   0.00000
   6   0.00000   1.20251   1.16729
   6  -0.00000   1.28397   2.55480
   6   0.00000   0.01928   3.13454
  16  -0.00000  -1.29219   1.99601
   6   0.00000  -0.14326   0.69881
   6   0.00000  -0.14326  -0.69881
  16  -0.00000  -1.29219  -1.99601
   1  -0.00000  -0.21239  -4.19074
   1  -0.00000   2.19486  -3.13748
   1   0.88036   2.81206  -0.00000
   1  -0.88036   2.81206  -0.00000
   1  -0.00000   2.19486   3.13748
   1  -0.00000  -0.21240   4.19074
 read in order, maxerr=  0.05 for atom  14
 final axis swaps:           1           1           1
 final xyz swap pattern=           1
 reorder list:
   1   2   3   4   5   6   7   8   9  10  11  12  13  14  15  16  17
 axis signs=           1           1           1
  6    -0.000001  0.019288 -3.134539     0.000003  0.035449 -3.158706
  6    -0.000000  1.283970 -2.554795     0.000003  1.286249 -2.553548
  6     0.000001  1.202512 -1.167289     0.000001  1.217047 -1.163910
  6     0.000000  2.160631  0.000000    -0.000002  2.186744 -0.000000
  6     0.000001  1.202513  1.167290    -0.000003  1.217048  1.163912
  6    -0.000001  1.283969  2.554797     0.000000  1.286247  2.553551
  6     0.000000  0.019284  3.134537     0.000006  0.035447  3.158704
 16    -0.000000 -1.292185  1.996010     0.000000 -1.306453  2.012045
  6     0.000001 -0.143261  0.698807    -0.000004 -0.151281  0.690955
  6     0.000001 -0.143263 -0.698807    -0.000001 -0.151283 -0.690954
 16    -0.000000 -1.292187 -1.996011    -0.000001 -1.306453 -2.012047
  1    -0.000002 -0.212395 -4.190738     0.000006 -0.186440 -4.215153
  1    -0.000001  2.194862 -3.137479     0.000006  2.201435 -3.132370
  1     0.880359  2.812061 -0.000002     0.878145  2.858096 -0.000001
  1    -0.880359  2.812061 -0.000002    -0.878153  2.858092 -0.000004
  1    -0.000002  2.194858  3.137485     0.000002  2.201431  3.132377
  1    -0.000001 -0.212397  4.190736     0.000009 -0.186443  4.215151
 generating redundant internal coords
         300        3600          17
 Adding extra bonds for z output only
           6           6           6           6           6           6
           6          16           6           6          16           1
           1           1           1           1           1
 search for int coords
   1 str   2   1   1.391
   2 str   3   2   1.390
   3 str   4   3   1.510
   4 str   5   4   1.510
   5 str   6   5   1.390
   6 str   7   6   1.391
   7 str   8   7   1.737
   8 str   9   5   1.425
   9 str   9   8   1.733
  10 str  10   3   1.425
  11 str  10   9   1.398
  12 str  11   1   1.737
  13 str  11  10   1.733
  14 str  12   1   1.081
  15 str  13   2   1.081
  16 str  14   4   1.095
  17 str  15   4   1.095
  18 str  16   6   1.081
  19 str  17   7   1.081
 nber stretches=          19
  20 ben   1   2   3
  21 prop tor   1   2   3   4
  22 prop tor   1   2   3  10
  23 ben   1   2  13
  24 ben   1  11  10
  25 ben   2   1  11
  26 prop tor   2   1  11  10
  27 ben   2   1  12
  28 ben   2   3   4
  29 prop tor   2   3   4   5
  30 prop tor   2   3   4  14
  31 prop tor   2   3   4  15
  32 ben   2   3  10
  33 prop tor   2   3  10   9
  34 prop tor   2   3  10  11
  35 ben   3   2  13
  36 ben   3   4   5
  37 prop tor   3   4   5   6
  38 prop tor   3   4   5   9
  39 ben   3   4  14
  40 ben   3   4  15
  41 ben   3  10   9
  42 ben   3  10  11
  43 prop tor   3  10  11   1
  44 ben   4   3  10
  45 prop tor   4   3  10   9
  46 prop tor   4   3  10  11
  47 ben   4   5   6
  48 prop tor   4   5   6   7
  49 prop tor   4   5   6  16
  50 ben   4   5   9
  51 prop tor   4   5   9   8
  52 prop tor   4   5   9  10
  53 ben   5   4  14
  54 ben   5   4  15
  55 ben   5   6   7
  56 prop tor   5   6   7   8
  57 prop tor   5   6   7  17
  58 ben   5   6  16
  59 ben   5   9   8
  60 ben   5   9  10
  61 prop tor   5   9  10   3
  62 prop tor   5   9  10  11
  63 ben   6   5   9
  64 prop tor   6   5   9   8
  65 prop tor   6   5   9  10
  66 ben   6   7   8
  67 prop tor   6   7   8   9
  68 ben   6   7  17
  69 ben   7   6  16
  70 ben   7   8   9
  71 prop tor   7   8   9   5
  72 prop tor   7   8   9  10
  73 ben   8   7  17
  74 ben   8   9  10
  75 prop tor   8   9  10   3
  76 prop tor   8   9  10  11
  77 prop tor   9   5   6   7
  78 prop tor   9   5   6  16
  79 ben   9  10  11
  80 prop tor   9  10  11   1
  81 prop tor  10   3   4   5
  82 prop tor  10   3   4  14
  83 prop tor  10   3   4  15
  84 prop tor  11   1   2   3
  85 prop tor  11   1   2  13
  86 ben  11   1  12
  87 prop tor  12   1   2   3
  88 prop tor  12   1   2  13
  89 prop tor  12   1  11  10
  90 prop tor  13   2   3   4
  91 prop tor  13   2   3  10
  92 prop tor  14   4   5   6
  93 prop tor  14   4   5   9
  94 ben  14   4  15
  95 prop tor  15   4   5   6
  96 prop tor  15   4   5   9
  97 prop tor  16   6   7   8
  98 prop tor  16   6   7  17
  99 prop tor  17   7   8   9
 nber bend=              32
 nber lin bend=           0
 nber prop tor=          48
 nber impr tor=           0
 nber tot redund int=          99
 generating redundant internal coords
         300        3600          17
 search for int coords
   1 str   2   1   1.390
   2 str   3   2   1.391
   3 str   4   3   1.515
   4 str   5   4   1.515
   5 str   6   5   1.391
   6 str   7   6   1.390
   7 str   8   7   1.765
   8 str   9   5   1.448
   9 str   9   8   1.755
  10 str  10   3   1.448
  11 str  10   9   1.382
  12 str  11   1   1.765
  13 str  11  10   1.755
  14 str  12   1   1.079
  15 str  13   2   1.083
  16 str  14   4   1.105
  17 str  15   4   1.105
  18 str  16   6   1.083
  19 str  17   7   1.079
 nber stretches=          19
  20 ben   1   2   3
  21 prop tor   1   2   3   4
  22 prop tor   1   2   3  10
  23 ben   1   2  13
  24 ben   1  11  10
  25 ben   2   1  11
  26 prop tor   2   1  11  10
  27 ben   2   1  12
  28 ben   2   3   4
  29 prop tor   2   3   4   5
  30 prop tor   2   3   4  14
  31 prop tor   2   3   4  15
  32 ben   2   3  10
  33 prop tor   2   3  10   9
  34 prop tor   2   3  10  11
  35 ben   3   2  13
  36 ben   3   4   5
  37 prop tor   3   4   5   6
  38 prop tor   3   4   5   9
  39 ben   3   4  14
  40 ben   3   4  15
  41 ben   3  10   9
  42 ben   3  10  11
  43 prop tor   3  10  11   1
  44 ben   4   3  10
  45 prop tor   4   3  10   9
  46 prop tor   4   3  10  11
  47 ben   4   5   6
  48 prop tor   4   5   6   7
  49 prop tor   4   5   6  16
  50 ben   4   5   9
  51 prop tor   4   5   9   8
  52 prop tor   4   5   9  10
  53 ben   5   4  14
  54 ben   5   4  15
  55 ben   5   6   7
  56 prop tor   5   6   7   8
  57 prop tor   5   6   7  17
  58 ben   5   6  16
  59 ben   5   9   8
  60 ben   5   9  10
  61 prop tor   5   9  10   3
  62 prop tor   5   9  10  11
  63 ben   6   5   9
  64 prop tor   6   5   9   8
  65 prop tor   6   5   9  10
  66 ben   6   7   8
  67 prop tor   6   7   8   9
  68 ben   6   7  17
  69 ben   7   6  16
  70 ben   7   8   9
  71 prop tor   7   8   9   5
  72 prop tor   7   8   9  10
  73 ben   8   7  17
  74 ben   8   9  10
  75 prop tor   8   9  10   3
  76 prop tor   8   9  10  11
  77 prop tor   9   5   6   7
  78 prop tor   9   5   6  16
  79 ben   9  10  11
  80 prop tor   9  10  11   1
  81 prop tor  10   3   4   5
  82 prop tor  10   3   4  14
  83 prop tor  10   3   4  15
  84 prop tor  11   1   2   3
  85 prop tor  11   1   2  13
  86 ben  11   1  12
  87 prop tor  12   1   2   3
  88 prop tor  12   1   2  13
  89 prop tor  12   1  11  10
  90 prop tor  13   2   3   4
  91 prop tor  13   2   3  10
  92 prop tor  14   4   5   6
  93 prop tor  14   4   5   9
  94 ben  14   4  15
  95 prop tor  15   4   5   6
  96 prop tor  15   4   5   9
  97 prop tor  16   6   7   8
  98 prop tor  16   6   7  17
  99 prop tor  17   7   8   9
 nber bend=              32
 nber lin bend=           0
 nber prop tor=          48
 nber impr tor=           0
 nber tot redund int=          99
 Eigenvalues of G in red int coords
    Gval -0.00000000 -0.00000000 -0.00000000 -0.00000000 -0.00000000 -0.00000000 -0.00000000 -0.00000000
    Gval -0.00000000 -0.00000000 -0.00000000 -0.00000000 -0.00000000 -0.00000000 -0.00000000 -0.00000000
    Gval -0.00000000 -0.00000000 -0.00000000 -0.00000000 -0.00000000 -0.00000000 -0.00000000 -0.00000000
    Gval -0.00000000 -0.00000000 -0.00000000  0.00000000  0.00000000  0.00000000  0.00000000  0.00000000
    Gval  0.00000000  0.00000000  0.00000000  0.00000000  0.00000000  0.00000000  0.00000000  0.00000000
    Gval  0.00000000  0.00000000  0.00000000  0.00000000  0.00000000  0.00000000  0.00000000  0.00000000
    Gval  0.00000000  0.00000000  0.00000000  0.00000000  0.00000000  0.00000000  0.00000774  0.00001791
    Gval  0.00002329  0.00003800  0.00004595  0.00004845  0.00005727  0.00006080  0.00007972  0.00008746
    Gval  0.00009312  0.00009347  0.00012099  0.00013473  0.00015183  0.00018517  0.00027935  0.00028807
    Gval  0.00029710  0.00031860  0.00035390  0.00037532  0.00042380  0.00042535  0.00058484  0.00059646
    Gval  0.00059683  0.00061374  0.00062370  0.00062626  0.00107633  0.00108067  0.00108163  0.00117794
    Gval  0.00117832  0.00129028  0.00133691  0.00165918  0.00192476  0.00197285  0.00225408  0.00278258
    Gval  0.00298191  0.00396447  0.00406925
  7.740756787771134E-006  7.740756787771134E-006
  1.791497109967253E-005  7.740756787771134E-006
  2.328816651150037E-005  7.740756787771134E-006
  3.800231979784113E-005  7.740756787771134E-006
  4.595251489937047E-005  7.740756787771134E-006
  4.844967907174187E-005  7.740756787771134E-006
  5.727120852044343E-005  7.740756787771134E-006
  6.079559634178515E-005  7.740756787771134E-006
  7.972346796087286E-005  7.740756787771134E-006
  8.746042165039882E-005  7.740756787771134E-006
  9.312466555942058E-005  7.740756787771134E-006
  9.346589969798411E-005  7.740756787771134E-006
  1.209924744051616E-004  7.740756787771134E-006
  1.347343620899980E-004  7.740756787771134E-006
  1.518332424773541E-004  7.740756787771134E-006
  1.851716240168489E-004  7.740756787771134E-006
  2.793476936827336E-004  7.740756787771134E-006
  2.880738842325393E-004  7.740756787771134E-006
  2.970988012152191E-004  7.740756787771134E-006
  3.185983320649385E-004  7.740756787771134E-006
  3.539042981108542E-004  7.740756787771134E-006
  3.753175132905155E-004  7.740756787771134E-006
  4.238049532379857E-004  7.740756787771134E-006
  4.253517392530108E-004  7.740756787771134E-006
  5.848441815420259E-004  7.740756787771134E-006
  5.964606401502902E-004  7.740756787771134E-006
  5.968257805851823E-004  7.740756787771134E-006
  6.137424915249824E-004  7.740756787771134E-006
  6.237046779256020E-004  7.740756787771134E-006
  6.262581112234570E-004  7.740756787771134E-006
  1.076327962961583E-003  7.740756787771134E-006
  1.080668976924580E-003  7.740756787771134E-006
  1.081634188847441E-003  7.740756787771134E-006
  1.177939005938343E-003  7.740756787771134E-006
  1.178316562199581E-003  7.740756787771134E-006
  1.290278225702585E-003  7.740756787771134E-006
  1.336907866554289E-003  7.740756787771134E-006
  1.659175034184991E-003  7.740756787771134E-006
  1.924760955355249E-003  7.740756787771134E-006
  1.972849225709150E-003  7.740756787771134E-006
  2.254076031955295E-003  7.740756787771134E-006
  2.782581773432707E-003  7.740756787771134E-006
  2.981907342400544E-003  7.740756787771134E-006
  3.964472492001607E-003  7.740756787771134E-006
  4.069251229211157E-003  7.740756787771134E-006
 cut=1d-8, nber non-redundant internal coords=          45
 Check on Eigenvals of non-red overlap matrix:
  0.00000774  0.00001791  0.00002329  0.00003800  0.00004595  0.00004845  0.00005727  0.00006080
  0.00007972  0.00008746  0.00009312  0.00009347  0.00012099  0.00013473  0.00015183  0.00018517
  0.00027935  0.00028807  0.00029710  0.00031860  0.00035390  0.00037532  0.00042380  0.00042535
  0.00058484  0.00059646  0.00059683  0.00061374  0.00062370  0.00062626  0.00107633  0.00108067
  0.00108163  0.00117794  0.00117832  0.00129028  0.00133691  0.00165918  0.00192476  0.00197285
  0.00225408  0.00278258  0.00298191  0.00396447  0.00406925
 generating redundant internal coords
         300        3600          17
 search for int coords
   1 str   2   1   1.391
   2 str   3   2   1.390
   3 str   4   3   1.510
   4 str   5   4   1.510
   5 str   6   5   1.390
   6 str   7   6   1.391
   7 str   8   7   1.737
   8 str   9   5   1.425
   9 str   9   8   1.733
  10 str  10   3   1.425
  11 str  10   9   1.398
  12 str  11   1   1.737
  13 str  11  10   1.733
  14 str  12   1   1.081
  15 str  13   2   1.081
  16 str  14   4   1.095
  17 str  15   4   1.095
  18 str  16   6   1.081
  19 str  17   7   1.081
 nber stretches=          19
  20 ben   1   2   3
  21 prop tor   1   2   3   4
  22 prop tor   1   2   3  10
  23 ben   1   2  13
  24 ben   1  11  10
  25 ben   2   1  11
  26 prop tor   2   1  11  10
  27 ben   2   1  12
  28 ben   2   3   4
  29 prop tor   2   3   4   5
  30 prop tor   2   3   4  14
  31 prop tor   2   3   4  15
  32 ben   2   3  10
  33 prop tor   2   3  10   9
  34 prop tor   2   3  10  11
  35 ben   3   2  13
  36 ben   3   4   5
  37 prop tor   3   4   5   6
  38 prop tor   3   4   5   9
  39 ben   3   4  14
  40 ben   3   4  15
  41 ben   3  10   9
  42 ben   3  10  11
  43 prop tor   3  10  11   1
  44 ben   4   3  10
  45 prop tor   4   3  10   9
  46 prop tor   4   3  10  11
  47 ben   4   5   6
  48 prop tor   4   5   6   7
  49 prop tor   4   5   6  16
  50 ben   4   5   9
  51 prop tor   4   5   9   8
  52 prop tor   4   5   9  10
  53 ben   5   4  14
  54 ben   5   4  15
  55 ben   5   6   7
  56 prop tor   5   6   7   8
  57 prop tor   5   6   7  17
  58 ben   5   6  16
  59 ben   5   9   8
  60 ben   5   9  10
  61 prop tor   5   9  10   3
  62 prop tor   5   9  10  11
  63 ben   6   5   9
  64 prop tor   6   5   9   8
  65 prop tor   6   5   9  10
  66 ben   6   7   8
  67 prop tor   6   7   8   9
  68 ben   6   7  17
  69 ben   7   6  16
  70 ben   7   8   9
  71 prop tor   7   8   9   5
  72 prop tor   7   8   9  10
  73 ben   8   7  17
  74 ben   8   9  10
  75 prop tor   8   9  10   3
  76 prop tor   8   9  10  11
  77 prop tor   9   5   6   7
  78 prop tor   9   5   6  16
  79 ben   9  10  11
  80 prop tor   9  10  11   1
  81 prop tor  10   3   4   5
  82 prop tor  10   3   4  14
  83 prop tor  10   3   4  15
  84 prop tor  11   1   2   3
  85 prop tor  11   1   2  13
  86 ben  11   1  12
  87 prop tor  12   1   2   3
  88 prop tor  12   1   2  13
  89 prop tor  12   1  11  10
  90 prop tor  13   2   3   4
  91 prop tor  13   2   3  10
  92 prop tor  14   4   5   6
  93 prop tor  14   4   5   9
  94 ben  14   4  15
  95 prop tor  15   4   5   6
  96 prop tor  15   4   5   9
  97 prop tor  16   6   7   8
  98 prop tor  16   6   7  17
  99 prop tor  17   7   8   9
 nber bend=              32
 nber lin bend=           0
 nber prop tor=          48
 nber impr tor=           0
 nber tot redund int=          99
 Eigenvalues of G in red int coords
    Gval -0.00000000 -0.00000000 -0.00000000 -0.00000000 -0.00000000 -0.00000000 -0.00000000 -0.00000000
    Gval -0.00000000 -0.00000000 -0.00000000 -0.00000000 -0.00000000 -0.00000000 -0.00000000 -0.00000000
    Gval -0.00000000 -0.00000000 -0.00000000 -0.00000000 -0.00000000 -0.00000000 -0.00000000 -0.00000000
    Gval -0.00000000 -0.00000000  0.00000000  0.00000000  0.00000000  0.00000000  0.00000000  0.00000000
    Gval  0.00000000  0.00000000  0.00000000  0.00000000  0.00000000  0.00000000  0.00000000  0.00000000
    Gval  0.00000000  0.00000000  0.00000000  0.00000000  0.00000000  0.00000000  0.00000000  0.00000000
    Gval  0.00000000  0.00000000  0.00000000  0.00000000  0.00000000  0.00000000  0.00000778  0.00001804
    Gval  0.00002331  0.00003813  0.00004621  0.00004879  0.00005728  0.00006164  0.00008133  0.00008769
    Gval  0.00009362  0.00009400  0.00012212  0.00013472  0.00015342  0.00018610  0.00028275  0.00029416
    Gval  0.00029628  0.00031623  0.00036069  0.00037532  0.00042131  0.00042580  0.00058334  0.00059655
    Gval  0.00059689  0.00061519  0.00062364  0.00062605  0.00107751  0.00108025  0.00108113  0.00117975
    Gval  0.00118018  0.00131412  0.00134651  0.00167189  0.00192650  0.00196619  0.00223963  0.00277601
    Gval  0.00302730  0.00401281  0.00411777
  7.781541759539508E-006  7.781541759539508E-006
  1.804327359644885E-005  7.781541759539508E-006
  2.331193030122891E-005  7.781541759539508E-006
  3.812725809153307E-005  7.781541759539508E-006
  4.620591240185672E-005  7.781541759539508E-006
  4.878927464922723E-005  7.781541759539508E-006
  5.728463082472400E-005  7.781541759539508E-006
  6.163734518044494E-005  7.781541759539508E-006
  8.133160787863602E-005  7.781541759539508E-006
  8.768883510912215E-005  7.781541759539508E-006
  9.362019560855003E-005  7.781541759539508E-006
  9.399819907582954E-005  7.781541759539508E-006
  1.221194588612851E-004  7.781541759539508E-006
  1.347199629589218E-004  7.781541759539508E-006
  1.534180455227457E-004  7.781541759539508E-006
  1.861023992434128E-004  7.781541759539508E-006
  2.827542261054293E-004  7.781541759539508E-006
  2.941578689766455E-004  7.781541759539508E-006
  2.962761924952258E-004  7.781541759539508E-006
  3.162342203776802E-004  7.781541759539508E-006
  3.606850953402989E-004  7.781541759539508E-006
  3.753216400953531E-004  7.781541759539508E-006
  4.213108554555927E-004  7.781541759539508E-006
  4.258013476573166E-004  7.781541759539508E-006
  5.833386261180281E-004  7.781541759539508E-006
  5.965491091685155E-004  7.781541759539508E-006
  5.968904393994696E-004  7.781541759539508E-006
  6.151911065746192E-004  7.781541759539508E-006
  6.236370246208611E-004  7.781541759539508E-006
  6.260530097730939E-004  7.781541759539508E-006
  1.077513527291640E-003  7.781541759539508E-006
  1.080253330800222E-003  7.781541759539508E-006
  1.081134708638267E-003  7.781541759539508E-006
  1.179746212910668E-003  7.781541759539508E-006
  1.180178939977728E-003  7.781541759539508E-006
  1.314119389718791E-003  7.781541759539508E-006
  1.346514664172147E-003  7.781541759539508E-006
  1.671894428045620E-003  7.781541759539508E-006
  1.926502426993254E-003  7.781541759539508E-006
  1.966194848053534E-003  7.781541759539508E-006
  2.239632588692079E-003  7.781541759539508E-006
  2.776009737813098E-003  7.781541759539508E-006
  3.027295108495373E-003  7.781541759539508E-006
  4.012810514390333E-003  7.781541759539508E-006
  4.117766975263983E-003  7.781541759539508E-006
 cut=1d-8, nber non-redundant internal coords=          45
 Check on Eigenvals of non-red overlap matrix:
  0.00000778  0.00001804  0.00002331  0.00003813  0.00004621  0.00004879  0.00005728  0.00006164
  0.00008133  0.00008769  0.00009362  0.00009400  0.00012212  0.00013472  0.00015342  0.00018610
  0.00028275  0.00029416  0.00029628  0.00031623  0.00036069  0.00037532  0.00042131  0.00042580
  0.00058334  0.00059655  0.00059689  0.00061519  0.00062364  0.00062605  0.00107751  0.00108025
  0.00108113  0.00117975  0.00118018  0.00131412  0.00134651  0.00167189  0.00192650  0.00196619
  0.00223963  0.00277601  0.00302730  0.00401281  0.00411777
 d1=
   6.7  -2.0  -0.0  -7.2  -0.0  -0.0   0.9  -0.0  -0.0  -0.0   0.9   0.0   0.9  -3.7   0.0  -3.5   0.0   0.0  -0.0   0.0
  -0.5  -1.3   0.0  -0.0  -0.3   0.0   0.1   0.0   0.0  -0.8   0.0  -0.0   0.4  -0.0  -0.4  -0.0   0.0  -0.0  -0.0  -0.0
  -0.0  -0.0   0.9   0.0  -0.0
 d2=
   6.7  -2.0  -0.0   7.2  -0.0   0.0  -0.9  -0.0  -0.0   0.0   0.9  -0.0  -1.1  -3.7   0.0   3.5  -0.0   0.0  -0.0   0.0
  -0.5  -1.2   0.0  -0.0  -0.3   0.0  -0.1   0.0  -0.0   0.8  -0.0  -0.0  -0.5   0.0   0.4   0.0  -0.0   0.0   0.0   0.0
   0.0   0.0  -0.9  -0.0   0.0
 curvilinear- renormalizn of Dush matrix done
  mol 1 sym            1  -> mol 2 sym            1

 Dushinsky matrix, ncs 2 in terms of ncs 1

   mode   freq    coeff     %      %tot     of    at

   1        -0. -0.0000     0.0     0.0   7        27.
   2        -0.  0.0000     0.0     0.0   8       115.
   3        -0.  0.0000     0.0     0.0   7        27.
   4         0.  0.0000     0.0     0.0  10       202.
   5         0.  0.0000     0.0     0.0   7        27.
   6         0. -0.0000     0.0     0.0   7        27.
   7       104.  0.9919    98.4   101.7   7        27.
   8       138. -0.9605    92.3   101.0   8       115.
   9       209.  0.9999   100.0   101.1   9       199.
  10       253.  0.9889    97.8   101.3  10       202.
  11       291. -0.9554    91.3    99.5  11       215.
  12       424. -0.9890    97.8    99.6  13       405.
  13       438. -0.9659    93.3   101.0  12       339.
  14       463. -0.9981    99.6   100.4  15       445.
  15       473. -0.9828    96.6    99.1  14       435.
  16       568.  0.9516    90.6   101.1  16       498.
  17       572. -0.9697    94.0   102.2  17       534.
  18       596.  0.9978    99.6   101.4  18       565.
  19       649.  0.9771    95.5   100.4  21       624.
  20       654. -0.8561    73.3    99.9  19       611.
                 0.4985    24.9          22       632.
  21       703. -0.9902    98.0   100.4  23       673.
  22       762.  0.9678    93.7    99.7  20       621.
  23       765. -0.5016    25.2    99.6  19       611.
                -0.8285    68.6          22       632.
  24       793. -0.9958    99.2   100.3  24       759.
  25       824.  0.9874    97.5   100.1  25       791.
  26       901.  0.9177    84.2   100.8  26       861.
  27       919. -0.9754    95.1   101.2  27       867.
  28       940. -0.9718    94.4   101.3  28       909.
  29       956. -0.3295    10.9   100.9  26       861.
                 0.9342    87.3          30       961.
  30       977. -0.9854    97.1   100.1  29       936.
  31      1001.  0.9710    94.3    99.8  31       966.
  32      1097.  0.9861    97.2    99.9  33      1088.
  33      1097. -0.9859    97.2   100.0  32      1077.
  34      1169. -0.9984    99.7   101.5  34      1117.
  35      1206.  0.7657    58.6   100.9  35      1199.
                 0.6251    39.1          36      1212.
  36      1251. -0.9837    96.8   100.3  37      1226.
  37      1277. -0.5651    31.9   100.0  35      1199.
                 0.7617    58.0          36      1212.
  38      1319. -0.9736    94.8   100.0  38      1302.
  39      1330.  0.9494    90.1    99.9  39      1310.
  40      1406. -0.9347    87.4   100.5  41      1403.
  41      1419.  0.9437    89.1   100.9  40      1397.
  42      1452. -0.7073    50.0   101.3  42      1456.
                -0.6322    40.0          44      1497.
  43      1490. -0.5644    31.9   100.3  42      1456.
                 0.7175    51.5          44      1497.
                 0.3887    15.1          45      1549.
  44      1497. -0.9673    93.6   100.6  43      1492.
  45      1525.  0.4052    16.4   101.0  42      1456.
                 0.8927    79.7          45      1549.
  46      3042. -0.9983    99.7    99.8  47      2866.
  47      3072.  0.9999   100.0   100.2  46      2829.
  48      3220.  0.9606    92.3   100.0  48      3193.
  49      3220.  0.9633    92.8   100.0  49      3194.
  50      3237.  0.9602    92.2   100.0  50      3239.
  51      3237. -0.9629    92.7   100.0  51      3239.
 nber times 1st assigned=           1           0
 nber times 1st assigned=           2           0
 nber times 1st assigned=           3           0
 nber times 1st assigned=           4           0
 nber times 1st assigned=           5           0
 nber times 1st assigned=           6           0
 nber times 1st assigned=           7           4
 nber times 1st assigned=           9           0
 nber times 1st assigned=          11           0
 nber times 1st assigned=          12           0
 nber times 1st assigned=          13           0
 nber times 1st assigned=          14           0
 nber times 1st assigned=          15           0
 nber times 1st assigned=          16           0
 nber times 1st assigned=          17           0
 nber times 1st assigned=          18           0
 nber times 1st assigned=          19           0
 nber times 1st assigned=          20           0
 nber times 1st assigned=          21           0
 nber times 1st assigned=          22           0
 nber times 1st assigned=          23           0
 nber times 1st assigned=          24           0
 nber times 1st assigned=          25           0
 nber times 1st assigned=          26           0
 nber times 1st assigned=          27           0
 nber times 1st assigned=          28           0
 nber times 1st assigned=          29           0
 nber times 1st assigned=          30           0
 nber times 1st assigned=          31           0
 nber times 1st assigned=          32           0
 nber times 1st assigned=          33           0
 nber times 1st assigned=          34           0
 nber times 1st assigned=          35           0
 nber times 1st assigned=          36           0
 nber times 1st assigned=          37           0
 nber times 1st assigned=          38           0
 nber times 1st assigned=          39           0
 nber times 1st assigned=          40           0
 nber times 1st assigned=          41           0
 nber times 1st assigned=          42           0
 nber times 1st assigned=          43           0
 nber times 1st assigned=          44           0
 nber times 1st assigned=          45           0
 nber times 1st assigned=          46           0
 nber times 1st assigned=          47           0
 nber times 1st assigned=          48           0
 nber times 1st assigned=          49           0
 nber times 1st assigned=          50           0
 nber times 1st assigned=          51           0
 Dushinsky matrix written to .out file
 modes represented=   45.2080991145103     

 Dushinsky matrix, ncs 1 in terms of ncs 2

   mode   freq    coeff     %      %tot     of    at

   7        27.  0.9919    98.4   101.8   7       104.
   8       115. -0.9605    92.3   101.6   8       138.
   9       199.  0.9999   100.0   101.2   9       209.
  10       202.  0.9889    97.8   101.1  10       253.
  11       215. -0.9554    91.3    99.1  11       291.
  12       339. -0.9659    93.3   102.1  13       438.
  13       405. -0.9890    97.8   100.0  12       424.
  14       435. -0.9828    96.6    99.0  15       473.
  15       445. -0.9981    99.6   100.7  14       463.
  16       498.  0.9516    90.6   100.0  16       568.
  17       534. -0.9697    94.0   101.9  17       572.
  18       565.  0.9978    99.6   101.4  18       596.
  19       611. -0.8561    73.3    99.9  20       654.
                -0.5016    25.2          23       765.
  20       621.  0.9678    93.7    99.3  22       762.
  21       624.  0.9771    95.5   100.4  19       649.
  22       632.  0.4985    24.9    99.0  20       654.
                -0.8285    68.6          23       765.
  23       673. -0.9902    98.0   100.4  21       703.
  24       759. -0.9958    99.2   100.2  24       793.
  25       791.  0.9874    97.5   100.0  25       824.
  26       861.  0.9177    84.2   101.6  26       901.
                -0.3295    10.9          29       956.
  27       867. -0.9754    95.1   101.7  27       919.
  28       909. -0.9718    94.4   101.5  28       940.
  29       936. -0.9854    97.1   100.2  30       977.
  30       961.  0.9342    87.3   100.6  29       956.
  31       966.  0.9710    94.3    99.6  31      1001.
  32      1077. -0.9859    97.2   100.0  33      1097.
  33      1088.  0.9861    97.2   100.0  32      1097.
  34      1117. -0.9984    99.7   101.5  34      1169.
  35      1199.  0.7657    58.6   100.6  35      1206.
                -0.5651    31.9          37      1277.
  36      1212.  0.6251    39.1   100.1  35      1206.
                 0.7617    58.0          37      1277.
  37      1226. -0.9837    96.8   100.1  36      1251.
  38      1302. -0.9736    94.8   100.1  38      1319.
  39      1310.  0.9494    90.1   100.1  39      1330.
  40      1397.  0.9437    89.1   100.7  41      1419.
  41      1403. -0.9347    87.4   100.6  40      1406.
  42      1456. -0.7073    50.0   100.8  42      1452.
                -0.5644    31.9          43      1490.
                 0.4052    16.4          45      1525.
  43      1492. -0.9673    93.6   100.3  44      1497.
  44      1497. -0.6322    40.0   100.7  42      1452.
                 0.7175    51.5          43      1490.
  45      1549.  0.3887    15.1   101.0  43      1490.
                 0.8927    79.7          45      1525.
  46      2829.  0.9999   100.0   100.2  47      3072.
  47      2866. -0.9983    99.7    99.8  46      3042.
  48      3193.  0.9606    92.3   100.0  48      3220.
  49      3194.  0.9633    92.8   100.0  49      3220.
  50      3239.  0.9602    92.2   100.0  50      3237.
  51      3239. -0.9629    92.7   100.0  51      3237.
 nber times 1st assigned=           1           0
 nber times 1st assigned=           2           0
 nber times 1st assigned=           3           0
 nber times 1st assigned=           4           0
 nber times 1st assigned=           5           0
 nber times 1st assigned=           6           0
 nber times 1st assigned=           7           0
 nber times 1st assigned=           8           0
 nber times 1st assigned=           9           0
 nber times 1st assigned=          10           0
 nber times 1st assigned=          11           0
 nber times 1st assigned=          12           0
 nber times 1st assigned=          13           0
 nber times 1st assigned=          14           0
 nber times 1st assigned=          15           0
 nber times 1st assigned=          16           0
 nber times 1st assigned=          17           0
 nber times 1st assigned=          18           0
 nber times 1st assigned=          19           0
 nber times 1st assigned=          20           0
 nber times 1st assigned=          21           0
 nber times 1st assigned=          22           0
 nber times 1st assigned=          23           0
 nber times 1st assigned=          24           0
 nber times 1st assigned=          25           0
 nber times 1st assigned=          26           0
 nber times 1st assigned=          27           0
 nber times 1st assigned=          28           0
 nber times 1st assigned=          29           0
 nber times 1st assigned=          30           0
 nber times 1st assigned=          31           0
 nber times 1st assigned=          32           0
 nber times 1st assigned=          33           0
 nber times 1st assigned=          34           0
 nber times 1st assigned=          35           0
 nber times 1st assigned=          36           0
 nber times 1st assigned=          37           0
 nber times 1st assigned=          38           0
 nber times 1st assigned=          39           0
 nber times 1st assigned=          40           0
 nber times 1st assigned=          41           0
 nber times 1st assigned=          42           0
 nber times 1st assigned=          43           0
 nber times 1st assigned=          44           0
 nber times 1st assigned=          45           0
 nber times 1st assigned=          46           0
 nber times 1st assigned=          47           0
 nber times 1st assigned=          48           0
 nber times 1st assigned=          49           0
 nber times 1st assigned=          50           0
 nber times 1st assigned=          51           0
 modes represented=   45.2080991145103     
 p1=
    0.   -0.    0.    0.    0.    0.   -0.    0.   -5.   -0.    0.   -0.    0.    0.   -2.   -0.   -0.   -7.    0.    0.
   -0.    0.    2.    0.    6.    0.    0.   -0.    1.    0.   -0.   -0.    0.    0.   -0.   -0.    2.   -1.   -0.   -1.
   -0.   -1.   -0.    0.    2.    0.   -0.    0.    0.   -0.    0.
 p2=
    0.    0.   -0.    0.    0.    0.    0.    0.    5.    0.    0.    0.   -0.   -3.   -0.    0.    0.    7.   -0.    0.
    2.   -0.    0.   -0.   -6.   -0.   -0.   -0.   -0.    1.    0.   -0.   -0.    0.    0.    2.   -0.   -1.   -0.    0.
    2.   -0.   -2.   -0.   -1.   -1.   -0.   -0.   -0.    0.    0.

 Displacement: in terms of nc of 1 THEN of nc of 2

   1     freq=    -0. Q=  0.000 lam=    -0.0     freq=    -0. Q=  0.000 lam=    -0.0
   2     freq=    -0. Q= -0.000 lam=    -0.0     freq=    -0. Q= -0.000 lam=    -0.0
   3     freq=    -0. Q=  0.000 lam=    -0.0     freq=    -0. Q=  0.000 lam=    -0.0
   4     freq=     0. Q=  0.000 lam=     0.0     freq=     0. Q=  0.000 lam=     0.0
   5     freq=     0. Q=  0.000 lam=     0.0     freq=     0. Q=  0.000 lam=     0.0
   6     freq=     0. Q=  0.000 lam=     0.0     freq=     0. Q=  0.000 lam=     0.0
   7     freq=    27. Q= -0.000 lam=     0.0     freq=   104. Q= -0.000 lam=     0.0
   8     freq=   115. Q=  0.000 lam=     0.0     freq=   138. Q=  0.000 lam=     0.0
   9     freq=   199. Q= -0.309 lam=     9.5     freq=   209. Q= -0.310 lam=    10.0
  10     freq=   202. Q= -0.000 lam=     0.0     freq=   253. Q= -0.000 lam=     0.0
  11     freq=   215. Q=  0.000 lam=     0.0     freq=   291. Q=  0.000 lam=     0.0
  12     freq=   339. Q= -0.000 lam=     0.0     freq=   424. Q= -0.000 lam=     0.0
  13     freq=   405. Q=  0.000 lam=     0.0     freq=   438. Q=  0.000 lam=     0.0
  14     freq=   435. Q=  0.000 lam=     0.0     freq=   463. Q=  0.248 lam=    14.2
  15     freq=   445. Q= -0.204 lam=     9.3     freq=   473. Q= -0.000 lam=     0.0
  16     freq=   498. Q= -0.000 lam=     0.0     freq=   568. Q= -0.000 lam=     0.0
  17     freq=   534. Q= -0.000 lam=     0.0     freq=   572. Q= -0.000 lam=     0.0
  18     freq=   565. Q= -0.680 lam=   130.5     freq=   596. Q= -0.706 lam=   148.2
  19     freq=   611. Q=  0.000 lam=     0.0     freq=   649. Q=  0.000 lam=     0.0
  20     freq=   621. Q=  0.000 lam=     0.0     freq=   654. Q=  0.000 lam=     0.0
  21     freq=   624. Q= -0.000 lam=     0.0     freq=   703. Q= -0.161 lam=     9.1
  22     freq=   632. Q=  0.000 lam=     0.0     freq=   762. Q=  0.000 lam=     0.0
  23     freq=   673. Q=  0.246 lam=    20.4     freq=   765. Q=  0.000 lam=     0.0
  24     freq=   759. Q=  0.000 lam=     0.0     freq=   793. Q=  0.000 lam=     0.0
  25     freq=   791. Q=  0.645 lam=   164.6     freq=   824. Q=  0.646 lam=   172.1
  26     freq=   861. Q=  0.000 lam=     0.0     freq=   901. Q=  0.000 lam=     0.0
  27     freq=   867. Q=  0.000 lam=     0.0     freq=   919. Q=  0.000 lam=     0.0
  28     freq=   909. Q= -0.000 lam=     0.0     freq=   940. Q= -0.000 lam=     0.0
  29     freq=   936. Q=  0.083 lam=     3.2     freq=   956. Q=  0.000 lam=     0.0
  30     freq=   961. Q=  0.000 lam=     0.0     freq=   977. Q=  0.107 lam=     5.6
  31     freq=   966. Q= -0.000 lam=     0.0     freq=  1001. Q= -0.000 lam=     0.0
  32     freq=  1077. Q= -0.056 lam=     1.7     freq=  1097. Q= -0.000 lam=     0.0
  33     freq=  1088. Q=  0.000 lam=     0.0     freq=  1097. Q=  0.061 lam=     2.0
  34     freq=  1117. Q=  0.000 lam=     0.0     freq=  1169. Q=  0.000 lam=     0.0
  35     freq=  1199. Q= -0.000 lam=     0.0     freq=  1206. Q= -0.000 lam=     0.0
  36     freq=  1212. Q= -0.000 lam=     0.0     freq=  1251. Q= -0.232 lam=    33.8
  37     freq=  1226. Q=  0.216 lam=    28.6     freq=  1277. Q=  0.000 lam=     0.0
  38     freq=  1302. Q= -0.098 lam=     6.3     freq=  1319. Q= -0.087 lam=     5.0
  39     freq=  1310. Q= -0.000 lam=     0.0     freq=  1330. Q= -0.000 lam=     0.0
  40     freq=  1397. Q= -0.205 lam=    29.3     freq=  1406. Q= -0.000 lam=     0.0
  41     freq=  1403. Q= -0.000 lam=     0.0     freq=  1419. Q= -0.265 lam=    49.7
  42     freq=  1456. Q= -0.110 lam=     8.8     freq=  1452. Q= -0.026 lam=     0.5
  43     freq=  1492. Q= -0.000 lam=     0.0     freq=  1490. Q= -0.288 lam=    61.9
  44     freq=  1497. Q=  0.060 lam=     2.7     freq=  1497. Q=  0.000 lam=     0.0
  45     freq=  1549. Q=  0.313 lam=    75.7     freq=  1525. Q=  0.216 lam=    35.6
  46     freq=  2829. Q=  0.000 lam=     0.0     freq=  3042. Q=  0.122 lam=    22.7
  47     freq=  2866. Q= -0.101 lam=    14.6     freq=  3072. Q= -0.000 lam=     0.0
  48     freq=  3193. Q=  0.000 lam=     0.0     freq=  3220. Q=  0.001 lam=     0.0
  49     freq=  3194. Q=  0.019 lam=     0.6     freq=  3220. Q=  0.030 lam=     1.5
  50     freq=  3239. Q= -0.001 lam=     0.0     freq=  3237. Q= -0.000 lam=     0.0
  51     freq=  3239. Q=  0.031 lam=     1.6     freq=  3237. Q=  0.024 lam=     1.0

 total reorg energy (cm**-1, kcal/mol)=      507.      573.      1.45      1.64
 Nber of molecules processed=           2
