 Enter ifcurve (0=recti, 1=orth curvi, 2=apprx curvi, -1 = skip
 And atom ordering flag, 0= never changes, 1= use the first order thenceforth,
  2= deduce it (does read on fail), 3= always read it
 Reading file: 
 ./TT_1_C0S2.log                                                                
                                          
  Entering Gaussian System, Link 0=g16                                          
  
 Gaussian format, type: g94, g98, g03= F F F
  #P Geom=AllCheck Guess=TCheck SCRF=Check GenChk RB3LYP TD(FC,Read)/6-3    
 energy type= TD      
 Original G94 input coords:
  6 -1.536033 -0.113641  0.114912
  6 -0.899215  1.133017  0.055959
  6  0.475657  1.229629 -0.064220
  6  1.295971  0.061649 -0.132556
  6  2.707732  0.128595 -0.255893
  6  3.687596 -0.878563 -0.338304
  6  5.000782 -0.356687 -0.453526
 16  6.577425 -1.052253 -0.590163
  6  7.374244  0.521801 -0.664210
  6  6.444923  1.530674 -0.585160
  6  5.112155  1.032225 -0.466794
 16  3.536248  1.745242 -0.332419
  6  0.627078 -1.200864 -0.070717
  6 -0.746450 -1.274449  0.049264
  1 -2.612520 -0.181553  0.208980
  1 -1.489439  2.042350  0.104977
  1  0.928440  2.214680 -0.106350
  1  3.448627 -1.930454 -0.314622
  1  8.445307  0.573627 -0.757268
  1  6.707661  2.579660 -0.610774
  1  1.202383 -2.118106 -0.118343
  1 -1.220344 -2.249811  0.093297
 nber atoms=          22
  Total Energy, E(TD-HF/TD-DFT) =  -1258.46656847                               
  
          32          49 "  -1258.46656847"
After scan for Atom:   Atom  AN      X      Y      Z        X      Y      Z        X      Y      Z   
After scan for Atom:   Atom  AN      X      Y      Z        X      Y      Z        X      Y      Z   
After scan for Atom:   Atom  AN      X      Y      Z        X      Y      Z        X      Y      Z   
After scan for Atom:   Atom  AN      X      Y      Z        X      Y      Z        X      Y      Z   
After scan for Atom:   Atom  AN      X      Y      Z        X      Y      Z        X      Y      Z   
After scan for Atom:   Atom  AN      X      Y      Z        X      Y      Z        X      Y      Z   
After scan for Atom:   Atom  AN      X      Y      Z        X      Y      Z        X      Y      Z   
After scan for Atom:   Atom  AN      X      Y      Z        X      Y      Z        X      Y      Z   
After scan for Atom:   Atom  AN      X      Y      Z        X      Y      Z        X      Y      Z   
After scan for Atom:   Atom  AN      X      Y      Z        X      Y      Z        X      Y      Z   
After scan for Atom:   Atom  AN      X      Y      Z        X      Y      Z        X      Y      Z   
After scan for Atom:   Atom  AN      X      Y      Z        X      Y      Z        X      Y      Z   
After scan for Atom:   Atom  AN      X      Y      Z        X      Y      Z        X      Y      Z   
After scan for Atom:   Atom  AN      X      Y      Z        X      Y      Z        X      Y      Z   
After scan for Atom:   Atom  AN      X      Y      Z        X      Y      Z        X      Y      Z   
After scan for Atom:   Atom  AN      X      Y      Z        X      Y      Z        X      Y      Z   
After scan for Atom:   Atom  AN      X      Y      Z        X      Y      Z        X      Y      Z   
After scan for Atom:   Atom  AN      X      Y      Z        X      Y      Z        X      Y      Z   
After scan for Atom:   Atom  AN      X      Y      Z        X      Y      Z        X      Y      Z   
After scan for Atom:   Atom  AN      X      Y      Z        X      Y      Z        X      Y      Z   
 g94    frequencies=
     0.0    0.0    0.0    0.0    0.0    0.0   30.1   52.5  107.7  111.3
   131.9  188.0  262.2  305.3  344.3  393.6  415.7  418.3  468.1  472.6
   502.1  565.4  574.4  584.2  627.9  651.2  669.8  673.7  714.8  758.8
   765.5  801.8  815.5  847.0  883.5  936.9  942.2  952.2  992.7 1026.0
  1091.4 1099.9 1155.8 1172.8 1173.0 1205.0 1242.2 1314.2 1326.3 1348.3
  1361.9 1405.5 1456.8 1470.2 1522.8 1534.0 1617.5 1652.9 3147.6 3152.3
  3166.1 3175.4 3191.8 3213.8 3234.5 3272.3
 g94    symmetries=
                                                 A      A      A      A
       A      A      A      A      A      A      A      A      A      A
       A      A      A      A      A      A      A      A      A      A
       A      A      A      A      A      A      A      A      A      A
       A      A      A      A      A      A      A      A      A      A
       A      A      A      A      A      A      A      A      A      A
       A      A      A      A      A      A
 atomic masses:
 12.0000 12.0000 12.0000 12.0000 12.0000 12.0000 12.0000 31.9721 12.0000 12.0000
 12.0000 31.9721 12.0000 12.0000  1.0078  1.0078  1.0078  1.0078  1.0078  1.0078
  1.0078  1.0078
 looking for force constants in 
 ./TT_1_C0S2.fchk                                                               
  
 Cartesian Force Constants                  R   N=        2211                  
  
 n3=          66        2211
 g94-fc frequencies=
    -3.1   -0.6   -0.0   -0.0    0.0    1.6   30.1   52.5  107.7  111.3
   131.9  188.0  262.2  305.3  344.3  393.6  415.7  418.3  468.2  472.6
   502.1  565.4  574.4  584.2  627.9  651.2  669.8  673.7  714.8  758.8
   765.5  801.8  815.5  847.0  883.5  936.9  942.2  952.2  992.7 1026.0
  1091.4 1099.9 1155.9 1172.8 1173.0 1205.0 1242.2 1314.2 1326.3 1348.3
  1361.9 1405.5 1456.8 1470.2 1522.8 1534.0 1617.5 1652.9 3147.6 3152.4
  3166.2 3175.5 3191.8 3213.8 3234.6 3272.4
 at 99999: n3=          66
 symm operator            1 :  F  nop=           0
 symm operator            2 :  F  nop=           0
 symm operator            3 :  F  nop=           0
 symm operator            4 :  F  nop=           0
 symm operator            5 :  F  nop=           0
 symm operator            6 :  F  nop=           0
 symm operator            7 :  F  nop=           0
 The point group of the molecule is  C1
 Symmetry rotation matrix:
   1.00000   0.00000   0.00000
   0.00000   1.00000   0.00000
   0.00000   0.00000   1.00000

 Projecting out zero-frequency components
 generating redundant internal coords
         300        3600          22
 search for int coords
   1 str   2   1   1.401
   2 str   3   2   1.383
   3 str   4   3   1.429
   4 str   5   4   1.419
   5 str   6   5   1.408
   6 str   7   6   1.418
   7 str   8   7   1.729
   8 str   9   8   1.766
   9 str  10   9   1.374
  10 str  11   7   1.393
  11 str  11  10   1.428
  12 str  12   5   1.818
  13 str  12  11   1.735
  14 str  13   4   1.430
  15 str  14   1   1.405
  16 str  14  13   1.381
  17 str  15   1   1.083
  18 str  16   2   1.085
  19 str  17   3   1.085
  20 str  18   6   1.079
  21 str  19   9   1.076
  22 str  20  10   1.082
  23 str  21  13   1.084
  24 str  22  14   1.085
 nber stretches=          24
  25 ben   1   2   3
  26 prop tor   1   2   3   4
  27 prop tor   1   2   3  17
  28 ben   1   2  16
  29 ben   1  14  13
  30 ben   1  14  22
  31 ben   2   1  14
  32 prop tor   2   1  14  13
  33 prop tor   2   1  14  22
  34 ben   2   1  15
  35 ben   2   3   4
  36 prop tor   2   3   4   5
  37 prop tor   2   3   4  13
  38 ben   2   3  17
  39 ben   3   2  16
  40 ben   3   4   5
  41 prop tor   3   4   5   6
  42 prop tor   3   4   5  12
  43 ben   3   4  13
  44 prop tor   3   4  13  14
  45 prop tor   3   4  13  21
  46 ben   4   3  17
  47 ben   4   5   6
  48 prop tor   4   5   6   7
  49 prop tor   4   5   6  18
  50 ben   4   5  12
  51 prop tor   4   5  12  11
  52 ben   4  13  14
  53 prop tor   4  13  14   1
  54 prop tor   4  13  14  22
  55 ben   4  13  21
  56 ben   5   4  13
  57 prop tor   5   4  13  14
  58 prop tor   5   4  13  21
  59 ben   5   6   7
  60 prop tor   5   6   7   8
  61 prop tor   5   6   7  11
  62 ben   5   6  18
  63 ben   5  12  11
  64 ben   6   5  12
  65 prop tor   6   5  12  11
  66 ben   6   7   8
  67 prop tor   6   7   8   9
  68 ben   6   7  11
  69 prop tor   6   7  11  10
  70 prop tor   6   7  11  12
  71 ben   7   6  18
  72 ben   7   8   9
  73 prop tor   7   8   9  10
  74 prop tor   7   8   9  19
  75 ben   7  11  10
  76 ben   7  11  12
  77 prop tor   7  11  12   5
  78 ben   8   7  11
  79 prop tor   8   7  11  10
  80 prop tor   8   7  11  12
  81 ben   8   9  10
  82 prop tor   8   9  10  11
  83 prop tor   8   9  10  20
  84 ben   8   9  19
  85 ben   9  10  11
  86 prop tor   9  10  11   7
  87 prop tor   9  10  11  12
  88 ben   9  10  20
  89 ben  10   9  19
  90 ben  10  11  12
  91 prop tor  10  11  12   5
  92 prop tor  11   7   8   9
  93 ben  11  10  20
  94 prop tor  12   5   6   7
  95 prop tor  12   5   6  18
  96 prop tor  13   4   5   6
  97 prop tor  13   4   5  12
  98 ben  13  14  22
  99 prop tor  14   1   2   3
 100 prop tor  14   1   2  16
 101 ben  14   1  15
 102 ben  14  13  21
 103 prop tor  15   1   2   3
 104 prop tor  15   1   2  16
 105 prop tor  15   1  14  13
 106 prop tor  15   1  14  22
 107 prop tor  16   2   3   4
 108 prop tor  16   2   3  17
 109 prop tor  17   3   4   5
 110 prop tor  17   3   4  13
 111 prop tor  18   6   7   8
 112 prop tor  18   6   7  11
 113 prop tor  19   9  10  11
 114 prop tor  19   9  10  20
 115 prop tor  20  10  11   7
 116 prop tor  20  10  11  12
 117 prop tor  21  13  14   1
 118 prop tor  21  13  14  22
 nber bend=              38
 nber lin bend=           0
 nber prop tor=          56
 nber impr tor=           0
 nber tot redund int=         118
 Eigenvalues of G in red int coords
    Gval -0.00000000 -0.00000000 -0.00000000 -0.00000000 -0.00000000 -0.00000000 -0.00000000 -0.00000000
    Gval -0.00000000 -0.00000000 -0.00000000 -0.00000000 -0.00000000 -0.00000000 -0.00000000 -0.00000000
    Gval -0.00000000 -0.00000000 -0.00000000 -0.00000000 -0.00000000 -0.00000000 -0.00000000 -0.00000000
    Gval -0.00000000 -0.00000000 -0.00000000 -0.00000000 -0.00000000 -0.00000000  0.00000000  0.00000000
    Gval  0.00000000  0.00000000  0.00000000  0.00000000  0.00000000  0.00000000  0.00000000  0.00000000
    Gval  0.00000000  0.00000000  0.00000000  0.00000000  0.00000000  0.00000000  0.00000000  0.00000000
    Gval  0.00000000  0.00000000  0.00000000  0.00000000  0.00000000  0.00000000  0.00000000  0.00000000
    Gval  0.00000000  0.00000000  0.00000276  0.00000524  0.00001511  0.00001641  0.00002077  0.00003005
    Gval  0.00003306  0.00003971  0.00004736  0.00004857  0.00005505  0.00006264  0.00006488  0.00008827
    Gval  0.00009108  0.00010266  0.00011170  0.00011652  0.00012606  0.00015488  0.00015603  0.00018320
    Gval  0.00022168  0.00026647  0.00029435  0.00030242  0.00030911  0.00036295  0.00037708  0.00043425
    Gval  0.00053732  0.00055394  0.00059306  0.00059356  0.00059669  0.00060367  0.00061946  0.00062270
    Gval  0.00063097  0.00063952  0.00065941  0.00103919  0.00108350  0.00108500  0.00110486  0.00113720
    Gval  0.00114478  0.00116698  0.00117162  0.00118824  0.00130327  0.00145544  0.00189973  0.00214389
    Gval  0.00233013  0.00311164  0.00358074  0.00369907  0.00401143  0.00405853
  2.756225509950013E-006  2.756225509950013E-006
  5.235487759957431E-006  2.756225509950013E-006
  1.511064683357968E-005  2.756225509950013E-006
  1.641377352043088E-005  2.756225509950013E-006
  2.077169719999504E-005  2.756225509950013E-006
  3.004699048435697E-005  2.756225509950013E-006
  3.305989340838230E-005  2.756225509950013E-006
  3.970663290616407E-005  2.756225509950013E-006
  4.735558149760015E-005  2.756225509950013E-006
  4.857444466761751E-005  2.756225509950013E-006
  5.504850879930462E-005  2.756225509950013E-006
  6.264220367135287E-005  2.756225509950013E-006
  6.488308385807105E-005  2.756225509950013E-006
  8.826738306962409E-005  2.756225509950013E-006
  9.108152085602596E-005  2.756225509950013E-006
  1.026560990108208E-004  2.756225509950013E-006
  1.117009018363587E-004  2.756225509950013E-006
  1.165153083628321E-004  2.756225509950013E-006
  1.260553557349815E-004  2.756225509950013E-006
  1.548783928148221E-004  2.756225509950013E-006
  1.560328642546086E-004  2.756225509950013E-006
  1.831996199525547E-004  2.756225509950013E-006
  2.216848845458435E-004  2.756225509950013E-006
  2.664746404826586E-004  2.756225509950013E-006
  2.943470825779350E-004  2.756225509950013E-006
  3.024215466999701E-004  2.756225509950013E-006
  3.091092266544402E-004  2.756225509950013E-006
  3.629481017340175E-004  2.756225509950013E-006
  3.770810632116743E-004  2.756225509950013E-006
  4.342489947979380E-004  2.756225509950013E-006
  5.373174994356402E-004  2.756225509950013E-006
  5.539372439310583E-004  2.756225509950013E-006
  5.930558767830977E-004  2.756225509950013E-006
  5.935593265871858E-004  2.756225509950013E-006
  5.966896930514153E-004  2.756225509950013E-006
  6.036734670686230E-004  2.756225509950013E-006
  6.194580778107813E-004  2.756225509950013E-006
  6.226978457524112E-004  2.756225509950013E-006
  6.309748950582351E-004  2.756225509950013E-006
  6.395197318665566E-004  2.756225509950013E-006
  6.594135877326857E-004  2.756225509950013E-006
  1.039188578925219E-003  2.756225509950013E-006
  1.083504233892668E-003  2.756225509950013E-006
  1.085000506031426E-003  2.756225509950013E-006
  1.104864761624077E-003  2.756225509950013E-006
  1.137198902744703E-003  2.756225509950013E-006
  1.144775696780505E-003  2.756225509950013E-006
  1.166976296426297E-003  2.756225509950013E-006
  1.171624905498688E-003  2.756225509950013E-006
  1.188239865511315E-003  2.756225509950013E-006
  1.303273667626656E-003  2.756225509950013E-006
  1.455439411084634E-003  2.756225509950013E-006
  1.899732099453451E-003  2.756225509950013E-006
  2.143893207857282E-003  2.756225509950013E-006
  2.330132441279731E-003  2.756225509950013E-006
  3.111637080829394E-003  2.756225509950013E-006
  3.580738130402194E-003  2.756225509950013E-006
  3.699074657304909E-003  2.756225509950013E-006
  4.011434171063545E-003  2.756225509950013E-006
  4.058527251476346E-003  2.756225509950013E-006
 cut=1d-8, nber non-redundant internal coords=          60
 Check on Eigenvals of non-red overlap matrix:
  0.00000276  0.00000524  0.00001511  0.00001641  0.00002077  0.00003005  0.00003306  0.00003971
  0.00004736  0.00004857  0.00005505  0.00006264  0.00006488  0.00008827  0.00009108  0.00010266
  0.00011170  0.00011652  0.00012606  0.00015488  0.00015603  0.00018320  0.00022168  0.00026647
  0.00029435  0.00030242  0.00030911  0.00036295  0.00037708  0.00043425  0.00053732  0.00055394
  0.00059306  0.00059356  0.00059669  0.00060367  0.00061946  0.00062270  0.00063097  0.00063952
  0.00065941  0.00103919  0.00108350  0.00108500  0.00110486  0.00113720  0.00114478  0.00116698
  0.00117162  0.00118824  0.00130327  0.00145544  0.00189973  0.00214389  0.00233013  0.00311164
  0.00358074  0.00369907  0.00401143  0.00405853
 Checking for correct frequencies
 recalc frequencies=
    -0.0   -0.0   -0.0    0.0    0.0    0.0   30.1   52.5  107.7  111.3
   131.9  188.0  262.2  305.3  344.3  393.6  415.7  418.3  468.2  472.6
   502.1  565.4  574.4  584.2  627.9  651.2  669.8  673.7  714.8  758.8
   765.5  801.8  815.5  847.0  883.5  936.9  942.2  952.2  992.7 1026.0
  1091.4 1099.9 1155.9 1172.8 1173.0 1205.0 1242.2 1314.2 1326.3 1348.3
  1361.9 1405.5 1456.8 1470.2 1522.8 1534.0 1617.5 1652.9 3147.6 3152.4
  3166.2 3175.5 3191.8 3213.8 3234.6 3272.4
 recalc symmetries=
                                                                       
                                                                       
                                                                       
                                                                       
                                                                       
                                                                       
                                           
 recalc freqs check OK
 Zero-point lengths:
 10.0000 10.0000 10.0000 10.0000 10.0000 10.0000 45.2057 34.2288 23.8916 23.5021
 21.5831 18.0814 15.3088 14.1873 13.3614 12.4956 12.1595 12.1208 11.4578 11.4033
 11.0637 10.4256 10.3443 10.2569  9.8934  9.7150  9.5791  9.5512  9.2724  8.9995
  8.9603  8.7550  8.6813  8.5185  8.3405  8.0993  8.0765  8.0340  7.8683  7.7395
  7.5042  7.4750  7.2919  7.2390  7.2384  7.1417  7.0340  6.8386  6.8073  6.7515
  6.7177  6.6127  6.4953  6.4656  6.3528  6.3297  6.1641  6.0978  4.4188  4.4155
  4.4058  4.3994  4.3881  4.3730  4.3590  4.3338
 highest evec of mol 1
 -0.0010 -0.0003  0.0001
  0.0003  0.0003 -0.0000
 -0.0001  0.0002  0.0000
  0.0003  0.0001 -0.0000
 -0.0003  0.0009  0.0000
 -0.0016 -0.0033  0.0001
 -0.0011  0.0016  0.0001
 -0.0007 -0.0015  0.0001
  0.2903  0.0019 -0.0252
 -0.0005  0.0497 -0.0001
 -0.0045 -0.0038  0.0004
 -0.0004 -0.0002  0.0000
  0.0001 -0.0003 -0.0000
 -0.0001 -0.0002  0.0000
  0.0020  0.0001 -0.0002
 -0.0000  0.0000  0.0000
 -0.0000  0.0001  0.0000
  0.0017  0.0083 -0.0002
 -0.9429 -0.0419  0.0820
 -0.0268 -0.1192  0.0026
 -0.0000 -0.0000  0.0000
  0.0001  0.0001 -0.0000
 generating redundant internal coords
         300        3600          22
 Adding extra bonds for z output only
           6           6           6           6           6           6
           6          16           6           6           6          16
           6           6           1           1           1           1
           1           1           1           1
 search for int coords
   1 str   2   1   1.401
   2 str   3   2   1.383
   3 str   4   3   1.429
   4 str   5   4   1.419
   5 str   6   5   1.408
   6 str   7   6   1.418
   7 str   8   7   1.729
   8 str   9   8   1.766
   9 str  10   9   1.374
  10 str  11   7   1.393
  11 str  11  10   1.428
  12 str  12   5   1.818
  13 str  12  11   1.735
  14 str  13   4   1.430
  15 str  14   1   1.405
  16 str  14  13   1.381
  17 str  15   1   1.083
  18 str  16   2   1.085
  19 str  17   3   1.085
  20 str  18   6   1.079
  21 str  19   9   1.076
  22 str  20  10   1.082
  23 str  21  13   1.084
  24 str  22  14   1.085
 nber stretches=          24
  25 ben   1   2   3
  26 prop tor   1   2   3   4
  27 prop tor   1   2   3  17
  28 ben   1   2  16
  29 ben   1  14  13
  30 ben   1  14  22
  31 ben   2   1  14
  32 prop tor   2   1  14  13
  33 prop tor   2   1  14  22
  34 ben   2   1  15
  35 ben   2   3   4
  36 prop tor   2   3   4   5
  37 prop tor   2   3   4  13
  38 ben   2   3  17
  39 ben   3   2  16
  40 ben   3   4   5
  41 prop tor   3   4   5   6
  42 prop tor   3   4   5  12
  43 ben   3   4  13
  44 prop tor   3   4  13  14
  45 prop tor   3   4  13  21
  46 ben   4   3  17
  47 ben   4   5   6
  48 prop tor   4   5   6   7
  49 prop tor   4   5   6  18
  50 ben   4   5  12
  51 prop tor   4   5  12  11
  52 ben   4  13  14
  53 prop tor   4  13  14   1
  54 prop tor   4  13  14  22
  55 ben   4  13  21
  56 ben   5   4  13
  57 prop tor   5   4  13  14
  58 prop tor   5   4  13  21
  59 ben   5   6   7
  60 prop tor   5   6   7   8
  61 prop tor   5   6   7  11
  62 ben   5   6  18
  63 ben   5  12  11
  64 ben   6   5  12
  65 prop tor   6   5  12  11
  66 ben   6   7   8
  67 prop tor   6   7   8   9
  68 ben   6   7  11
  69 prop tor   6   7  11  10
  70 prop tor   6   7  11  12
  71 ben   7   6  18
  72 ben   7   8   9
  73 prop tor   7   8   9  10
  74 prop tor   7   8   9  19
  75 ben   7  11  10
  76 ben   7  11  12
  77 prop tor   7  11  12   5
  78 ben   8   7  11
  79 prop tor   8   7  11  10
  80 prop tor   8   7  11  12
  81 ben   8   9  10
  82 prop tor   8   9  10  11
  83 prop tor   8   9  10  20
  84 ben   8   9  19
  85 ben   9  10  11
  86 prop tor   9  10  11   7
  87 prop tor   9  10  11  12
  88 ben   9  10  20
  89 ben  10   9  19
  90 ben  10  11  12
  91 prop tor  10  11  12   5
  92 prop tor  11   7   8   9
  93 ben  11  10  20
  94 prop tor  12   5   6   7
  95 prop tor  12   5   6  18
  96 prop tor  13   4   5   6
  97 prop tor  13   4   5  12
  98 ben  13  14  22
  99 prop tor  14   1   2   3
 100 prop tor  14   1   2  16
 101 ben  14   1  15
 102 ben  14  13  21
 103 prop tor  15   1   2   3
 104 prop tor  15   1   2  16
 105 prop tor  15   1  14  13
 106 prop tor  15   1  14  22
 107 prop tor  16   2   3   4
 108 prop tor  16   2   3  17
 109 prop tor  17   3   4   5
 110 prop tor  17   3   4  13
 111 prop tor  18   6   7   8
 112 prop tor  18   6   7  11
 113 prop tor  19   9  10  11
 114 prop tor  19   9  10  20
 115 prop tor  20  10  11   7
 116 prop tor  20  10  11  12
 117 prop tor  21  13  14   1
 118 prop tor  21  13  14  22
 nber bend=              38
 nber lin bend=           0
 nber prop tor=          56
 nber impr tor=           0
 nber tot redund int=         118
 Reading file: 
 ./TT_1_C1S0.log                                                                
                                          
  Entering Gaussian System, Link 0=g16                                          
  
 Gaussian format, type: g94, g98, g03= F F F
  #P Geom=AllCheck Guess=TCheck SCRF=Check GenChk UB3LYP/6-311G(d,p) Fre    
 energy type= B3LYP   
 Original G94 input coords:
  6 -1.476245 -0.140763  0.108654
  6 -0.889364  1.130317  0.054174
  6  0.479790  1.253815 -0.065197
  6  1.308760  0.102728 -0.134192
  6  2.730274  0.221025 -0.258082
  6  3.672648 -0.834968 -0.337059
  6  4.966782 -0.370094 -0.450615
 16  6.543151 -1.122381 -0.585361
  6  7.276378  0.445083 -0.653069
  6  6.390184  1.509431 -0.579040
  6  5.078585  1.046673 -0.464056
 16  3.519289  1.804041 -0.330788
  6  0.691301 -1.176726 -0.077053
  6 -0.679682 -1.289891  0.042512
  1 -2.551583 -0.234325  0.202423
  1 -1.509594  2.016289  0.105699
  1  0.919053  2.243508 -0.106012
  1  3.394672 -1.877920 -0.310052
  1  8.351448  0.512836 -0.746477
  1  6.700450  2.543977 -0.608700
  1  1.290173 -2.076038 -0.126731
  1 -1.138240 -2.269847  0.085091
 nber atoms=          22
  SCF Done:  E(UB3LYP) =  -1258.35752554     A.U. after    1 cycles             
  
          23          40 "  -1258.35752554"
After scan for Atom:   Atom  AN      X      Y      Z        X      Y      Z        X      Y      Z   
After scan for Atom:   Atom  AN      X      Y      Z        X      Y      Z        X      Y      Z   
After scan for Atom:   Atom  AN      X      Y      Z        X      Y      Z        X      Y      Z   
After scan for Atom:   Atom  AN      X      Y      Z        X      Y      Z        X      Y      Z   
After scan for Atom:   Atom  AN      X      Y      Z        X      Y      Z        X      Y      Z   
After scan for Atom:   Atom  AN      X      Y      Z        X      Y      Z        X      Y      Z   
After scan for Atom:   Atom  AN      X      Y      Z        X      Y      Z        X      Y      Z   
After scan for Atom:   Atom  AN      X      Y      Z        X      Y      Z        X      Y      Z   
After scan for Atom:   Atom  AN      X      Y      Z        X      Y      Z        X      Y      Z   
After scan for Atom:   Atom  AN      X      Y      Z        X      Y      Z        X      Y      Z   
After scan for Atom:   Atom  AN      X      Y      Z        X      Y      Z        X      Y      Z   
After scan for Atom:   Atom  AN      X      Y      Z        X      Y      Z        X      Y      Z   
After scan for Atom:   Atom  AN      X      Y      Z        X      Y      Z        X      Y      Z   
After scan for Atom:   Atom  AN      X      Y      Z        X      Y      Z        X      Y      Z   
After scan for Atom:   Atom  AN      X      Y      Z        X      Y      Z        X      Y      Z   
After scan for Atom:   Atom  AN      X      Y      Z        X      Y      Z        X      Y      Z   
After scan for Atom:   Atom  AN      X      Y      Z        X      Y      Z        X      Y      Z   
After scan for Atom:   Atom  AN      X      Y      Z        X      Y      Z        X      Y      Z   
After scan for Atom:   Atom  AN      X      Y      Z        X      Y      Z        X      Y      Z   
After scan for Atom:   Atom  AN      X      Y      Z        X      Y      Z        X      Y      Z   
 g94    frequencies=
     0.0    0.0    0.0    0.0    0.0    0.0   23.5   62.1  116.8  155.0
   203.0  267.4  278.9  314.8  387.4  427.3  434.3  453.7  462.1  563.5
   582.1  616.5  624.8  641.2  665.4  682.8  759.2  765.4  783.0  806.3
   825.6  855.5  892.8  905.3  948.6  974.0  998.4 1007.0 1027.7 1040.1
  1099.2 1113.3 1170.1 1194.3 1203.5 1223.5 1244.7 1336.4 1353.4 1373.0
  1408.6 1425.1 1444.7 1477.2 1514.6 1531.1 1577.0 1623.7 3182.3 3190.5
  3199.5 3207.2 3213.0 3225.7 3238.3 3239.2
 g94    symmetries=
                                                 A      A      A      A
       A      A      A      A      A      A      A      A      A      A
       A      A      A      A      A      A      A      A      A      A
       A      A      A      A      A      A      A      A      A      A
       A      A      A      A      A      A      A      A      A      A
       A      A      A      A      A      A      A      A      A      A
       A      A      A      A      A      A
 atomic masses:
 12.0000 12.0000 12.0000 12.0000 12.0000 12.0000 12.0000 31.9721 12.0000 12.0000
 12.0000 31.9721 12.0000 12.0000  1.0078  1.0078  1.0078  1.0078  1.0078  1.0078
  1.0078  1.0078
 looking for force constants in 
 ./TT_1_C1S0.fchk                                                               
  
 Cartesian Force Constants                  R   N=        2211                  
  
 n3=          66        2211
 g94-fc frequencies=
    -2.9   -0.0   -0.0    0.0    0.6    3.5   23.6   62.1  116.8  155.0
   203.0  267.4  278.9  314.9  387.4  427.3  434.3  453.7  462.1  563.5
   582.2  616.5  624.8  641.2  665.5  682.8  759.2  765.4  783.0  806.3
   825.6  855.5  892.9  905.3  948.6  974.0  998.4 1007.1 1027.8 1040.2
  1099.2 1113.3 1170.1 1194.3 1203.6 1223.6 1244.8 1336.5 1353.4 1373.0
  1408.7 1425.1 1444.8 1477.2 1514.7 1531.1 1577.0 1623.8 3182.4 3190.5
  3199.5 3207.3 3213.1 3225.8 3238.4 3239.3
 at 99999: n3=          66
 symm operator            1 :  F  nop=           0
 symm operator            2 :  F  nop=           0
 symm operator            3 :  F  nop=           0
 symm operator            4 :  F  nop=           0
 symm operator            5 :  F  nop=           0
 symm operator            6 :  F  nop=           0
 symm operator            7 :  F  nop=           0
 The point group of the molecule is  C1
 Symmetry rotation matrix:
   1.00000   0.00000   0.00000
   0.00000   1.00000   0.00000
   0.00000   0.00000   1.00000

 Projecting out zero-frequency components
 generating redundant internal coords
         300        3600          22
 search for int coords
   1 str   2   1   1.401
   2 str   3   2   1.380
   3 str   4   3   1.420
   4 str   5   4   1.432
   5 str   6   5   1.418
   6 str   7   6   1.380
   7 str   8   7   1.752
   8 str   9   8   1.732
   9 str  10   9   1.387
  10 str  11   7   1.421
  11 str  11  10   1.396
  12 str  12   5   1.770
  13 str  12  11   1.739
  14 str  13   4   1.422
  15 str  14   1   1.400
  16 str  14  13   1.381
  17 str  15   1   1.083
  18 str  16   2   1.083
  19 str  17   3   1.084
  20 str  18   6   1.080
  21 str  19   9   1.081
  22 str  20  10   1.080
  23 str  21  13   1.082
  24 str  22  14   1.083
 nber stretches=          24
  25 ben   1   2   3
  26 prop tor   1   2   3   4
  27 prop tor   1   2   3  17
  28 ben   1   2  16
  29 ben   1  14  13
  30 ben   1  14  22
  31 ben   2   1  14
  32 prop tor   2   1  14  13
  33 prop tor   2   1  14  22
  34 ben   2   1  15
  35 ben   2   3   4
  36 prop tor   2   3   4   5
  37 prop tor   2   3   4  13
  38 ben   2   3  17
  39 ben   3   2  16
  40 ben   3   4   5
  41 prop tor   3   4   5   6
  42 prop tor   3   4   5  12
  43 ben   3   4  13
  44 prop tor   3   4  13  14
  45 prop tor   3   4  13  21
  46 ben   4   3  17
  47 ben   4   5   6
  48 prop tor   4   5   6   7
  49 prop tor   4   5   6  18
  50 ben   4   5  12
  51 prop tor   4   5  12  11
  52 ben   4  13  14
  53 prop tor   4  13  14   1
  54 prop tor   4  13  14  22
  55 ben   4  13  21
  56 ben   5   4  13
  57 prop tor   5   4  13  14
  58 prop tor   5   4  13  21
  59 ben   5   6   7
  60 prop tor   5   6   7   8
  61 prop tor   5   6   7  11
  62 ben   5   6  18
  63 ben   5  12  11
  64 ben   6   5  12
  65 prop tor   6   5  12  11
  66 ben   6   7   8
  67 prop tor   6   7   8   9
  68 ben   6   7  11
  69 prop tor   6   7  11  10
  70 prop tor   6   7  11  12
  71 ben   7   6  18
  72 ben   7   8   9
  73 prop tor   7   8   9  10
  74 prop tor   7   8   9  19
  75 ben   7  11  10
  76 ben   7  11  12
  77 prop tor   7  11  12   5
  78 ben   8   7  11
  79 prop tor   8   7  11  10
  80 prop tor   8   7  11  12
  81 ben   8   9  10
  82 prop tor   8   9  10  11
  83 prop tor   8   9  10  20
  84 ben   8   9  19
  85 ben   9  10  11
  86 prop tor   9  10  11   7
  87 prop tor   9  10  11  12
  88 ben   9  10  20
  89 ben  10   9  19
  90 ben  10  11  12
  91 prop tor  10  11  12   5
  92 prop tor  11   7   8   9
  93 ben  11  10  20
  94 prop tor  12   5   6   7
  95 prop tor  12   5   6  18
  96 prop tor  13   4   5   6
  97 prop tor  13   4   5  12
  98 ben  13  14  22
  99 prop tor  14   1   2   3
 100 prop tor  14   1   2  16
 101 ben  14   1  15
 102 ben  14  13  21
 103 prop tor  15   1   2   3
 104 prop tor  15   1   2  16
 105 prop tor  15   1  14  13
 106 prop tor  15   1  14  22
 107 prop tor  16   2   3   4
 108 prop tor  16   2   3  17
 109 prop tor  17   3   4   5
 110 prop tor  17   3   4  13
 111 prop tor  18   6   7   8
 112 prop tor  18   6   7  11
 113 prop tor  19   9  10  11
 114 prop tor  19   9  10  20
 115 prop tor  20  10  11   7
 116 prop tor  20  10  11  12
 117 prop tor  21  13  14   1
 118 prop tor  21  13  14  22
 nber bend=              38
 nber lin bend=           0
 nber prop tor=          56
 nber impr tor=           0
 nber tot redund int=         118
 Eigenvalues of G in red int coords
    Gval -0.00000000 -0.00000000 -0.00000000 -0.00000000 -0.00000000 -0.00000000 -0.00000000 -0.00000000
    Gval -0.00000000 -0.00000000 -0.00000000 -0.00000000 -0.00000000 -0.00000000 -0.00000000 -0.00000000
    Gval -0.00000000 -0.00000000 -0.00000000 -0.00000000 -0.00000000 -0.00000000 -0.00000000 -0.00000000
    Gval -0.00000000 -0.00000000 -0.00000000  0.00000000  0.00000000  0.00000000  0.00000000  0.00000000
    Gval  0.00000000  0.00000000  0.00000000  0.00000000  0.00000000  0.00000000  0.00000000  0.00000000
    Gval  0.00000000  0.00000000  0.00000000  0.00000000  0.00000000  0.00000000  0.00000000  0.00000000
    Gval  0.00000000  0.00000000  0.00000000  0.00000000  0.00000000  0.00000000  0.00000000  0.00000000
    Gval  0.00000000  0.00000000  0.00000274  0.00000533  0.00001501  0.00001621  0.00002100  0.00003003
    Gval  0.00003313  0.00003991  0.00004721  0.00004856  0.00005473  0.00006294  0.00006483  0.00008973
    Gval  0.00009311  0.00010252  0.00011205  0.00011651  0.00012622  0.00015493  0.00015671  0.00018504
    Gval  0.00022265  0.00026869  0.00029767  0.00030982  0.00031155  0.00036505  0.00037474  0.00042876
    Gval  0.00053000  0.00055698  0.00059304  0.00059363  0.00059656  0.00060398  0.00062009  0.00062364
    Gval  0.00063077  0.00065771  0.00066015  0.00104193  0.00105636  0.00108072  0.00111035  0.00113952
    Gval  0.00114586  0.00117313  0.00117391  0.00118191  0.00128329  0.00144950  0.00188198  0.00206254
    Gval  0.00235203  0.00311010  0.00355695  0.00374852  0.00394525  0.00406307
  2.744614254607757E-006  2.744614254607757E-006
  5.330381549742043E-006  2.744614254607757E-006
  1.501200822926409E-005  2.744614254607757E-006
  1.620861311157980E-005  2.744614254607757E-006
  2.100095180611136E-005  2.744614254607757E-006
  3.002923048203276E-005  2.744614254607757E-006
  3.313218826808903E-005  2.744614254607757E-006
  3.991207793097821E-005  2.744614254607757E-006
  4.720567138836684E-005  2.744614254607757E-006
  4.855833808428540E-005  2.744614254607757E-006
  5.472751887518152E-005  2.744614254607757E-006
  6.294227223736544E-005  2.744614254607757E-006
  6.483225566114329E-005  2.744614254607757E-006
  8.973471347362671E-005  2.744614254607757E-006
  9.311052061119319E-005  2.744614254607757E-006
  1.025172545833079E-004  2.744614254607757E-006
  1.120455854227783E-004  2.744614254607757E-006
  1.165050907250629E-004  2.744614254607757E-006
  1.262183191442242E-004  2.744614254607757E-006
  1.549298754637729E-004  2.744614254607757E-006
  1.567146857711441E-004  2.744614254607757E-006
  1.850370472584978E-004  2.744614254607757E-006
  2.226520908422920E-004  2.744614254607757E-006
  2.686875729317861E-004  2.744614254607757E-006
  2.976679832372106E-004  2.744614254607757E-006
  3.098158104360652E-004  2.744614254607757E-006
  3.115491536339205E-004  2.744614254607757E-006
  3.650468709881464E-004  2.744614254607757E-006
  3.747448443711675E-004  2.744614254607757E-006
  4.287629414488875E-004  2.744614254607757E-006
  5.299980144735702E-004  2.744614254607757E-006
  5.569782951916168E-004  2.744614254607757E-006
  5.930369742836869E-004  2.744614254607757E-006
  5.936301215364202E-004  2.744614254607757E-006
  5.965562909702201E-004  2.744614254607757E-006
  6.039818918536766E-004  2.744614254607757E-006
  6.200858935076766E-004  2.744614254607757E-006
  6.236366250045658E-004  2.744614254607757E-006
  6.307677312849854E-004  2.744614254607757E-006
  6.577081442282563E-004  2.744614254607757E-006
  6.601508214377623E-004  2.744614254607757E-006
  1.041930587032968E-003  2.744614254607757E-006
  1.056357896776904E-003  2.744614254607757E-006
  1.080717018044445E-003  2.744614254607757E-006
  1.110351079383059E-003  2.744614254607757E-006
  1.139523897236053E-003  2.744614254607757E-006
  1.145861290164347E-003  2.744614254607757E-006
  1.173126506977451E-003  2.744614254607757E-006
  1.173914642767193E-003  2.744614254607757E-006
  1.181914524444908E-003  2.744614254607757E-006
  1.283293308398208E-003  2.744614254607757E-006
  1.449499909446396E-003  2.744614254607757E-006
  1.881983415942572E-003  2.744614254607757E-006
  2.062537170912118E-003  2.744614254607757E-006
  2.352025144261307E-003  2.744614254607757E-006
  3.110104578096493E-003  2.744614254607757E-006
  3.556952413000494E-003  2.744614254607757E-006
  3.748521229373168E-003  2.744614254607757E-006
  3.945246818098672E-003  2.744614254607757E-006
  4.063072212555020E-003  2.744614254607757E-006
 cut=1d-8, nber non-redundant internal coords=          60
 Check on Eigenvals of non-red overlap matrix:
  0.00000274  0.00000533  0.00001501  0.00001621  0.00002100  0.00003003  0.00003313  0.00003991
  0.00004721  0.00004856  0.00005473  0.00006294  0.00006483  0.00008973  0.00009311  0.00010252
  0.00011205  0.00011651  0.00012622  0.00015493  0.00015671  0.00018504  0.00022265  0.00026869
  0.00029767  0.00030982  0.00031155  0.00036505  0.00037474  0.00042876  0.00053000  0.00055698
  0.00059304  0.00059363  0.00059656  0.00060398  0.00062009  0.00062364  0.00063077  0.00065771
  0.00066015  0.00104193  0.00105636  0.00108072  0.00111035  0.00113952  0.00114586  0.00117313
  0.00117391  0.00118191  0.00128329  0.00144950  0.00188198  0.00206254  0.00235203  0.00311010
  0.00355695  0.00374852  0.00394525  0.00406307
 Checking for correct frequencies
 recalc frequencies=
    -0.0   -0.0   -0.0    0.0    0.0    0.0   23.5   62.1  116.8  155.0
   203.0  267.4  278.9  314.9  387.4  427.3  434.3  453.7  462.1  563.5
   582.2  616.5  624.8  641.2  665.5  682.8  759.2  765.4  783.0  806.3
   825.6  855.5  892.9  905.3  948.6  974.0  998.4 1007.1 1027.8 1040.2
  1099.2 1113.3 1170.1 1194.3 1203.6 1223.6 1244.8 1336.5 1353.4 1373.0
  1408.7 1425.1 1444.8 1477.2 1514.7 1531.1 1577.0 1623.8 3182.4 3190.5
  3199.5 3207.3 3213.1 3225.8 3238.4 3239.3
 recalc symmetries=
                                                                       
                                                                       
                                                                       
                                                                       
                                                                       
                                                                       
                                           
 recalc freqs check OK
 Zero-point lengths:
 10.0000 10.0000 10.0000 10.0000 10.0000 10.0000 51.0898 31.4574 22.9436 19.9098
 17.4011 15.1609 14.8448 13.9715 12.5960 11.9927 11.8958 11.6383 11.5326 10.4436
 10.2749  9.9844  9.9181  9.7906  9.6102  9.4871  8.9975  8.9609  8.8593  8.7304
  8.6282  8.4757  8.2967  8.2394  8.0491  7.9434  7.8460  7.8121  7.7330  7.6868
  7.4774  7.4299  7.2475  7.1737  7.1460  7.0873  7.0267  6.7814  6.7387  6.6905
  6.6053  6.5670  6.5222  6.4502  6.3699  6.3356  6.2428  6.1522  4.3946  4.3890
  4.3828  4.3775  4.3736  4.3649  4.3564  4.3558
 highest evec of mol 2
  0.0009 -0.0001 -0.0001
  0.0003 -0.0007 -0.0000
 -0.0002 -0.0008  0.0000
 -0.0006  0.0002  0.0001
  0.0029 -0.0027 -0.0002
  0.0318  0.1117 -0.0031
 -0.0087 -0.0041  0.0008
 -0.0008 -0.0023  0.0001
  0.2022  0.0007 -0.0175
  0.0462  0.1822 -0.0045
 -0.0108 -0.0044  0.0009
  0.0003 -0.0005 -0.0000
 -0.0134  0.0200  0.0011
  0.0026  0.0040 -0.0002
 -0.0021 -0.0001  0.0002
 -0.0014  0.0019  0.0001
  0.0007  0.0018 -0.0001
 -0.1008 -0.3638  0.0098
 -0.6411 -0.0372  0.0557
 -0.1670 -0.5621  0.0160
  0.0467 -0.0675 -0.0039
 -0.0061 -0.0126  0.0006
 Enter nber and list of atoms to keep of mol #2
 keep list:          22           1           2           3           4
           5           6           7           8           9          10
          11          12          13          14          15          16
          17          18          19          20          21          22
 reordering atoms
           1   4.74751366021139     
           2   4.15445839146919     
           3   2.77976031285565     
           4   1.95125083025091     
           5  0.524013322027579     
           6 -0.418612181481088     
           7  -1.71905277633074     
           8  -3.29899378095877     
           9  -4.03984445726064     
          10  -3.15364023550575     
          11  -1.83568275517969     
          12 -0.272893179645813     
          13   2.57502350162403     
          14   3.95153071536390     
          15   5.82719736599012     
          16   4.77426417487474     
          17   2.33576226275965     
          18 -0.136336801179923     
          19  -5.11915553801589     
          20  -3.46828970304725     
          21   1.97669379296312     
          22   4.41487588733967     
           1           1
           2           2
           3           3
           4           4
           5           5
           6           6
           7           7
           8           8
           9           9
          10          10
          11          11
          12          12
          13          13
          14          14
          15          15
          16          16
          17          17
          18          18
          19          19
          20          20
          21          21
          22          22
 initial cartes coords mol 1
   6   0.00002   0.26311   4.81802
   6   0.00010  -0.97525   4.16257
   6   0.00016  -1.05417   2.78133
   6   0.00011   0.12427   1.97321
   6   0.00018   0.07549   0.55533
   6  -0.00014   1.09517  -0.41500
   6  -0.00080   0.59023  -1.73981
  16   0.00024   1.30602  -3.31332
   6   0.00059  -0.25765  -4.13366
   6  -0.00014  -1.27840  -3.21399
   6  -0.00097  -0.79713  -1.86970
  16   0.00013  -1.53037  -0.29735
   6  -0.00003   1.37807   2.66107
   6  -0.00006   1.43398   4.04066
   1  -0.00002   0.31717   5.89939
   1   0.00011  -1.89210   4.74311
   1   0.00017  -2.03331   2.31401
   1  -0.00016   2.14390  -0.16141
   1   0.00013  -0.29570  -5.20934
   1  -0.00025  -2.32392  -3.49139
   1  -0.00010   2.30264   2.09561
   1  -0.00016   2.40317   4.52905
 initial cartes coords mol 2
   6  -0.00019   0.34134   4.74751
   6  -0.00012  -0.92804   4.15446
   6  -0.00000  -1.04758   2.77976
   6   0.00011   0.10591   1.95125
   6   0.00021  -0.00828   0.52401
   6   0.00020   1.05044  -0.41861
   6   0.00010   0.58931  -1.71905
  16  -0.00003   1.34616  -3.29899
   6  -0.00025  -0.21918  -4.03984
   6  -0.00018  -1.28609  -3.15364
   6  -0.00000  -0.82713  -1.83568
  16   0.00011  -1.58901  -0.27289
   6   0.00006   1.38357   2.57502
   6  -0.00013   1.49277   3.95153
   1  -0.00031   0.43179   5.82720
   1  -0.00018  -1.81581   4.77426
   1  -0.00001  -2.03600   2.33576
   1   0.00015   2.09259  -0.13634
   1  -0.00039  -0.28382  -5.11916
   1  -0.00027  -2.31974  -3.46829
   1   0.00015   2.28462   1.97669
   1  -0.00023   2.47140   4.41488
 loop 1 0
 mod cartes coords mol 2
   6  -0.00019   0.34134   4.74751
   6  -0.00012  -0.92804   4.15446
   6  -0.00000  -1.04758   2.77976
   6   0.00011   0.10591   1.95125
   6   0.00021  -0.00828   0.52401
   6   0.00020   1.05044  -0.41861
   6   0.00010   0.58931  -1.71905
  16  -0.00003   1.34616  -3.29899
   6  -0.00025  -0.21918  -4.03984
   6  -0.00018  -1.28609  -3.15364
   6  -0.00000  -0.82713  -1.83568
  16   0.00011  -1.58901  -0.27289
   6   0.00006   1.38357   2.57502
   6  -0.00013   1.49277   3.95153
   1  -0.00031   0.43179   5.82720
   1  -0.00018  -1.81581   4.77426
   1  -0.00001  -2.03600   2.33576
   1   0.00015   2.09259  -0.13634
   1  -0.00039  -0.28382  -5.11916
   1  -0.00027  -2.31974  -3.46829
   1   0.00015   2.28462   1.97669
   1  -0.00023   2.47140   4.41488
 read in order, maxerr=  0.14 for atom  15
 final axis swaps:           1           1           1
 final xyz swap pattern=           1
 reorder list:
   1   2   3   4   5   6   7   8   9  10  11  12  13  14  15  16  17  18  19  20
  21  22
 axis signs=           1           1           1
  6    -0.000194  0.341340  4.747514     0.000016  0.263113  4.818022
  6    -0.000124 -0.928041  4.154458     0.000104 -0.975251  4.162566
  6    -0.000002 -1.047578  2.779760     0.000156 -1.054169  2.781327
  6     0.000106  0.105906  1.951251     0.000106  0.124269  1.973214
  6     0.000214 -0.008278  0.524013     0.000179  0.075490  0.555334
  6     0.000198  1.050440 -0.418612    -0.000137  1.095171 -0.414997
  6     0.000098  0.589311 -1.719053    -0.000802  0.590232 -1.739808
 16    -0.000033  1.346158 -3.298994     0.000237  1.306023 -3.313316
  6    -0.000246 -0.219182 -4.039844     0.000590 -0.257653 -4.133662
  6    -0.000184 -1.286093 -3.153640    -0.000140 -1.278398 -3.213994
  6    -0.000002 -0.827130 -1.835683    -0.000969 -0.797133 -1.869703
 16     0.000111 -1.589009 -0.272893     0.000135 -1.530367 -0.297348
  6     0.000055  1.383572  2.575024    -0.000030  1.378074  2.661075
  6    -0.000129  1.492771  3.951531    -0.000062  1.433984  4.040663
  1    -0.000314  0.431790  5.827197    -0.000017  0.317171  5.899393
  1    -0.000176 -1.815806  4.774264     0.000106 -1.892103  4.743114
  1    -0.000015 -2.035999  2.335762     0.000168 -2.033315  2.314009
  1     0.000155  2.092587 -0.136337    -0.000164  2.143903 -0.161413
  1    -0.000393 -0.283824 -5.119156     0.000131 -0.295695 -5.209336
  1    -0.000269 -2.319740 -3.468290    -0.000246 -2.323918 -3.491385
  1     0.000151  2.284615  1.976694    -0.000101  2.302643  2.095610
  1    -0.000231  2.471399  4.414876    -0.000163  2.403170  4.529052
 generating redundant internal coords
         300        3600          22
 Adding extra bonds for z output only
           6           6           6           6           6           6
           6          16           6           6           6          16
           6           6           1           1           1           1
           1           1           1           1
 search for int coords
   1 str   2   1   1.401
   2 str   3   2   1.380
   3 str   4   3   1.420
   4 str   5   4   1.432
   5 str   6   5   1.418
   6 str   7   6   1.380
   7 str   8   7   1.752
   8 str   9   8   1.732
   9 str  10   9   1.387
  10 str  11   7   1.421
  11 str  11  10   1.396
  12 str  12   5   1.770
  13 str  12  11   1.739
  14 str  13   4   1.422
  15 str  14   1   1.400
  16 str  14  13   1.381
  17 str  15   1   1.083
  18 str  16   2   1.083
  19 str  17   3   1.084
  20 str  18   6   1.080
  21 str  19   9   1.081
  22 str  20  10   1.080
  23 str  21  13   1.082
  24 str  22  14   1.083
 nber stretches=          24
  25 ben   1   2   3
  26 prop tor   1   2   3   4
  27 prop tor   1   2   3  17
  28 ben   1   2  16
  29 ben   1  14  13
  30 ben   1  14  22
  31 ben   2   1  14
  32 prop tor   2   1  14  13
  33 prop tor   2   1  14  22
  34 ben   2   1  15
  35 ben   2   3   4
  36 prop tor   2   3   4   5
  37 prop tor   2   3   4  13
  38 ben   2   3  17
  39 ben   3   2  16
  40 ben   3   4   5
  41 prop tor   3   4   5   6
  42 prop tor   3   4   5  12
  43 ben   3   4  13
  44 prop tor   3   4  13  14
  45 prop tor   3   4  13  21
  46 ben   4   3  17
  47 ben   4   5   6
  48 prop tor   4   5   6   7
  49 prop tor   4   5   6  18
  50 ben   4   5  12
  51 prop tor   4   5  12  11
  52 ben   4  13  14
  53 prop tor   4  13  14   1
  54 prop tor   4  13  14  22
  55 ben   4  13  21
  56 ben   5   4  13
  57 prop tor   5   4  13  14
  58 prop tor   5   4  13  21
  59 ben   5   6   7
  60 prop tor   5   6   7   8
  61 prop tor   5   6   7  11
  62 ben   5   6  18
  63 ben   5  12  11
  64 ben   6   5  12
  65 prop tor   6   5  12  11
  66 ben   6   7   8
  67 prop tor   6   7   8   9
  68 ben   6   7  11
  69 prop tor   6   7  11  10
  70 prop tor   6   7  11  12
  71 ben   7   6  18
  72 ben   7   8   9
  73 prop tor   7   8   9  10
  74 prop tor   7   8   9  19
  75 ben   7  11  10
  76 ben   7  11  12
  77 prop tor   7  11  12   5
  78 ben   8   7  11
  79 prop tor   8   7  11  10
  80 prop tor   8   7  11  12
  81 ben   8   9  10
  82 prop tor   8   9  10  11
  83 prop tor   8   9  10  20
  84 ben   8   9  19
  85 ben   9  10  11
  86 prop tor   9  10  11   7
  87 prop tor   9  10  11  12
  88 ben   9  10  20
  89 ben  10   9  19
  90 ben  10  11  12
  91 prop tor  10  11  12   5
  92 prop tor  11   7   8   9
  93 ben  11  10  20
  94 prop tor  12   5   6   7
  95 prop tor  12   5   6  18
  96 prop tor  13   4   5   6
  97 prop tor  13   4   5  12
  98 ben  13  14  22
  99 prop tor  14   1   2   3
 100 prop tor  14   1   2  16
 101 ben  14   1  15
 102 ben  14  13  21
 103 prop tor  15   1   2   3
 104 prop tor  15   1   2  16
 105 prop tor  15   1  14  13
 106 prop tor  15   1  14  22
 107 prop tor  16   2   3   4
 108 prop tor  16   2   3  17
 109 prop tor  17   3   4   5
 110 prop tor  17   3   4  13
 111 prop tor  18   6   7   8
 112 prop tor  18   6   7  11
 113 prop tor  19   9  10  11
 114 prop tor  19   9  10  20
 115 prop tor  20  10  11   7
 116 prop tor  20  10  11  12
 117 prop tor  21  13  14   1
 118 prop tor  21  13  14  22
 nber bend=              38
 nber lin bend=           0
 nber prop tor=          56
 nber impr tor=           0
 nber tot redund int=         118
 generating redundant internal coords
         300        3600          22
 search for int coords
   1 str   2   1   1.401
   2 str   3   2   1.383
   3 str   4   3   1.429
   4 str   5   4   1.419
   5 str   6   5   1.408
   6 str   7   6   1.418
   7 str   8   7   1.729
   8 str   9   8   1.766
   9 str  10   9   1.374
  10 str  11   7   1.393
  11 str  11  10   1.428
  12 str  12   5   1.818
  13 str  12  11   1.735
  14 str  13   4   1.430
  15 str  14   1   1.405
  16 str  14  13   1.381
  17 str  15   1   1.083
  18 str  16   2   1.085
  19 str  17   3   1.085
  20 str  18   6   1.079
  21 str  19   9   1.076
  22 str  20  10   1.082
  23 str  21  13   1.084
  24 str  22  14   1.085
 nber stretches=          24
  25 ben   1   2   3
  26 prop tor   1   2   3   4
  27 prop tor   1   2   3  17
  28 ben   1   2  16
  29 ben   1  14  13
  30 ben   1  14  22
  31 ben   2   1  14
  32 prop tor   2   1  14  13
  33 prop tor   2   1  14  22
  34 ben   2   1  15
  35 ben   2   3   4
  36 prop tor   2   3   4   5
  37 prop tor   2   3   4  13
  38 ben   2   3  17
  39 ben   3   2  16
  40 ben   3   4   5
  41 prop tor   3   4   5   6
  42 prop tor   3   4   5  12
  43 ben   3   4  13
  44 prop tor   3   4  13  14
  45 prop tor   3   4  13  21
  46 ben   4   3  17
  47 ben   4   5   6
  48 prop tor   4   5   6   7
  49 prop tor   4   5   6  18
  50 ben   4   5  12
  51 prop tor   4   5  12  11
  52 ben   4  13  14
  53 prop tor   4  13  14   1
  54 prop tor   4  13  14  22
  55 ben   4  13  21
  56 ben   5   4  13
  57 prop tor   5   4  13  14
  58 prop tor   5   4  13  21
  59 ben   5   6   7
  60 prop tor   5   6   7   8
  61 prop tor   5   6   7  11
  62 ben   5   6  18
  63 ben   5  12  11
  64 ben   6   5  12
  65 prop tor   6   5  12  11
  66 ben   6   7   8
  67 prop tor   6   7   8   9
  68 ben   6   7  11
  69 prop tor   6   7  11  10
  70 prop tor   6   7  11  12
  71 ben   7   6  18
  72 ben   7   8   9
  73 prop tor   7   8   9  10
  74 prop tor   7   8   9  19
  75 ben   7  11  10
  76 ben   7  11  12
  77 prop tor   7  11  12   5
  78 ben   8   7  11
  79 prop tor   8   7  11  10
  80 prop tor   8   7  11  12
  81 ben   8   9  10
  82 prop tor   8   9  10  11
  83 prop tor   8   9  10  20
  84 ben   8   9  19
  85 ben   9  10  11
  86 prop tor   9  10  11   7
  87 prop tor   9  10  11  12
  88 ben   9  10  20
  89 ben  10   9  19
  90 ben  10  11  12
  91 prop tor  10  11  12   5
  92 prop tor  11   7   8   9
  93 ben  11  10  20
  94 prop tor  12   5   6   7
  95 prop tor  12   5   6  18
  96 prop tor  13   4   5   6
  97 prop tor  13   4   5  12
  98 ben  13  14  22
  99 prop tor  14   1   2   3
 100 prop tor  14   1   2  16
 101 ben  14   1  15
 102 ben  14  13  21
 103 prop tor  15   1   2   3
 104 prop tor  15   1   2  16
 105 prop tor  15   1  14  13
 106 prop tor  15   1  14  22
 107 prop tor  16   2   3   4
 108 prop tor  16   2   3  17
 109 prop tor  17   3   4   5
 110 prop tor  17   3   4  13
 111 prop tor  18   6   7   8
 112 prop tor  18   6   7  11
 113 prop tor  19   9  10  11
 114 prop tor  19   9  10  20
 115 prop tor  20  10  11   7
 116 prop tor  20  10  11  12
 117 prop tor  21  13  14   1
 118 prop tor  21  13  14  22
 nber bend=              38
 nber lin bend=           0
 nber prop tor=          56
 nber impr tor=           0
 nber tot redund int=         118
 Eigenvalues of G in red int coords
    Gval -0.00000000 -0.00000000 -0.00000000 -0.00000000 -0.00000000 -0.00000000 -0.00000000 -0.00000000
    Gval -0.00000000 -0.00000000 -0.00000000 -0.00000000 -0.00000000 -0.00000000 -0.00000000 -0.00000000
    Gval -0.00000000 -0.00000000 -0.00000000 -0.00000000 -0.00000000 -0.00000000 -0.00000000 -0.00000000
    Gval -0.00000000 -0.00000000 -0.00000000 -0.00000000  0.00000000  0.00000000  0.00000000  0.00000000
    Gval  0.00000000  0.00000000  0.00000000  0.00000000  0.00000000  0.00000000  0.00000000  0.00000000
    Gval  0.00000000  0.00000000  0.00000000  0.00000000  0.00000000  0.00000000  0.00000000  0.00000000
    Gval  0.00000000  0.00000000  0.00000000  0.00000000  0.00000000  0.00000000  0.00000000  0.00000000
    Gval  0.00000000  0.00000000  0.00000276  0.00000524  0.00001511  0.00001641  0.00002077  0.00003005
    Gval  0.00003306  0.00003971  0.00004736  0.00004857  0.00005505  0.00006264  0.00006488  0.00008827
    Gval  0.00009108  0.00010266  0.00011170  0.00011652  0.00012606  0.00015488  0.00015603  0.00018320
    Gval  0.00022168  0.00026647  0.00029435  0.00030242  0.00030911  0.00036295  0.00037708  0.00043425
    Gval  0.00053732  0.00055394  0.00059306  0.00059356  0.00059669  0.00060367  0.00061946  0.00062270
    Gval  0.00063097  0.00063952  0.00065941  0.00103919  0.00108350  0.00108500  0.00110486  0.00113720
    Gval  0.00114478  0.00116698  0.00117162  0.00118824  0.00130327  0.00145544  0.00189973  0.00214389
    Gval  0.00233013  0.00311164  0.00358074  0.00369907  0.00401143  0.00405853
  2.756225509950057E-006  2.756225509950057E-006
  5.235487759957489E-006  2.756225509950057E-006
  1.511064683357981E-005  2.756225509950057E-006
  1.641377352043075E-005  2.756225509950057E-006
  2.077169719999502E-005  2.756225509950057E-006
  3.004699048435699E-005  2.756225509950057E-006
  3.305989340838233E-005  2.756225509950057E-006
  3.970663290616408E-005  2.756225509950057E-006
  4.735558149759997E-005  2.756225509950057E-006
  4.857444466761750E-005  2.756225509950057E-006
  5.504850879930468E-005  2.756225509950057E-006
  6.264220367135290E-005  2.756225509950057E-006
  6.488308385807110E-005  2.756225509950057E-006
  8.826738306962358E-005  2.756225509950057E-006
  9.108152085602598E-005  2.756225509950057E-006
  1.026560990108210E-004  2.756225509950057E-006
  1.117009018363586E-004  2.756225509950057E-006
  1.165153083628320E-004  2.756225509950057E-006
  1.260553557349813E-004  2.756225509950057E-006
  1.548783928148216E-004  2.756225509950057E-006
  1.560328642546085E-004  2.756225509950057E-006
  1.831996199525542E-004  2.756225509950057E-006
  2.216848845458433E-004  2.756225509950057E-006
  2.664746404826584E-004  2.756225509950057E-006
  2.943470825779343E-004  2.756225509950057E-006
  3.024215466999703E-004  2.756225509950057E-006
  3.091092266544396E-004  2.756225509950057E-006
  3.629481017340173E-004  2.756225509950057E-006
  3.770810632116733E-004  2.756225509950057E-006
  4.342489947979375E-004  2.756225509950057E-006
  5.373174994356399E-004  2.756225509950057E-006
  5.539372439310584E-004  2.756225509950057E-006
  5.930558767830976E-004  2.756225509950057E-006
  5.935593265871849E-004  2.756225509950057E-006
  5.966896930514142E-004  2.756225509950057E-006
  6.036734670686215E-004  2.756225509950057E-006
  6.194580778107806E-004  2.756225509950057E-006
  6.226978457524118E-004  2.756225509950057E-006
  6.309748950582353E-004  2.756225509950057E-006
  6.395197318665560E-004  2.756225509950057E-006
  6.594135877326851E-004  2.756225509950057E-006
  1.039188578925218E-003  2.756225509950057E-006
  1.083504233892668E-003  2.756225509950057E-006
  1.085000506031425E-003  2.756225509950057E-006
  1.104864761624077E-003  2.756225509950057E-006
  1.137198902744705E-003  2.756225509950057E-006
  1.144775696780507E-003  2.756225509950057E-006
  1.166976296426298E-003  2.756225509950057E-006
  1.171624905498689E-003  2.756225509950057E-006
  1.188239865511318E-003  2.756225509950057E-006
  1.303273667626655E-003  2.756225509950057E-006
  1.455439411084633E-003  2.756225509950057E-006
  1.899732099453452E-003  2.756225509950057E-006
  2.143893207857282E-003  2.756225509950057E-006
  2.330132441279730E-003  2.756225509950057E-006
  3.111637080829392E-003  2.756225509950057E-006
  3.580738130402199E-003  2.756225509950057E-006
  3.699074657304912E-003  2.756225509950057E-006
  4.011434171063552E-003  2.756225509950057E-006
  4.058527251476346E-003  2.756225509950057E-006
 cut=1d-8, nber non-redundant internal coords=          60
 Check on Eigenvals of non-red overlap matrix:
  0.00000276  0.00000524  0.00001511  0.00001641  0.00002077  0.00003005  0.00003306  0.00003971
  0.00004736  0.00004857  0.00005505  0.00006264  0.00006488  0.00008827  0.00009108  0.00010266
  0.00011170  0.00011652  0.00012606  0.00015488  0.00015603  0.00018320  0.00022168  0.00026647
  0.00029435  0.00030242  0.00030911  0.00036295  0.00037708  0.00043425  0.00053732  0.00055394
  0.00059306  0.00059356  0.00059669  0.00060367  0.00061946  0.00062270  0.00063097  0.00063952
  0.00065941  0.00103919  0.00108350  0.00108500  0.00110486  0.00113720  0.00114478  0.00116698
  0.00117162  0.00118824  0.00130327  0.00145544  0.00189973  0.00214389  0.00233013  0.00311164
  0.00358074  0.00369907  0.00401143  0.00405853
 generating redundant internal coords
         300        3600          22
 search for int coords
   1 str   2   1   1.401
   2 str   3   2   1.380
   3 str   4   3   1.420
   4 str   5   4   1.432
   5 str   6   5   1.418
   6 str   7   6   1.380
   7 str   8   7   1.752
   8 str   9   8   1.732
   9 str  10   9   1.387
  10 str  11   7   1.421
  11 str  11  10   1.396
  12 str  12   5   1.770
  13 str  12  11   1.739
  14 str  13   4   1.422
  15 str  14   1   1.400
  16 str  14  13   1.381
  17 str  15   1   1.083
  18 str  16   2   1.083
  19 str  17   3   1.084
  20 str  18   6   1.080
  21 str  19   9   1.081
  22 str  20  10   1.080
  23 str  21  13   1.082
  24 str  22  14   1.083
 nber stretches=          24
  25 ben   1   2   3
  26 prop tor   1   2   3   4
  27 prop tor   1   2   3  17
  28 ben   1   2  16
  29 ben   1  14  13
  30 ben   1  14  22
  31 ben   2   1  14
  32 prop tor   2   1  14  13
  33 prop tor   2   1  14  22
  34 ben   2   1  15
  35 ben   2   3   4
  36 prop tor   2   3   4   5
  37 prop tor   2   3   4  13
  38 ben   2   3  17
  39 ben   3   2  16
  40 ben   3   4   5
  41 prop tor   3   4   5   6
  42 prop tor   3   4   5  12
  43 ben   3   4  13
  44 prop tor   3   4  13  14
  45 prop tor   3   4  13  21
  46 ben   4   3  17
  47 ben   4   5   6
  48 prop tor   4   5   6   7
  49 prop tor   4   5   6  18
  50 ben   4   5  12
  51 prop tor   4   5  12  11
  52 ben   4  13  14
  53 prop tor   4  13  14   1
  54 prop tor   4  13  14  22
  55 ben   4  13  21
  56 ben   5   4  13
  57 prop tor   5   4  13  14
  58 prop tor   5   4  13  21
  59 ben   5   6   7
  60 prop tor   5   6   7   8
  61 prop tor   5   6   7  11
  62 ben   5   6  18
  63 ben   5  12  11
  64 ben   6   5  12
  65 prop tor   6   5  12  11
  66 ben   6   7   8
  67 prop tor   6   7   8   9
  68 ben   6   7  11
  69 prop tor   6   7  11  10
  70 prop tor   6   7  11  12
  71 ben   7   6  18
  72 ben   7   8   9
  73 prop tor   7   8   9  10
  74 prop tor   7   8   9  19
  75 ben   7  11  10
  76 ben   7  11  12
  77 prop tor   7  11  12   5
  78 ben   8   7  11
  79 prop tor   8   7  11  10
  80 prop tor   8   7  11  12
  81 ben   8   9  10
  82 prop tor   8   9  10  11
  83 prop tor   8   9  10  20
  84 ben   8   9  19
  85 ben   9  10  11
  86 prop tor   9  10  11   7
  87 prop tor   9  10  11  12
  88 ben   9  10  20
  89 ben  10   9  19
  90 ben  10  11  12
  91 prop tor  10  11  12   5
  92 prop tor  11   7   8   9
  93 ben  11  10  20
  94 prop tor  12   5   6   7
  95 prop tor  12   5   6  18
  96 prop tor  13   4   5   6
  97 prop tor  13   4   5  12
  98 ben  13  14  22
  99 prop tor  14   1   2   3
 100 prop tor  14   1   2  16
 101 ben  14   1  15
 102 ben  14  13  21
 103 prop tor  15   1   2   3
 104 prop tor  15   1   2  16
 105 prop tor  15   1  14  13
 106 prop tor  15   1  14  22
 107 prop tor  16   2   3   4
 108 prop tor  16   2   3  17
 109 prop tor  17   3   4   5
 110 prop tor  17   3   4  13
 111 prop tor  18   6   7   8
 112 prop tor  18   6   7  11
 113 prop tor  19   9  10  11
 114 prop tor  19   9  10  20
 115 prop tor  20  10  11   7
 116 prop tor  20  10  11  12
 117 prop tor  21  13  14   1
 118 prop tor  21  13  14  22
 nber bend=              38
 nber lin bend=           0
 nber prop tor=          56
 nber impr tor=           0
 nber tot redund int=         118
 Eigenvalues of G in red int coords
    Gval -0.00000000 -0.00000000 -0.00000000 -0.00000000 -0.00000000 -0.00000000 -0.00000000 -0.00000000
    Gval -0.00000000 -0.00000000 -0.00000000 -0.00000000 -0.00000000 -0.00000000 -0.00000000 -0.00000000
    Gval -0.00000000 -0.00000000 -0.00000000 -0.00000000 -0.00000000 -0.00000000 -0.00000000 -0.00000000
    Gval -0.00000000 -0.00000000 -0.00000000  0.00000000  0.00000000  0.00000000  0.00000000  0.00000000
    Gval  0.00000000  0.00000000  0.00000000  0.00000000  0.00000000  0.00000000  0.00000000  0.00000000
    Gval  0.00000000  0.00000000  0.00000000  0.00000000  0.00000000  0.00000000  0.00000000  0.00000000
    Gval  0.00000000  0.00000000  0.00000000  0.00000000  0.00000000  0.00000000  0.00000000  0.00000000
    Gval  0.00000000  0.00000000  0.00000274  0.00000533  0.00001501  0.00001621  0.00002100  0.00003003
    Gval  0.00003313  0.00003991  0.00004721  0.00004856  0.00005473  0.00006294  0.00006483  0.00008973
    Gval  0.00009311  0.00010252  0.00011205  0.00011651  0.00012622  0.00015493  0.00015671  0.00018504
    Gval  0.00022265  0.00026869  0.00029767  0.00030982  0.00031155  0.00036505  0.00037474  0.00042876
    Gval  0.00053000  0.00055698  0.00059304  0.00059363  0.00059656  0.00060398  0.00062009  0.00062364
    Gval  0.00063077  0.00065771  0.00066015  0.00104193  0.00105636  0.00108072  0.00111035  0.00113952
    Gval  0.00114586  0.00117313  0.00117391  0.00118191  0.00128329  0.00144950  0.00188198  0.00206254
    Gval  0.00235203  0.00311010  0.00355695  0.00374852  0.00394525  0.00406307
  2.744614254607693E-006  2.744614254607693E-006
  5.330381549741834E-006  2.744614254607693E-006
  1.501200822926403E-005  2.744614254607693E-006
  1.620861311157974E-005  2.744614254607693E-006
  2.100095180611127E-005  2.744614254607693E-006
  3.002923048203261E-005  2.744614254607693E-006
  3.313218826808893E-005  2.744614254607693E-006
  3.991207793097807E-005  2.744614254607693E-006
  4.720567138836684E-005  2.744614254607693E-006
  4.855833808428539E-005  2.744614254607693E-006
  5.472751887518141E-005  2.744614254607693E-006
  6.294227223736546E-005  2.744614254607693E-006
  6.483225566114325E-005  2.744614254607693E-006
  8.973471347362658E-005  2.744614254607693E-006
  9.311052061119274E-005  2.744614254607693E-006
  1.025172545833078E-004  2.744614254607693E-006
  1.120455854227784E-004  2.744614254607693E-006
  1.165050907250629E-004  2.744614254607693E-006
  1.262183191442243E-004  2.744614254607693E-006
  1.549298754637729E-004  2.744614254607693E-006
  1.567146857711444E-004  2.744614254607693E-006
  1.850370472584977E-004  2.744614254607693E-006
  2.226520908422921E-004  2.744614254607693E-006
  2.686875729317855E-004  2.744614254607693E-006
  2.976679832372102E-004  2.744614254607693E-006
  3.098158104360650E-004  2.744614254607693E-006
  3.115491536339195E-004  2.744614254607693E-006
  3.650468709881471E-004  2.744614254607693E-006
  3.747448443711675E-004  2.744614254607693E-006
  4.287629414488872E-004  2.744614254607693E-006
  5.299980144735700E-004  2.744614254607693E-006
  5.569782951916183E-004  2.744614254607693E-006
  5.930369742836865E-004  2.744614254607693E-006
  5.936301215364205E-004  2.744614254607693E-006
  5.965562909702203E-004  2.744614254607693E-006
  6.039818918536757E-004  2.744614254607693E-006
  6.200858935076767E-004  2.744614254607693E-006
  6.236366250045654E-004  2.744614254607693E-006
  6.307677312849854E-004  2.744614254607693E-006
  6.577081442282561E-004  2.744614254607693E-006
  6.601508214377625E-004  2.744614254607693E-006
  1.041930587032967E-003  2.744614254607693E-006
  1.056357896776903E-003  2.744614254607693E-006
  1.080717018044444E-003  2.744614254607693E-006
  1.110351079383060E-003  2.744614254607693E-006
  1.139523897236053E-003  2.744614254607693E-006
  1.145861290164345E-003  2.744614254607693E-006
  1.173126506977450E-003  2.744614254607693E-006
  1.173914642767191E-003  2.744614254607693E-006
  1.181914524444908E-003  2.744614254607693E-006
  1.283293308398212E-003  2.744614254607693E-006
  1.449499909446395E-003  2.744614254607693E-006
  1.881983415942572E-003  2.744614254607693E-006
  2.062537170912114E-003  2.744614254607693E-006
  2.352025144261309E-003  2.744614254607693E-006
  3.110104578096483E-003  2.744614254607693E-006
  3.556952413000491E-003  2.744614254607693E-006
  3.748521229373167E-003  2.744614254607693E-006
  3.945246818098667E-003  2.744614254607693E-006
  4.063072212555014E-003  2.744614254607693E-006
 cut=1d-8, nber non-redundant internal coords=          60
 Check on Eigenvals of non-red overlap matrix:
  0.00000274  0.00000533  0.00001501  0.00001621  0.00002100  0.00003003  0.00003313  0.00003991
  0.00004721  0.00004856  0.00005473  0.00006294  0.00006483  0.00008973  0.00009311  0.00010252
  0.00011205  0.00011651  0.00012622  0.00015493  0.00015671  0.00018504  0.00022265  0.00026869
  0.00029767  0.00030982  0.00031155  0.00036505  0.00037474  0.00042876  0.00053000  0.00055698
  0.00059304  0.00059363  0.00059656  0.00060398  0.00062009  0.00062364  0.00063077  0.00065771
  0.00066015  0.00104193  0.00105636  0.00108072  0.00111035  0.00113952  0.00114586  0.00117313
  0.00117391  0.00118191  0.00128329  0.00144950  0.00188198  0.00206254  0.00235203  0.00311010
  0.00355695  0.00374852  0.00394525  0.00406307
 d1=
  27.6  17.8  -0.2  -7.3  -5.8  -0.0 -15.1  -8.7  -2.0  -3.2   2.1   2.5   3.2   0.1   0.0   0.3  -0.5   1.4   0.7   6.6
   0.1  -2.8   3.4   3.4   1.2   0.1  -3.3   0.3   0.9  -2.8  -0.0   0.0  -0.0  -0.1   0.6   0.6  -0.2  -0.9  -1.0  -0.1
  -0.4  -0.1  -1.2  -0.0   0.2   0.2  -0.3  -0.3   0.0  -0.7  -0.0   0.0   0.0   0.1  -0.0   0.0   0.0   0.0   0.0  -0.0
 d2=
 -29.4  17.6  -0.1  -7.0  -5.4  -0.0  14.9  -8.5  -2.0   3.5   2.2  -2.8  -2.8  -0.2  -0.0   0.2   0.5   1.4   0.8  -0.1
   6.7  -3.0   3.3  -3.4   1.7  -3.1   0.1  -0.4  -0.7  -2.8   0.0   0.1   0.0  -0.1  -0.6   0.6   0.2  -0.8  -1.0  -0.1
  -0.4   0.1   0.0  -1.2  -0.2   0.2  -0.2  -0.1   0.3   0.5   0.0  -0.0   0.0   0.1   0.0  -0.0   0.0   0.0  -0.0   0.0
 curvilinear- renormalizn of Dush matrix done
  mol 1 sym            1  -> mol 2 sym            1

 Dushinsky matrix, ncs 2 in terms of ncs 1

   mode   freq    coeff     %      %tot     of    at

   1        -0.  0.0000     0.0     0.0   8        52.
   2        -0.  0.0000     0.0     0.0   7        30.
   3        -0.  0.0000     0.0     0.0   7        30.
   4         0.  0.0000     0.0     0.0   7        30.
   5         0. -0.0000     0.0     0.0   7        30.
   6         0.  0.0000     0.0     0.0   7        30.
   7        24. -0.9801    96.1    96.9   7        30.
   8        62.  0.9937    98.7   101.9   8        52.
   9       117. -0.9994    99.9   100.0   9       108.
  10       155.  0.3818    14.6   101.9  10       111.
                 0.9043    81.8          11       132.
  11       203. -0.7192    51.7    98.5  10       111.
                 0.3947    15.6          11       132.
                -0.5348    28.6          12       188.
  12       267.  0.9817    96.4   101.3  13       262.
  13       279.  0.4991    24.9   102.4  10       111.
                -0.8038    64.6          12       188.
  14       315.  0.9795    95.9   100.1  14       305.
  15       387.  0.9659    93.3    97.3  18       418.
  16       427. -0.9686    93.8    98.9  17       416.
  17       434.  0.9041    81.7   103.0  15       344.
  18       454.  0.9470    89.7   100.9  19       468.
  19       462.  0.8783    77.1   103.0  16       394.
  20       563.  0.3322    11.0   104.4  15       344.
                 0.7130    50.8          20       473.
                -0.4485    20.1          21       502.
  21       582.  0.8379    70.2   101.1  22       565.
                -0.4889    23.9          24       584.
  22       617.  0.9703    94.1    99.7  25       628.
  23       625. -0.6063    36.8    99.4  21       502.
                 0.7480    56.0          23       574.
  24       641.  0.4118    17.0   102.6  22       565.
                 0.8205    67.3          24       584.
  25       665.  0.3946    15.6   100.0  26       651.
                 0.8615    74.2          27       670.
  26       683.  0.8583    73.7    99.8  28       674.
                 0.3317    11.0          30       759.
  27       759. -0.3416    11.7    99.9  28       674.
                 0.8753    76.6          30       759.
  28       765.  0.3328    11.1    97.0  16       394.
                -0.4115    16.9          20       473.
                -0.5241    27.5          21       502.
                -0.4924    24.2          23       574.
                 0.3651    13.3          34       847.
  29       783. -0.9203    84.7   101.2  29       715.
  30       806. -0.9476    89.8   101.0  33       815.
  31       826. -0.9402    88.4   100.9  31       765.
  32       856.  0.8278    68.5   101.9  26       651.
                -0.3285    10.8          27       670.
  33       893.  0.9622    92.6   101.1  35       883.
  34       905.  0.9448    89.3    97.9  34       847.
  35       949.  0.9176    84.2   100.3  32       802.
  36       974.  0.9455    89.4   100.2  36       937.
  37       998. -0.9847    97.0   101.2  37       942.
  38      1007.  0.9873    97.5   100.1  39       993.
  39      1028.  0.9485    90.0   100.2  38       952.
  40      1040.  0.9950    99.0    99.9  40      1026.
  41      1099. -0.7273    52.9    99.9  41      1091.
                 0.5342    28.5          42      1100.
  42      1113.  0.6194    38.4   100.6  41      1091.
                 0.7634    58.3          42      1100.
  43      1170.  0.3210    10.3    99.9  42      1100.
                -0.4746    22.5          44      1173.
                -0.5913    35.0          45      1173.
                -0.4136    17.1          47      1242.
  44      1194. -0.8730    76.2   100.2  43      1156.
                 0.3569    12.7          44      1173.
  45      1204. -0.3450    11.9   101.1  43      1156.
                -0.4412    19.5          44      1173.
                 0.6888    47.4          45      1173.
                -0.3507    12.3          47      1242.
  46      1224. -0.9447    89.3   100.4  46      1205.
  47      1245. -0.6043    36.5    99.9  44      1173.
                 0.5314    28.2          47      1242.
  48      1336.  0.8210    67.4   100.4  48      1314.
                -0.3941    15.5          49      1326.
  49      1353.  0.5806    33.7   100.2  49      1326.
                -0.5849    34.2          50      1348.
  50      1373.  0.9532    90.9   100.1  51      1362.
  51      1409.  0.3232    10.4   101.5  47      1242.
                -0.3581    12.8          49      1326.
                 0.4928    24.3          54      1470.
                 0.4782    22.9          58      1653.
  52      1425.  0.6975    48.7   100.4  52      1405.
                -0.4307    18.5          54      1470.
                 0.4277    18.3          58      1653.
  53      1445. -0.3779    14.3    99.5  48      1314.
                -0.5777    33.4          49      1326.
                -0.5682    32.3          50      1348.
  54      1477.  0.8779    77.1   100.3  53      1457.
  55      1515.  0.3552    12.6    99.8  52      1405.
                 0.6259    39.2          54      1470.
                 0.4247    18.0          55      1523.
  56      1531.  0.3310    11.0    99.7  52      1405.
                -0.5474    30.0          55      1523.
                -0.5184    26.9          56      1534.
                -0.4410    19.4          58      1653.
  57      1577.  0.5559    30.9   100.4  55      1523.
                -0.7661    58.7          56      1534.
  58      1624. -0.9200    84.6    99.8  57      1618.
  59      3182. -0.9504    90.3   100.0  59      3148.
  60      3190.  0.7817    61.1   100.0  60      3152.
                 0.4428    19.6          61      3166.
                 0.3937    15.5          63      3192.
  61      3199.  0.6037    36.4   100.0  60      3152.
                -0.7002    49.0          61      3166.
  62      3207.  0.4716    22.2   100.0  61      3166.
                 0.6355    40.4          62      3175.
                -0.5456    29.8          63      3192.
  63      3213. -0.7157    51.2   100.0  62      3175.
                -0.6564    43.1          63      3192.
  64      3226.  0.8194    67.1   100.0  64      3214.
                 0.5729    32.8          66      3272.
  65      3238. -0.9010    81.2   100.0  65      3235.
                -0.3367    11.3          66      3272.
  66      3239. -0.5222    27.3   100.0  64      3214.
                -0.4068    16.6          65      3235.
                 0.7470    55.8          66      3272.
 nber times 1st assigned=           1           0
 nber times 1st assigned=           2           0
 nber times 1st assigned=           3           0
 nber times 1st assigned=           4           0
 nber times 1st assigned=           5           0
 nber times 1st assigned=           6           0
 nber times 1st assigned=           7           5
 nber times 1st assigned=           9           0
 nber times 1st assigned=          10           0
 nber times 1st assigned=          11           0
 nber times 1st assigned=          12           0
 nber times 1st assigned=          13           0
 nber times 1st assigned=          14           0
 nber times 1st assigned=          15           0
 nber times 1st assigned=          16           0
 nber times 1st assigned=          17           0
 nber times 1st assigned=          18           0
 nber times 1st assigned=          19           0
 nber times 1st assigned=          20           0
 nber times 1st assigned=          21           0
 nber times 1st assigned=          22           0
 nber times 1st assigned=          23           0
 nber times 1st assigned=          24           0
 nber times 1st assigned=          25           0
 nber times 1st assigned=          26           0
 nber times 1st assigned=          27           0
 nber times 1st assigned=          28           0
 nber times 1st assigned=          29           0
 nber times 1st assigned=          30           0
 nber times 1st assigned=          31           0
 nber times 1st assigned=          32           0
 nber times 1st assigned=          33           0
 nber times 1st assigned=          34           0
 nber times 1st assigned=          35           0
 nber times 1st assigned=          36           0
 nber times 1st assigned=          37           0
 nber times 1st assigned=          38           0
 nber times 1st assigned=          39           0
 nber times 1st assigned=          40           0
 nber times 1st assigned=          41           0
 nber times 1st assigned=          42           0
 nber times 1st assigned=          43           0
 nber times 1st assigned=          44           0
 nber times 1st assigned=          45           0
 nber times 1st assigned=          46           0
 nber times 1st assigned=          47           0
 nber times 1st assigned=          48           0
 nber times 1st assigned=          49           0
 nber times 1st assigned=          50           0
 nber times 1st assigned=          51           0
 nber times 1st assigned=          52           0
 nber times 1st assigned=          53           0
 nber times 1st assigned=          54           0
 nber times 1st assigned=          55           0
 nber times 1st assigned=          56           0
 nber times 1st assigned=          57           0
 nber times 1st assigned=          58           0
 nber times 1st assigned=          59           0
 nber times 1st assigned=          60           0
 nber times 1st assigned=          61           0
 nber times 1st assigned=          62           0
 nber times 1st assigned=          63           0
 nber times 1st assigned=          64           0
 nber times 1st assigned=          65           0
 nber times 1st assigned=          66           0
 Dushinsky matrix written to .out file
 modes represented=   60.2016674667294     

 Dushinsky matrix, ncs 1 in terms of ncs 2

   mode   freq    coeff     %      %tot     of    at

   7        30. -0.9801    96.1   105.8   7        24.
   8        52.  0.9937    98.7   107.6   8        62.
   9       108. -0.9994    99.9   100.5   9       117.
  10       111.  0.3818    14.6    99.9  10       155.
                -0.7192    51.7          11       203.
                 0.4991    24.9          13       279.
  11       132.  0.9043    81.8   101.2  10       155.
                 0.3947    15.6          11       203.
  12       188. -0.5348    28.6   101.3  11       203.
                -0.8038    64.6          13       279.
  13       262.  0.9817    96.4   102.4  12       267.
  14       305.  0.9795    95.9   100.5  14       315.
  15       344.  0.9041    81.7   100.5  17       434.
                 0.3322    11.0          20       563.
  16       394.  0.8783    77.1   102.9  19       462.
                 0.3328    11.1          28       765.
  17       416. -0.9686    93.8    98.7  16       427.
  18       418.  0.9659    93.3    97.5  15       387.
  19       468.  0.9470    89.7   100.8  18       454.
  20       473.  0.7130    50.8    97.7  20       563.
                -0.4115    16.9          28       765.
  21       502. -0.4485    20.1    95.7  20       563.
                -0.6063    36.8          23       625.
                -0.5241    27.5          28       765.
  22       565.  0.8379    70.2   101.0  21       582.
                 0.4118    17.0          24       641.
  23       574.  0.7480    56.0    96.8  23       625.
                -0.4924    24.2          28       765.
  24       584. -0.4889    23.9   102.5  21       582.
                 0.8205    67.3          24       641.
  25       628.  0.9703    94.1    99.6  22       617.
  26       651.  0.3946    15.6    99.2  25       665.
                 0.8278    68.5          32       856.
  27       670.  0.8615    74.2    99.4  25       665.
                -0.3285    10.8          32       856.
  28       674.  0.8583    73.7    99.5  26       683.
                -0.3416    11.7          27       759.
  29       715. -0.9203    84.7    99.9  29       783.
  30       759.  0.3317    11.0    99.7  26       683.
                 0.8753    76.6          27       759.
  31       765. -0.9402    88.4   100.7  31       826.
  32       802.  0.9176    84.2    99.9  35       949.
  33       815. -0.9476    89.8   100.9  30       806.
  34       847.  0.3651    13.3   101.0  28       765.
                 0.9448    89.3          34       905.
  35       883.  0.9622    92.6   101.2  33       893.
  36       937.  0.9455    89.4   100.5  36       974.
  37       942. -0.9847    97.0   101.3  37       998.
  38       952.  0.9485    90.0   100.9  39      1028.
  39       993.  0.9873    97.5   100.1  38      1007.
  40      1026.  0.9950    99.0    99.9  40      1040.
  41      1091. -0.7273    52.9    99.7  41      1099.
                 0.6194    38.4          42      1113.
  42      1100.  0.5342    28.5   100.4  41      1099.
                 0.7634    58.3          42      1113.
                 0.3210    10.3          43      1170.
  43      1156. -0.8730    76.2   100.0  44      1194.
                -0.3450    11.9          45      1204.
  44      1173. -0.4746    22.5   100.2  43      1170.
                 0.3569    12.7          44      1194.
                -0.4412    19.5          45      1204.
                -0.6043    36.5          47      1245.
  45      1173. -0.5913    35.0   100.0  43      1170.
                 0.6888    47.4          45      1204.
  46      1205. -0.9447    89.3   100.1  46      1224.
  47      1242. -0.4136    17.1   100.8  43      1170.
                -0.3507    12.3          45      1204.
                 0.5314    28.2          47      1245.
                 0.3232    10.4          51      1409.
  48      1314.  0.8210    67.4   100.2  48      1336.
                -0.3779    14.3          53      1445.
  49      1326. -0.3941    15.5    99.8  48      1336.
                 0.5806    33.7          49      1353.
                -0.3581    12.8          51      1409.
                -0.5777    33.4          53      1445.
  50      1348. -0.5849    34.2    99.9  49      1353.
                -0.5682    32.3          53      1445.
  51      1362.  0.9532    90.9   100.0  50      1373.
  52      1405.  0.6975    48.7    99.6  52      1425.
                 0.3552    12.6          55      1515.
                 0.3310    11.0          56      1531.
  53      1457.  0.8779    77.1   100.2  54      1477.
  54      1470.  0.4928    24.3   100.2  51      1409.
                -0.4307    18.5          52      1425.
                 0.6259    39.2          55      1515.
  55      1523.  0.4247    18.0   100.2  55      1515.
                -0.5474    30.0          56      1531.
                 0.5559    30.9          57      1577.
  56      1534. -0.5184    26.9   100.2  56      1531.
                -0.7661    58.7          57      1577.
  57      1618. -0.9200    84.6   100.1  58      1624.
  58      1653.  0.4782    22.9   101.2  51      1409.
                 0.4277    18.3          52      1425.
                -0.4410    19.4          56      1531.
  59      3148. -0.9504    90.3   100.0  59      3182.
  60      3152.  0.7817    61.1   100.0  60      3190.
                 0.6037    36.4          61      3199.
  61      3166.  0.4428    19.6   100.0  60      3190.
                -0.7002    49.0          61      3199.
                 0.4716    22.2          62      3207.
  62      3175.  0.6355    40.4   100.0  62      3207.
                -0.7157    51.2          63      3213.
  63      3192.  0.3937    15.5   100.0  60      3190.
                -0.5456    29.8          62      3207.
                -0.6564    43.1          63      3213.
  64      3214.  0.8194    67.1   100.0  64      3226.
                -0.5222    27.3          66      3239.
  65      3235. -0.9010    81.2   100.0  65      3238.
                -0.4068    16.6          66      3239.
  66      3272.  0.5729    32.8   100.0  64      3226.
                -0.3367    11.3          65      3238.
                 0.7470    55.8          66      3239.
 nber times 1st assigned=           1           0
 nber times 1st assigned=           2           0
 nber times 1st assigned=           3           0
 nber times 1st assigned=           4           0
 nber times 1st assigned=           5           0
 nber times 1st assigned=           6           0
 nber times 1st assigned=           7           0
 nber times 1st assigned=           8           0
 nber times 1st assigned=           9           0
 nber times 1st assigned=          10           0
 nber times 1st assigned=          11           0
 nber times 1st assigned=          12           0
 nber times 1st assigned=          13           0
 nber times 1st assigned=          14           0
 nber times 1st assigned=          15           0
 nber times 1st assigned=          16           0
 nber times 1st assigned=          17           0
 nber times 1st assigned=          18           0
 nber times 1st assigned=          19           0
 nber times 1st assigned=          20           0
 nber times 1st assigned=          21           0
 nber times 1st assigned=          22           0
 nber times 1st assigned=          23           0
 nber times 1st assigned=          24           0
 nber times 1st assigned=          25           0
 nber times 1st assigned=          26           0
 nber times 1st assigned=          27           0
 nber times 1st assigned=          28           0
 nber times 1st assigned=          29           0
 nber times 1st assigned=          30           0
 nber times 1st assigned=          31           0
 nber times 1st assigned=          32           0
 nber times 1st assigned=          33           0
 nber times 1st assigned=          34           0
 nber times 1st assigned=          35           0
 nber times 1st assigned=          36           0
 nber times 1st assigned=          37           0
 nber times 1st assigned=          38           0
 nber times 1st assigned=          39           0
 nber times 1st assigned=          40           0
 nber times 1st assigned=          41           0
 nber times 1st assigned=          42           0
 nber times 1st assigned=          43           0
 nber times 1st assigned=          44           0
 nber times 1st assigned=          45           0
 nber times 1st assigned=          46           0
 nber times 1st assigned=          47           0
 nber times 1st assigned=          48           0
 nber times 1st assigned=          49           0
 nber times 1st assigned=          50           0
 nber times 1st assigned=          51           0
 nber times 1st assigned=          52           0
 nber times 1st assigned=          53           0
 nber times 1st assigned=          54           0
 nber times 1st assigned=          55           0
 nber times 1st assigned=          56           0
 nber times 1st assigned=          57           0
 nber times 1st assigned=          58           0
 nber times 1st assigned=          59           0
 nber times 1st assigned=          60           0
 nber times 1st assigned=          61           0
 nber times 1st assigned=          62           0
 nber times 1st assigned=          63           0
 nber times 1st assigned=          64           0
 nber times 1st assigned=          65           0
 nber times 1st assigned=          66           0
 modes represented=   60.2016674667294     
 p1=
   -0.   -0.   -0.    0.    0.   -0.    0.    0.   26.   -0.    0.    0.   21.    6.   -0.   -0.    9.   -0.   13.   -0.
   -0.   -9.   -0.   -1.    0.   -0.   -0.   -3.   -0.    8.    0.    0.   -0.    0.    5.   -2.   -0.    0.    3.   -1.
    0.   -1.   -1.   -2.   -0.   -0.   -3.   -3.   -0.   -1.   -0.   -3.   -1.   -0.   -1.   -1.    1.    3.    0.   -0.
   -0.    0.    0.   -0.   -0.   -0.
 p2=
   -0.   -0.   -0.    0.   -0.    0.    0.   -0.   27.    0.   -0.  -20.    0.  -11.   -0.    6.   -0.  -14.    0.    0.
    8.    1.    0.    5.    0.   -2.   -7.   -0.   -0.   -0.    0.   -0.   -6.    0.   -0.    1.   -0.   -2.    0.    1.
    1.    1.   -1.   -1.   -2.   -0.    1.    1.    1.    0.   -0.    2.   -0.   -0.    2.    0.   -0.    0.   -0.    0.
   -0.    0.    0.    0.   -0.    0.

 Displacement: in terms of nc of 1 THEN of nc of 2

   1     freq=    -0. Q= -0.000 lam=    -0.0     freq=    -0. Q= -0.000 lam=    -0.0
   2     freq=    -0. Q= -0.000 lam=    -0.0     freq=    -0. Q= -0.000 lam=    -0.0
   3     freq=    -0. Q= -0.000 lam=    -0.0     freq=    -0. Q= -0.000 lam=    -0.0
   4     freq=     0. Q=  0.000 lam=     0.0     freq=     0. Q=  0.000 lam=     0.0
   5     freq=     0. Q=  0.000 lam=     0.0     freq=     0. Q=  0.000 lam=     0.0
   6     freq=     0. Q= -0.000 lam=     0.0     freq=     0. Q= -0.000 lam=     0.0
   7     freq=    30. Q=  0.002 lam=     0.0     freq=    24. Q=  0.000 lam=     0.0
   8     freq=    52. Q=  0.003 lam=     0.0     freq=    62. Q=  0.005 lam=     0.0
   9     freq=   108. Q=  1.074 lam=    62.1     freq=   117. Q=  1.176 lam=    80.7
  10     freq=   111. Q= -0.004 lam=     0.0     freq=   155. Q= -0.003 lam=     0.0
  11     freq=   132. Q=  0.002 lam=     0.0     freq=   203. Q=  0.008 lam=     0.0
  12     freq=   188. Q=  0.001 lam=     0.0     freq=   267. Q=  1.299 lam=   225.7
  13     freq=   262. Q=  1.376 lam=   248.3     freq=   279. Q=  0.010 lam=     0.0
  14     freq=   305. Q=  0.446 lam=    30.4     freq=   315. Q=  0.752 lam=    88.9
  15     freq=   344. Q= -0.001 lam=     0.0     freq=   387. Q= -0.001 lam=     0.0
  16     freq=   394. Q= -0.001 lam=     0.0     freq=   427. Q= -0.537 lam=    61.6
  17     freq=   416. Q=  0.717 lam=   106.9     freq=   434. Q=  0.000 lam=     0.0
  18     freq=   418. Q= -0.003 lam=     0.0     freq=   454. Q= -1.232 lam=   344.5
  19     freq=   468. Q=  1.114 lam=   290.3     freq=   462. Q=  0.001 lam=     0.0
  20     freq=   473. Q= -0.004 lam=     0.0     freq=   563. Q= -0.001 lam=     0.0
  21     freq=   502. Q= -0.000 lam=     0.0     freq=   582. Q= -0.820 lam=   195.7
  22     freq=   565. Q= -0.855 lam=   206.8     freq=   617. Q= -0.110 lam=     3.7
  23     freq=   574. Q= -0.004 lam=     0.0     freq=   625. Q= -0.001 lam=     0.0
  24     freq=   584. Q= -0.077 lam=     1.7     freq=   641. Q= -0.471 lam=    71.0
  25     freq=   628. Q=  0.021 lam=     0.1     freq=   665. Q=  0.000 lam=     0.0
  26     freq=   651. Q= -0.000 lam=     0.0     freq=   683. Q= -0.205 lam=    14.4
  27     freq=   670. Q= -0.000 lam=     0.0     freq=   759. Q= -0.829 lam=   260.9
  28     freq=   674. Q= -0.284 lam=    27.2     freq=   765. Q= -0.008 lam=     0.0
  29     freq=   715. Q= -0.000 lam=     0.0     freq=   783. Q= -0.000 lam=     0.0
  30     freq=   759. Q=  0.937 lam=   333.3     freq=   806. Q=  0.044 lam=     0.8
  31     freq=   765. Q=  0.002 lam=     0.0     freq=   826. Q=  0.000 lam=     0.0
  32     freq=   802. Q=  0.000 lam=     0.0     freq=   856. Q=  0.001 lam=     0.0
  33     freq=   815. Q= -0.003 lam=     0.0     freq=   893. Q= -0.682 lam=   207.5
  34     freq=   847. Q=  0.001 lam=     0.0     freq=   905. Q=  0.002 lam=     0.0
  35     freq=   883. Q=  0.556 lam=   136.7     freq=   949. Q=  0.000 lam=     0.0
  36     freq=   937. Q= -0.188 lam=    16.6     freq=   974. Q= -0.145 lam=    10.2
  37     freq=   942. Q= -0.001 lam=     0.0     freq=   998. Q= -0.000 lam=     0.0
  38     freq=   952. Q=  0.000 lam=     0.0     freq=  1007. Q=  0.259 lam=    33.8
  39     freq=   993. Q=  0.342 lam=    58.1     freq=  1028. Q=  0.000 lam=     0.0
  40     freq=  1026. Q= -0.116 lam=     7.0     freq=  1040. Q= -0.080 lam=     3.3
  41     freq=  1091. Q=  0.027 lam=     0.4     freq=  1099. Q=  0.129 lam=     9.2
  42     freq=  1100. Q= -0.102 lam=     5.8     freq=  1113. Q= -0.095 lam=     5.1
  43     freq=  1156. Q= -0.164 lam=    15.6     freq=  1170. Q= -0.204 lam=    24.5
  44     freq=  1173. Q= -0.218 lam=    27.9     freq=  1194. Q= -0.143 lam=    12.3
  45     freq=  1173. Q= -0.066 lam=     2.5     freq=  1204. Q= -0.311 lam=    58.3
  46     freq=  1205. Q= -0.023 lam=     0.3     freq=  1224. Q= -0.057 lam=     2.0
  47     freq=  1242. Q= -0.385 lam=    92.2     freq=  1245. Q= -0.206 lam=    26.4
  48     freq=  1314. Q= -0.367 lam=    88.7     freq=  1336. Q= -0.218 lam=    31.9
  49     freq=  1326. Q= -0.031 lam=     0.6     freq=  1353. Q= -0.182 lam=    22.5
  50     freq=  1348. Q= -0.136 lam=    12.4     freq=  1373. Q= -0.033 lam=     0.7
  51     freq=  1362. Q= -0.060 lam=     2.5     freq=  1409. Q= -0.060 lam=     2.6
  52     freq=  1405. Q= -0.413 lam=   119.9     freq=  1425. Q= -0.294 lam=    61.5
  53     freq=  1457. Q= -0.109 lam=     8.7     freq=  1445. Q= -0.039 lam=     1.1
  54     freq=  1470. Q= -0.018 lam=     0.2     freq=  1477. Q= -0.012 lam=     0.1
  55     freq=  1523. Q= -0.164 lam=    20.4     freq=  1515. Q= -0.289 lam=    63.2
  56     freq=  1534. Q= -0.098 lam=     7.3     freq=  1531. Q= -0.074 lam=     4.2
  57     freq=  1618. Q=  0.200 lam=    32.3     freq=  1577. Q=  0.018 lam=     0.3
  58     freq=  1653. Q=  0.444 lam=   162.7     freq=  1624. Q=  0.064 lam=     3.3
  59     freq=  3148. Q=  0.006 lam=     0.1     freq=  3182. Q=  0.000 lam=     0.0
  60     freq=  3152. Q= -0.016 lam=     0.4     freq=  3190. Q= -0.027 lam=     1.1
  61     freq=  3166. Q= -0.023 lam=     0.8     freq=  3199. Q= -0.011 lam=     0.2
  62     freq=  3175. Q=  0.014 lam=     0.3     freq=  3207. Q=  0.007 lam=     0.1
  63     freq=  3192. Q=  0.009 lam=     0.1     freq=  3213. Q=  0.028 lam=     1.2
  64     freq=  3214. Q= -0.011 lam=     0.2     freq=  3226. Q= -0.046 lam=     3.4
  65     freq=  3235. Q= -0.024 lam=     0.9     freq=  3238. Q= -0.038 lam=     2.4
  66     freq=  3272. Q= -0.055 lam=     4.9     freq=  3239. Q= -0.025 lam=     1.0

 total reorg energy (cm**-1, kcal/mol)=     2134.     1941.      6.10      5.55
 Nber of molecules processed=           2
