 Enter ifcurve (0=recti, 1=orth curvi, 2=apprx curvi, -1 = skip
 And atom ordering flag, 0= never changes, 1= use the first order thenceforth,
  2= deduce it (does read on fail), 3= always read it
 Reading file: 
 ./PDI_1_C0S1.log                                                               
                                          
  Entering Gaussian System, Link 0=g16                                          
  
 Gaussian format, type: g94, g98, g03= F F F
  #P Geom=AllCheck Guess=TCheck SCRF=Check GenChk RB3LYP TD(FC,Read)/6-3    
 energy type= TD      
 Original G94 input coords:
  6  1.237697 -1.038242 -0.124981
  6  2.347629 -0.001674  0.077760
  6  3.585465 -0.562423  0.785461
  7  2.706074  0.683734 -1.205017
  6  3.262495 -0.065976 -2.248426
  8  3.462516 -1.266725 -2.135971
  6  3.600090  0.652454 -3.495815
  6  4.158198 -0.063100 -4.562155
  6  4.484596  0.577871 -5.739766
  6  4.269912  1.973094 -5.915173
  6  4.605965  2.655748 -7.138991
  6  5.175409  1.978453 -8.252285
  6  5.492577  2.643314 -9.418788
  6  5.259076  4.018441 -9.538320
  6  5.612443  4.693777-10.803927
  8  6.099592  4.100212-11.748206
  7  5.355098  6.077193-10.867553
  6  5.691825  6.762886-12.098290
  6  6.940629  7.359095-12.233819
  6  7.262174  8.017525-13.417445
  6  6.337524  8.076504-14.457887
  6  5.088677  7.476032-14.313678
  6  4.762798  6.817340-13.131389
  6  4.795538  6.846001 -9.827812
  8  4.603928  8.040371 -9.962047
  6  4.461383  6.122555 -8.584110
  6  3.902742  6.835879 -7.516890
  6  3.577374  6.193948 -6.339806
  6  3.793693  4.799179 -6.166276
  6  3.458284  4.116483 -4.942360
  6  2.889480  4.791195 -3.826833
  6  2.572899  4.124670 -2.660761
  6  2.806295  2.748767 -2.543542
  6  2.455229  2.066778 -1.281020
  8  1.967695  2.680636 -0.344198
  6  3.368973  2.038005 -3.624131
  6  3.701715  2.714683 -4.836904
  6  4.362422  4.058201 -7.245631
  6  4.695250  4.735052 -8.459470
  1  0.909008 -1.402479  0.852210
  1  1.581733 -1.886718 -0.715010
  1  0.373625 -0.587655 -0.620132
  1  1.948194  0.807568  0.684992
  1  4.024983 -1.391325  0.232162
  1  3.296204 -0.919038  1.777820
  1  4.340661  0.216512  0.918761
  1  4.324212 -1.125058 -4.435202
  1  4.913438 -0.006208 -6.541622
  1  5.369495  0.916822 -8.195553
  1  5.925946  2.122563-10.263020
  1  7.651260  7.306758-11.417881
  1  8.234637  8.483751-13.525788
  1  6.589625  8.589289-15.379084
  1  4.366788  7.519545-15.121001
  1  3.795057  6.346513-13.007724
  1  3.735450  7.897871 -7.643066
  1  3.147984  6.776574 -5.537212
  1  2.695307  5.852985 -3.881163
  1  2.140265  4.645081 -1.816161
 nber atoms=          59
  Total Energy, E(TD-HF/TD-DFT) =  -1680.41397805                               
  
          32          49 "  -1680.41397805"
After scan for Atom:   Atom  AN      X      Y      Z        X      Y      Z        X      Y      Z   
After scan for Atom:   Atom  AN      X      Y      Z        X      Y      Z        X      Y      Z   
After scan for Atom:   Atom  AN      X      Y      Z        X      Y      Z        X      Y      Z   
After scan for Atom:   Atom  AN      X      Y      Z        X      Y      Z        X      Y      Z   
After scan for Atom:   Atom  AN      X      Y      Z        X      Y      Z        X      Y      Z   
After scan for Atom:   Atom  AN      X      Y      Z        X      Y      Z        X      Y      Z   
After scan for Atom:   Atom  AN      X      Y      Z        X      Y      Z        X      Y      Z   
After scan for Atom:   Atom  AN      X      Y      Z        X      Y      Z        X      Y      Z   
After scan for Atom:   Atom  AN      X      Y      Z        X      Y      Z        X      Y      Z   
After scan for Atom:   Atom  AN      X      Y      Z        X      Y      Z        X      Y      Z   
After scan for Atom:   Atom  AN      X      Y      Z        X      Y      Z        X      Y      Z   
After scan for Atom:   Atom  AN      X      Y      Z        X      Y      Z        X      Y      Z   
After scan for Atom:   Atom  AN      X      Y      Z        X      Y      Z        X      Y      Z   
After scan for Atom:   Atom  AN      X      Y      Z        X      Y      Z        X      Y      Z   
After scan for Atom:   Atom  AN      X      Y      Z        X      Y      Z        X      Y      Z   
After scan for Atom:   Atom  AN      X      Y      Z        X      Y      Z        X      Y      Z   
After scan for Atom:   Atom  AN      X      Y      Z        X      Y      Z        X      Y      Z   
After scan for Atom:   Atom  AN      X      Y      Z        X      Y      Z        X      Y      Z   
After scan for Atom:   Atom  AN      X      Y      Z        X      Y      Z        X      Y      Z   
After scan for Atom:   Atom  AN      X      Y      Z        X      Y      Z        X      Y      Z   
After scan for Atom:   Atom  AN      X      Y      Z        X      Y      Z        X      Y      Z   
After scan for Atom:   Atom  AN      X      Y      Z        X      Y      Z        X      Y      Z   
After scan for Atom:   Atom  AN      X      Y      Z        X      Y      Z        X      Y      Z   
After scan for Atom:   Atom  AN      X      Y      Z        X      Y      Z        X      Y      Z   
After scan for Atom:   Atom  AN      X      Y      Z        X      Y      Z        X      Y      Z   
After scan for Atom:   Atom  AN      X      Y      Z        X      Y      Z        X      Y      Z   
After scan for Atom:   Atom  AN      X      Y      Z        X      Y      Z        X      Y      Z   
After scan for Atom:   Atom  AN      X      Y      Z        X      Y      Z        X      Y      Z   
After scan for Atom:   Atom  AN      X      Y      Z        X      Y      Z        X      Y      Z   
After scan for Atom:   Atom  AN      X      Y      Z        X      Y      Z        X      Y      Z   
After scan for Atom:   Atom  AN      X      Y      Z        X      Y      Z        X      Y      Z   
After scan for Atom:   Atom  AN      X      Y      Z        X      Y      Z        X      Y      Z   
After scan for Atom:   Atom  AN      X      Y      Z        X      Y      Z        X      Y      Z   
After scan for Atom:   Atom  AN      X      Y      Z        X      Y      Z        X      Y      Z   
After scan for Atom:   Atom  AN      X      Y      Z        X      Y      Z        X      Y      Z   
After scan for Atom:   Atom  AN      X      Y      Z        X      Y      Z        X      Y      Z   
After scan for Atom:   Atom  AN      X      Y      Z        X      Y      Z        X      Y      Z   
After scan for Atom:   Atom  AN      X      Y      Z        X      Y      Z        X      Y      Z   
After scan for Atom:   Atom  AN      X      Y      Z        X      Y      Z        X      Y      Z   
After scan for Atom:   Atom  AN      X      Y      Z        X      Y      Z        X      Y      Z   
After scan for Atom:   Atom  AN      X      Y      Z        X      Y      Z        X      Y      Z   
After scan for Atom:   Atom  AN      X      Y      Z        X      Y      Z        X      Y      Z   
After scan for Atom:   Atom  AN      X      Y      Z        X      Y      Z        X      Y      Z   
After scan for Atom:   Atom  AN      X      Y      Z        X      Y      Z        X      Y      Z   
After scan for Atom:   Atom  AN      X      Y      Z        X      Y      Z        X      Y      Z   
After scan for Atom:   Atom  AN      X      Y      Z        X      Y      Z        X      Y      Z   
After scan for Atom:   Atom  AN      X      Y      Z        X      Y      Z        X      Y      Z   
After scan for Atom:   Atom  AN      X      Y      Z        X      Y      Z        X      Y      Z   
After scan for Atom:   Atom  AN      X      Y      Z        X      Y      Z        X      Y      Z   
After scan for Atom:   Atom  AN      X      Y      Z        X      Y      Z        X      Y      Z   
After scan for Atom:   Atom  AN      X      Y      Z        X      Y      Z        X      Y      Z   
After scan for Atom:   Atom  AN      X      Y      Z        X      Y      Z        X      Y      Z   
After scan for Atom:   Atom  AN      X      Y      Z        X      Y      Z        X      Y      Z   
After scan for Atom:   Atom  AN      X      Y      Z        X      Y      Z        X      Y      Z   
After scan for Atom:   Atom  AN      X      Y      Z        X      Y      Z        X      Y      Z   
After scan for Atom:   Atom  AN      X      Y      Z        X      Y      Z        X      Y      Z   
After scan for Atom:   Atom  AN      X      Y      Z        X      Y      Z        X      Y      Z   
 g94    frequencies=
     0.0    0.0    0.0    0.0    0.0    0.0    7.4   16.4   29.1   35.6
    53.4   55.6   62.5   77.2   90.1  101.8  113.0  130.3  163.2  167.8
   183.7  196.4  198.1  213.3  234.5  235.0  249.0  256.8  262.4  292.8
   302.5  305.6  323.9  352.3  389.8  392.3  417.3  419.1  431.7  437.2
   439.1  439.6  447.7  463.1  478.1  486.5  500.2  502.0  506.4  515.1
   520.1  545.4  572.9  574.0  578.1  605.1  615.4  631.4  639.0  645.4
   653.4  677.1  705.3  706.6  706.9  712.2  725.3  753.2  760.0  760.6
   761.8  771.8  799.5  812.5  813.4  814.5  821.5  828.9  832.5  835.9
   846.4  858.1  899.7  918.6  928.3  941.9  945.2  956.6  974.3  975.6
   976.1  977.8  987.5  988.2 1002.1 1020.8 1047.5 1061.1 1083.5 1094.8
  1099.8 1135.4 1155.5 1157.1 1164.3 1165.1 1177.8 1182.8 1185.5 1195.3
  1195.8 1205.6 1224.0 1232.6 1242.2 1252.0 1260.6 1299.3 1316.5 1318.5
  1326.2 1348.2 1350.2 1358.9 1365.8 1380.9 1382.4 1391.6 1400.0 1403.6
  1416.0 1430.5 1439.6 1443.9 1460.9 1466.2 1484.8 1485.0 1491.9 1497.5
  1505.2 1510.7 1522.6 1527.4 1546.5 1554.7 1570.2 1580.6 1598.9 1599.3
  1622.4 1635.5 1642.6 1685.2 1706.6 1724.5 1742.4 3034.1 3038.2 3092.0
  3095.2 3112.3 3132.7 3142.9 3165.5 3175.3 3184.1 3192.2 3196.6 3197.6
  3197.9 3204.4 3204.5 3212.4 3212.5 3223.7 3224.0
 g94    symmetries=
                                                 A      A      A      A
       A      A      A      A      A      A      A      A      A      A
       A      A      A      A      A      A      A      A      A      A
       A      A      A      A      A      A      A      A      A      A
       A      A      A      A      A      A      A      A      A      A
       A      A      A      A      A      A      A      A      A      A
       A      A      A      A      A      A      A      A      A      A
       A      A      A      A      A      A      A      A      A      A
       A      A      A      A      A      A      A      A      A      A
       A      A      A      A      A      A      A      A      A      A
       A      A      A      A      A      A      A      A      A      A
       A      A      A      A      A      A      A      A      A      A
       A      A      A      A      A      A      A      A      A      A
       A      A      A      A      A      A      A      A      A      A
       A      A      A      A      A      A      A      A      A      A
       A      A      A      A      A      A      A      A      A      A
       A      A      A      A      A      A      A      A      A      A
       A      A      A      A      A      A      A
 atomic masses:
 12.0000 12.0000 12.0000 14.0031 12.0000 15.9949 12.0000 12.0000 12.0000 12.0000
 12.0000 12.0000 12.0000 12.0000 12.0000 15.9949 14.0031 12.0000 12.0000 12.0000
 12.0000 12.0000 12.0000 12.0000 15.9949 12.0000 12.0000 12.0000 12.0000 12.0000
 12.0000 12.0000 12.0000 12.0000 15.9949 12.0000 12.0000 12.0000 12.0000  1.0078
  1.0078  1.0078  1.0078  1.0078  1.0078  1.0078  1.0078  1.0078  1.0078  1.0078
  1.0078  1.0078  1.0078  1.0078  1.0078  1.0078  1.0078  1.0078  1.0078
 looking for force constants in 
 ./PDI_1_C0S1.fchk                                                              
  
 Cartesian Force Constants                  R   N=       15753                  
  
 n3=         177       15753
 g94-fc frequencies=
    -4.0   -0.7   -0.0   -0.0    0.0    1.7    7.5   16.4   29.1   35.6
    53.4   55.6   62.5   77.2   90.1  101.8  113.0  130.3  163.2  167.8
   183.7  196.4  198.1  213.4  234.5  235.0  249.0  256.8  262.4  292.8
   302.5  305.6  323.9  352.3  389.8  392.3  417.3  419.1  431.7  437.2
   439.1  439.6  447.8  463.1  478.1  486.5  500.2  502.0  506.4  515.1
   520.1  545.4  572.9  574.0  578.1  605.1  615.4  631.4  639.0  645.4
   653.4  677.1  705.3  706.6  706.9  712.2  725.3  753.2  760.0  760.6
   761.9  771.8  799.5  812.5  813.4  814.5  821.5  828.9  832.5  835.9
   846.4  858.2  899.8  918.7  928.4  941.9  945.2  956.6  974.3  975.7
   976.1  977.8  987.6  988.2 1002.2 1020.8 1047.5 1061.1 1083.6 1094.8
  1099.8 1135.4 1155.5 1157.2 1164.3 1165.1 1177.8 1182.8 1185.6 1195.3
  1195.8 1205.6 1224.0 1232.6 1242.2 1252.1 1260.6 1299.4 1316.5 1318.6
  1326.3 1348.2 1350.3 1358.9 1365.9 1380.9 1382.4 1391.6 1400.1 1403.6
  1416.1 1430.6 1439.7 1443.9 1461.0 1466.2 1484.8 1485.0 1492.0 1497.5
  1505.3 1510.7 1522.6 1527.5 1546.5 1554.7 1570.2 1580.6 1598.9 1599.3
  1622.5 1635.6 1642.6 1685.2 1706.7 1724.5 1742.5 3034.2 3038.3 3092.1
  3095.3 3112.4 3132.7 3143.0 3165.5 3175.3 3184.1 3192.2 3196.7 3197.6
  3198.0 3204.4 3204.6 3212.5 3212.6 3223.7 3224.0
 at 99999: n3=         177
 symm operator            1 :  F  nop=           0
 symm operator            2 :  F  nop=           0
 symm operator            3 :  F  nop=           0
 symm operator            4 :  F  nop=           0
 symm operator            5 :  F  nop=           0
 symm operator            6 :  F  nop=           0
 symm operator            7 :  F  nop=           0
 The point group of the molecule is  C1
 Symmetry rotation matrix:
   1.00000   0.00000   0.00000
   0.00000   1.00000   0.00000
   0.00000   0.00000   1.00000

 Projecting out zero-frequency components
 generating redundant internal coords
         300        3600          59
 search for int coords
   1 str   2   1   1.532
   2 str   3   2   1.532
   3 str   4   2   1.498
   4 str   5   4   1.400
   5 str   6   5   1.222
   6 str   7   5   1.479
   7 str   8   7   1.400
   8 str   9   8   1.380
   9 str  10   9   1.422
  10 str  11  10   1.441
  11 str  12  11   1.422
  12 str  13  12   1.380
  13 str  14  13   1.400
  14 str  15  14   1.477
  15 str  16  15   1.217
  16 str  17  15   1.409
  17 str  18  17   1.449
  18 str  19  18   1.390
  19 str  20  19   1.392
  20 str  21  20   1.393
  21 str  22  21   1.393
  22 str  23  18   1.390
  23 str  23  22   1.392
  24 str  24  17   1.409
  25 str  25  24   1.217
  26 str  26  24   1.477
  27 str  27  26   1.400
  28 str  28  27   1.380
  29 str  29  28   1.422
  30 str  30  29   1.441
  31 str  31  30   1.422
  32 str  32  31   1.380
  33 str  33  32   1.400
  34 str  34   4   1.408
  35 str  34  33   1.477
  36 str  35  34   1.222
  37 str  36   7   1.411
  38 str  36  33   1.410
  39 str  37  10   1.427
  40 str  37  30   1.427
  41 str  37  36   1.428
  42 str  38  11   1.427
  43 str  38  29   1.427
  44 str  39  14   1.413
  45 str  39  26   1.413
  46 str  39  38   1.429
  47 str  40   1   1.093
  48 str  41   1   1.089
  49 str  42   1   1.093
  50 str  43   2   1.088
  51 str  44   3   1.089
  52 str  45   3   1.093
  53 str  46   3   1.093
  54 str  47   8   1.082
  55 str  48   9   1.081
  56 str  49  12   1.081
  57 str  50  13   1.082
  58 str  51  19   1.083
  59 str  52  20   1.084
  60 str  53  21   1.084
  61 str  54  22   1.084
  62 str  55  23   1.083
  63 str  56  27   1.082
  64 str  57  28   1.081
  65 str  58  31   1.081
  66 str  59  32   1.082
 nber stretches=          66
  67 ben   1   2   3
  68 prop tor   1   2   3  44
  69 prop tor   1   2   3  45
  70 prop tor   1   2   3  46
  71 ben   1   2   4
  72 prop tor   1   2   4   5
  73 prop tor   1   2   4  34
  74 ben   1   2  43
  75 ben   2   1  40
  76 ben   2   1  41
  77 ben   2   1  42
  78 ben   2   3  44
  79 ben   2   3  45
  80 ben   2   3  46
  81 ben   2   4   5
  82 prop tor   2   4   5   6
  83 prop tor   2   4   5   7
  84 ben   2   4  34
  85 prop tor   2   4  34  33
  86 prop tor   2   4  34  35
  87 ben   3   2   4
  88 prop tor   3   2   4   5
  89 prop tor   3   2   4  34
  90 ben   3   2  43
  91 prop tor   4   2   3  44
  92 prop tor   4   2   3  45
  93 prop tor   4   2   3  46
  94 ben   4   2  43
  95 ben   4   5   6
  96 ben   4   5   7
  97 prop tor   4   5   7   8
  98 prop tor   4   5   7  36
  99 ben   4  34  33
 100 ben   4  34  35
 101 ben   5   4  34
 102 prop tor   5   4  34  33
 103 prop tor   5   4  34  35
 104 ben   5   7   8
 105 prop tor   5   7   8   9
 106 prop tor   5   7   8  47
 107 ben   5   7  36
 108 prop tor   5   7  36  33
 109 prop tor   5   7  36  37
 110 ben   6   5   7
 111 prop tor   6   5   7   8
 112 prop tor   6   5   7  36
 113 ben   7   8   9
 114 prop tor   7   8   9  10
 115 prop tor   7   8   9  48
 116 ben   7   8  47
 117 ben   7  36  33
 118 ben   7  36  37
 119 prop tor   7  36  37  10
 120 prop tor   7  36  37  30
 121 ben   8   7  36
 122 prop tor   8   7  36  33
 123 prop tor   8   7  36  37
 124 ben   8   9  10
 125 prop tor   8   9  10  11
 126 prop tor   8   9  10  37
 127 ben   8   9  48
 128 ben   9   8  47
 129 ben   9  10  11
 130 prop tor   9  10  11  12
 131 prop tor   9  10  11  38
 132 ben   9  10  37
 133 prop tor   9  10  37  30
 134 prop tor   9  10  37  36
 135 ben  10   9  48
 136 ben  10  11  12
 137 prop tor  10  11  12  13
 138 prop tor  10  11  12  49
 139 ben  10  11  38
 140 prop tor  10  11  38  29
 141 prop tor  10  11  38  39
 142 ben  10  37  30
 143 ben  10  37  36
 144 ben  11  10  37
 145 prop tor  11  10  37  30
 146 prop tor  11  10  37  36
 147 ben  11  12  13
 148 prop tor  11  12  13  14
 149 prop tor  11  12  13  50
 150 ben  11  12  49
 151 ben  11  38  29
 152 ben  11  38  39
 153 prop tor  11  38  39  14
 154 prop tor  11  38  39  26
 155 ben  12  11  38
 156 prop tor  12  11  38  29
 157 prop tor  12  11  38  39
 158 ben  12  13  14
 159 prop tor  12  13  14  15
 160 prop tor  12  13  14  39
 161 ben  12  13  50
 162 ben  13  12  49
 163 ben  13  14  15
 164 prop tor  13  14  15  16
 165 prop tor  13  14  15  17
 166 ben  13  14  39
 167 prop tor  13  14  39  26
 168 prop tor  13  14  39  38
 169 ben  14  13  50
 170 ben  14  15  16
 171 ben  14  15  17
 172 prop tor  14  15  17  18
 173 prop tor  14  15  17  24
 174 ben  14  39  26
 175 ben  14  39  38
 176 ben  15  14  39
 177 prop tor  15  14  39  26
 178 prop tor  15  14  39  38
 179 ben  15  17  18
 180 prop tor  15  17  18  19
 181 prop tor  15  17  18  23
 182 ben  15  17  24
 183 prop tor  15  17  24  25
 184 prop tor  15  17  24  26
 185 ben  16  15  17
 186 prop tor  16  15  17  18
 187 prop tor  16  15  17  24
 188 ben  17  18  19
 189 prop tor  17  18  19  20
 190 prop tor  17  18  19  51
 191 ben  17  18  23
 192 prop tor  17  18  23  22
 193 prop tor  17  18  23  55
 194 ben  17  24  25
 195 ben  17  24  26
 196 prop tor  17  24  26  27
 197 prop tor  17  24  26  39
 198 ben  18  17  24
 199 prop tor  18  17  24  25
 200 prop tor  18  17  24  26
 201 ben  18  19  20
 202 prop tor  18  19  20  21
 203 prop tor  18  19  20  52
 204 ben  18  19  51
 205 ben  18  23  22
 206 ben  18  23  55
 207 ben  19  18  23
 208 prop tor  19  18  23  22
 209 prop tor  19  18  23  55
 210 ben  19  20  21
 211 prop tor  19  20  21  22
 212 prop tor  19  20  21  53
 213 ben  19  20  52
 214 ben  20  19  51
 215 ben  20  21  22
 216 prop tor  20  21  22  23
 217 prop tor  20  21  22  54
 218 ben  20  21  53
 219 ben  21  20  52
 220 ben  21  22  23
 221 prop tor  21  22  23  18
 222 prop tor  21  22  23  55
 223 ben  21  22  54
 224 ben  22  21  53
 225 ben  22  23  55
 226 prop tor  23  18  19  20
 227 prop tor  23  18  19  51
 228 ben  23  22  54
 229 prop tor  24  17  18  19
 230 prop tor  24  17  18  23
 231 ben  24  26  27
 232 prop tor  24  26  27  28
 233 prop tor  24  26  27  56
 234 ben  24  26  39
 235 prop tor  24  26  39  14
 236 prop tor  24  26  39  38
 237 ben  25  24  26
 238 prop tor  25  24  26  27
 239 prop tor  25  24  26  39
 240 ben  26  27  28
 241 prop tor  26  27  28  29
 242 prop tor  26  27  28  57
 243 ben  26  27  56
 244 ben  26  39  38
 245 ben  27  26  39
 246 prop tor  27  26  39  14
 247 prop tor  27  26  39  38
 248 ben  27  28  29
 249 prop tor  27  28  29  30
 250 prop tor  27  28  29  38
 251 ben  27  28  57
 252 ben  28  27  56
 253 ben  28  29  30
 254 prop tor  28  29  30  31
 255 prop tor  28  29  30  37
 256 ben  28  29  38
 257 prop tor  28  29  38  11
 258 prop tor  28  29  38  39
 259 ben  29  28  57
 260 ben  29  30  31
 261 prop tor  29  30  31  32
 262 prop tor  29  30  31  58
 263 ben  29  30  37
 264 prop tor  29  30  37  10
 265 prop tor  29  30  37  36
 266 ben  29  38  39
 267 prop tor  29  38  39  14
 268 prop tor  29  38  39  26
 269 ben  30  29  38
 270 prop tor  30  29  38  11
 271 prop tor  30  29  38  39
 272 ben  30  31  32
 273 prop tor  30  31  32  33
 274 prop tor  30  31  32  59
 275 ben  30  31  58
 276 ben  30  37  36
 277 ben  31  30  37
 278 prop tor  31  30  37  10
 279 prop tor  31  30  37  36
 280 ben  31  32  33
 281 prop tor  31  32  33  34
 282 prop tor  31  32  33  36
 283 ben  31  32  59
 284 ben  32  31  58
 285 ben  32  33  34
 286 prop tor  32  33  34   4
 287 prop tor  32  33  34  35
 288 ben  32  33  36
 289 prop tor  32  33  36   7
 290 prop tor  32  33  36  37
 291 ben  33  32  59
 292 ben  33  34  35
 293 ben  33  36  37
 294 prop tor  33  36  37  10
 295 prop tor  33  36  37  30
 296 prop tor  34   4   5   6
 297 prop tor  34   4   5   7
 298 ben  34  33  36
 299 prop tor  34  33  36   7
 300 prop tor  34  33  36  37
 301 prop tor  36   7   8   9
 302 prop tor  36   7   8  47
 303 prop tor  36  33  34   4
 304 prop tor  36  33  34  35
 305 prop tor  37  10  11  12
 306 prop tor  37  10  11  38
 307 prop tor  37  30  31  32
 308 prop tor  37  30  31  58
 309 prop tor  38  11  12  13
 310 prop tor  38  11  12  49
 311 prop tor  38  29  30  31
 312 prop tor  38  29  30  37
 313 prop tor  39  14  15  16
 314 prop tor  39  14  15  17
 315 prop tor  39  26  27  28
 316 prop tor  39  26  27  56
 317 prop tor  40   1   2   3
 318 prop tor  40   1   2   4
 319 prop tor  40   1   2  43
 320 ben  40   1  41
 321 ben  40   1  42
 322 prop tor  41   1   2   3
 323 prop tor  41   1   2   4
 324 prop tor  41   1   2  43
 325 ben  41   1  42
 326 prop tor  42   1   2   3
 327 prop tor  42   1   2   4
 328 prop tor  42   1   2  43
 329 prop tor  43   2   3  44
 330 prop tor  43   2   3  45
 331 prop tor  43   2   3  46
 332 prop tor  43   2   4   5
 333 prop tor  43   2   4  34
 334 ben  44   3  45
 335 ben  44   3  46
 336 ben  45   3  46
 337 prop tor  47   8   9  10
 338 prop tor  47   8   9  48
 339 prop tor  48   9  10  11
 340 prop tor  48   9  10  37
 341 prop tor  49  12  13  14
 342 prop tor  49  12  13  50
 343 prop tor  50  13  14  15
 344 prop tor  50  13  14  39
 345 prop tor  51  19  20  21
 346 prop tor  51  19  20  52
 347 prop tor  52  20  21  22
 348 prop tor  52  20  21  53
 349 prop tor  53  21  22  23
 350 prop tor  53  21  22  54
 351 prop tor  54  22  23  18
 352 prop tor  54  22  23  55
 353 prop tor  56  27  28  29
 354 prop tor  56  27  28  57
 355 prop tor  57  28  29  30
 356 prop tor  57  28  29  38
 357 prop tor  58  31  32  33
 358 prop tor  58  31  32  59
 359 prop tor  59  32  33  34
 360 prop tor  59  32  33  36
 nber bend=             114
 nber lin bend=           0
 nber prop tor=         180
 nber impr tor=           0
 nber tot redund int=         360
 Eigenvalues of G in red int coords
    Gval -0.00000000 -0.00000000 -0.00000000 -0.00000000 -0.00000000 -0.00000000 -0.00000000 -0.00000000
    Gval -0.00000000 -0.00000000 -0.00000000 -0.00000000 -0.00000000 -0.00000000 -0.00000000 -0.00000000
    Gval -0.00000000 -0.00000000 -0.00000000 -0.00000000 -0.00000000 -0.00000000 -0.00000000 -0.00000000
    Gval -0.00000000 -0.00000000 -0.00000000 -0.00000000 -0.00000000 -0.00000000 -0.00000000 -0.00000000
    Gval -0.00000000 -0.00000000 -0.00000000 -0.00000000 -0.00000000 -0.00000000 -0.00000000 -0.00000000
    Gval -0.00000000 -0.00000000 -0.00000000 -0.00000000 -0.00000000 -0.00000000 -0.00000000 -0.00000000
    Gval -0.00000000 -0.00000000 -0.00000000 -0.00000000 -0.00000000 -0.00000000 -0.00000000 -0.00000000
    Gval -0.00000000 -0.00000000 -0.00000000 -0.00000000 -0.00000000 -0.00000000 -0.00000000 -0.00000000
    Gval -0.00000000 -0.00000000 -0.00000000 -0.00000000 -0.00000000 -0.00000000 -0.00000000 -0.00000000
    Gval -0.00000000 -0.00000000 -0.00000000 -0.00000000 -0.00000000 -0.00000000 -0.00000000 -0.00000000
    Gval -0.00000000 -0.00000000 -0.00000000 -0.00000000 -0.00000000 -0.00000000 -0.00000000 -0.00000000
    Gval -0.00000000 -0.00000000 -0.00000000 -0.00000000 -0.00000000 -0.00000000 -0.00000000  0.00000000
    Gval  0.00000000  0.00000000  0.00000000  0.00000000  0.00000000  0.00000000  0.00000000  0.00000000
    Gval  0.00000000  0.00000000  0.00000000  0.00000000  0.00000000  0.00000000  0.00000000  0.00000000
    Gval  0.00000000  0.00000000  0.00000000  0.00000000  0.00000000  0.00000000  0.00000000  0.00000000
    Gval  0.00000000  0.00000000  0.00000000  0.00000000  0.00000000  0.00000000  0.00000000  0.00000000
    Gval  0.00000000  0.00000000  0.00000000  0.00000000  0.00000000  0.00000000  0.00000000  0.00000000
    Gval  0.00000000  0.00000000  0.00000000  0.00000000  0.00000000  0.00000000  0.00000000  0.00000000
    Gval  0.00000000  0.00000000  0.00000000  0.00000000  0.00000000  0.00000000  0.00000000  0.00000000
    Gval  0.00000000  0.00000000  0.00000000  0.00000000  0.00000000  0.00000000  0.00000000  0.00000000
    Gval  0.00000000  0.00000000  0.00000000  0.00000000  0.00000000  0.00000000  0.00000000  0.00000000
    Gval  0.00000000  0.00000000  0.00000000  0.00000000  0.00000000  0.00000000  0.00000000  0.00000000
    Gval  0.00000000  0.00000000  0.00000000  0.00000000  0.00000000  0.00000000  0.00000000  0.00000000
    Gval  0.00000000  0.00000000  0.00000000  0.00000000  0.00000000  0.00000068  0.00000124  0.00000200
    Gval  0.00000271  0.00000494  0.00000551  0.00000654  0.00000930  0.00000970  0.00001118  0.00001362
    Gval  0.00001558  0.00001644  0.00001718  0.00001782  0.00001835  0.00002159  0.00002382  0.00002402
    Gval  0.00002436  0.00002529  0.00002543  0.00002991  0.00003507  0.00003864  0.00003994  0.00004310
    Gval  0.00004455  0.00004884  0.00005178  0.00005251  0.00005388  0.00005583  0.00005975  0.00006003
    Gval  0.00006325  0.00006823  0.00007078  0.00007428  0.00007964  0.00008138  0.00008243  0.00008433
    Gval  0.00008688  0.00008734  0.00009308  0.00009498  0.00009876  0.00011212  0.00011722  0.00011751
    Gval  0.00012247  0.00013511  0.00013578  0.00013727  0.00014031  0.00015199  0.00015635  0.00015895
    Gval  0.00016025  0.00018132  0.00018653  0.00019154  0.00020252  0.00022196  0.00022867  0.00023009
    Gval  0.00026537  0.00027053  0.00028051  0.00028557  0.00028976  0.00029216  0.00031282  0.00034099
    Gval  0.00035754  0.00036967  0.00038095  0.00038188  0.00039131  0.00039178  0.00039964  0.00042265
    Gval  0.00042878  0.00043268  0.00043648  0.00044121  0.00044205  0.00046187  0.00046636  0.00046873
    Gval  0.00048241  0.00049503  0.00051564  0.00053383  0.00053717  0.00054421  0.00055407  0.00055595
    Gval  0.00055601  0.00057547  0.00059306  0.00059423  0.00059849  0.00059924  0.00059957  0.00059985
    Gval  0.00060219  0.00060471  0.00062334  0.00062707  0.00064072  0.00064423  0.00064498  0.00064681
    Gval  0.00066117  0.00067045  0.00069393  0.00069769  0.00079414  0.00079748  0.00081325  0.00093257
    Gval  0.00098893  0.00103968  0.00109319  0.00109412  0.00109481  0.00109531  0.00111152  0.00113895
    Gval  0.00114299  0.00116537  0.00116549  0.00116584  0.00116606  0.00117108  0.00117166  0.00117283
    Gval  0.00117349  0.00120692  0.00126092  0.00129523  0.00137483  0.00144365  0.00148174  0.00156495
    Gval  0.00171512  0.00177896  0.00179092  0.00191844  0.00227995  0.00233890  0.00235400  0.00252122
    Gval  0.00252551  0.00255987  0.00278927  0.00292192  0.00302349  0.00304209  0.00308132  0.00309598
    Gval  0.00311855  0.00367531  0.00367711  0.00372198  0.00372371  0.00377440  0.00394485  0.00407720
  6.793937163791941E-007  6.793937163791941E-007
  1.238281483807125E-006  6.793937163791941E-007
  2.002141187063116E-006  6.793937163791941E-007
  2.712357750973442E-006  6.793937163791941E-007
  4.937516317617806E-006  6.793937163791941E-007
  5.508269513911163E-006  6.793937163791941E-007
  6.540575787142893E-006  6.793937163791941E-007
  9.300140902626818E-006  6.793937163791941E-007
  9.700261872431963E-006  6.793937163791941E-007
  1.117533350917878E-005  6.793937163791941E-007
  1.361644773933376E-005  6.793937163791941E-007
  1.557776964705944E-005  6.793937163791941E-007
  1.644092049502558E-005  6.793937163791941E-007
  1.718354163117578E-005  6.793937163791941E-007
  1.781805732750077E-005  6.793937163791941E-007
  1.835043968621748E-005  6.793937163791941E-007
  2.159135757278013E-005  6.793937163791941E-007
  2.381792341994219E-005  6.793937163791941E-007
  2.402031692528760E-005  6.793937163791941E-007
  2.435816911050058E-005  6.793937163791941E-007
  2.528984495908158E-005  6.793937163791941E-007
  2.542520787895379E-005  6.793937163791941E-007
  2.991088753539619E-005  6.793937163791941E-007
  3.506732575630252E-005  6.793937163791941E-007
  3.864315817631159E-005  6.793937163791941E-007
  3.994130855748869E-005  6.793937163791941E-007
  4.310159605942869E-005  6.793937163791941E-007
  4.455065926758081E-005  6.793937163791941E-007
  4.883697975099627E-005  6.793937163791941E-007
  5.177677011211580E-005  6.793937163791941E-007
  5.250840075319624E-005  6.793937163791941E-007
  5.387831549154811E-005  6.793937163791941E-007
  5.583461318691991E-005  6.793937163791941E-007
  5.974989388851584E-005  6.793937163791941E-007
  6.003116309802725E-005  6.793937163791941E-007
  6.324828028321965E-005  6.793937163791941E-007
  6.823163046678236E-005  6.793937163791941E-007
  7.077907066184018E-005  6.793937163791941E-007
  7.427557438985559E-005  6.793937163791941E-007
  7.964041113527371E-005  6.793937163791941E-007
  8.138063456391867E-005  6.793937163791941E-007
  8.243189531741532E-005  6.793937163791941E-007
  8.433168900122775E-005  6.793937163791941E-007
  8.687727325157394E-005  6.793937163791941E-007
  8.734231631807973E-005  6.793937163791941E-007
  9.307655127363463E-005  6.793937163791941E-007
  9.497501405582468E-005  6.793937163791941E-007
  9.876444914354231E-005  6.793937163791941E-007
  1.121165567230841E-004  6.793937163791941E-007
  1.172156848401933E-004  6.793937163791941E-007
  1.175119094976214E-004  6.793937163791941E-007
  1.224724338959862E-004  6.793937163791941E-007
  1.351073465069206E-004  6.793937163791941E-007
  1.357771605278848E-004  6.793937163791941E-007
  1.372697178556462E-004  6.793937163791941E-007
  1.403116035288767E-004  6.793937163791941E-007
  1.519890033526344E-004  6.793937163791941E-007
  1.563458241662386E-004  6.793937163791941E-007
  1.589526464397886E-004  6.793937163791941E-007
  1.602480588369176E-004  6.793937163791941E-007
  1.813187281197144E-004  6.793937163791941E-007
  1.865259249128953E-004  6.793937163791941E-007
  1.915389348295499E-004  6.793937163791941E-007
  2.025230748426551E-004  6.793937163791941E-007
  2.219590698027217E-004  6.793937163791941E-007
  2.286700620709662E-004  6.793937163791941E-007
  2.300946533624589E-004  6.793937163791941E-007
  2.653671128043159E-004  6.793937163791941E-007
  2.705304284200546E-004  6.793937163791941E-007
  2.805054817693651E-004  6.793937163791941E-007
  2.855697102165866E-004  6.793937163791941E-007
  2.897645601990573E-004  6.793937163791941E-007
  2.921579342932250E-004  6.793937163791941E-007
  3.128164386836862E-004  6.793937163791941E-007
  3.409867650659765E-004  6.793937163791941E-007
  3.575438160412930E-004  6.793937163791941E-007
  3.696694552791163E-004  6.793937163791941E-007
  3.809459549232376E-004  6.793937163791941E-007
  3.818824480574938E-004  6.793937163791941E-007
  3.913094944317762E-004  6.793937163791941E-007
  3.917777865089193E-004  6.793937163791941E-007
  3.996366528993909E-004  6.793937163791941E-007
  4.226492727414924E-004  6.793937163791941E-007
  4.287792590679687E-004  6.793937163791941E-007
  4.326799680111184E-004  6.793937163791941E-007
  4.364759922230825E-004  6.793937163791941E-007
  4.412110202743867E-004  6.793937163791941E-007
  4.420544946681968E-004  6.793937163791941E-007
  4.618728135429445E-004  6.793937163791941E-007
  4.663587355386119E-004  6.793937163791941E-007
  4.687312462370558E-004  6.793937163791941E-007
  4.824106955290999E-004  6.793937163791941E-007
  4.950323013195327E-004  6.793937163791941E-007
  5.156446661090515E-004  6.793937163791941E-007
  5.338274713784447E-004  6.793937163791941E-007
  5.371692484707587E-004  6.793937163791941E-007
  5.442097039693518E-004  6.793937163791941E-007
  5.540726424817665E-004  6.793937163791941E-007
  5.559545461202575E-004  6.793937163791941E-007
  5.560090789050016E-004  6.793937163791941E-007
  5.754660798388663E-004  6.793937163791941E-007
  5.930617309846058E-004  6.793937163791941E-007
  5.942319173809586E-004  6.793937163791941E-007
  5.984948621853509E-004  6.793937163791941E-007
  5.992403561500872E-004  6.793937163791941E-007
  5.995689219701102E-004  6.793937163791941E-007
  5.998512783348738E-004  6.793937163791941E-007
  6.021884385370728E-004  6.793937163791941E-007
  6.047128413588031E-004  6.793937163791941E-007
  6.233413874501454E-004  6.793937163791941E-007
  6.270722102720035E-004  6.793937163791941E-007
  6.407199111933542E-004  6.793937163791941E-007
  6.442263200252204E-004  6.793937163791941E-007
  6.449783711626747E-004  6.793937163791941E-007
  6.468148757413976E-004  6.793937163791941E-007
  6.611741877256171E-004  6.793937163791941E-007
  6.704485395549954E-004  6.793937163791941E-007
  6.939318014015864E-004  6.793937163791941E-007
  6.976872781115027E-004  6.793937163791941E-007
  7.941447859985860E-004  6.793937163791941E-007
  7.974786065203793E-004  6.793937163791941E-007
  8.132514050982462E-004  6.793937163791941E-007
  9.325653101904791E-004  6.793937163791941E-007
  9.889282713038286E-004  6.793937163791941E-007
  1.039682833331108E-003  6.793937163791941E-007
  1.093185633938851E-003  6.793937163791941E-007
  1.094120631752158E-003  6.793937163791941E-007
  1.094807781154886E-003  6.793937163791941E-007
  1.095313146584921E-003  6.793937163791941E-007
  1.111521091721758E-003  6.793937163791941E-007
  1.138948463518594E-003  6.793937163791941E-007
  1.142993483634696E-003  6.793937163791941E-007
  1.165374204710634E-003  6.793937163791941E-007
  1.165491245821266E-003  6.793937163791941E-007
  1.165836684929884E-003  6.793937163791941E-007
  1.166055871163874E-003  6.793937163791941E-007
  1.171080180594594E-003  6.793937163791941E-007
  1.171664789161275E-003  6.793937163791941E-007
  1.172832148885018E-003  6.793937163791941E-007
  1.173491566517302E-003  6.793937163791941E-007
  1.206922475269013E-003  6.793937163791941E-007
  1.260923657696539E-003  6.793937163791941E-007
  1.295228662198031E-003  6.793937163791941E-007
  1.374831066721051E-003  6.793937163791941E-007
  1.443646018717003E-003  6.793937163791941E-007
  1.481737150283450E-003  6.793937163791941E-007
  1.564946115618996E-003  6.793937163791941E-007
  1.715122351259582E-003  6.793937163791941E-007
  1.778957629394294E-003  6.793937163791941E-007
  1.790915583923985E-003  6.793937163791941E-007
  1.918441211566730E-003  6.793937163791941E-007
  2.279951848142642E-003  6.793937163791941E-007
  2.338902983408500E-003  6.793937163791941E-007
  2.353999231375635E-003  6.793937163791941E-007
  2.521217167251730E-003  6.793937163791941E-007
  2.525506023817266E-003  6.793937163791941E-007
  2.559865481982949E-003  6.793937163791941E-007
  2.789273257995000E-003  6.793937163791941E-007
  2.921919606186670E-003  6.793937163791941E-007
  3.023486735839956E-003  6.793937163791941E-007
  3.042094411454698E-003  6.793937163791941E-007
  3.081319387153511E-003  6.793937163791941E-007
  3.095984222117871E-003  6.793937163791941E-007
  3.118553057917415E-003  6.793937163791941E-007
  3.675310239680722E-003  6.793937163791941E-007
  3.677113687404667E-003  6.793937163791941E-007
  3.721978930708524E-003  6.793937163791941E-007
  3.723705766070260E-003  6.793937163791941E-007
  3.774403969620737E-003  6.793937163791941E-007
  3.944852122061989E-003  6.793937163791941E-007
  4.077196617197129E-003  6.793937163791941E-007
 cut=1d-8, nber non-redundant internal coords=         171
 Check on Eigenvals of non-red overlap matrix:
  0.00000068  0.00000124  0.00000200  0.00000271  0.00000494  0.00000551  0.00000654  0.00000930
  0.00000970  0.00001118  0.00001362  0.00001558  0.00001644  0.00001718  0.00001782  0.00001835
  0.00002159  0.00002382  0.00002402  0.00002436  0.00002529  0.00002543  0.00002991  0.00003507
  0.00003864  0.00003994  0.00004310  0.00004455  0.00004884  0.00005178  0.00005251  0.00005388
  0.00005583  0.00005975  0.00006003  0.00006325  0.00006823  0.00007078  0.00007428  0.00007964
  0.00008138  0.00008243  0.00008433  0.00008688  0.00008734  0.00009308  0.00009498  0.00009876
  0.00011212  0.00011722  0.00011751  0.00012247  0.00013511  0.00013578  0.00013727  0.00014031
  0.00015199  0.00015635  0.00015895  0.00016025  0.00018132  0.00018653  0.00019154  0.00020252
  0.00022196  0.00022867  0.00023009  0.00026537  0.00027053  0.00028051  0.00028557  0.00028976
  0.00029216  0.00031282  0.00034099  0.00035754  0.00036967  0.00038095  0.00038188  0.00039131
  0.00039178  0.00039964  0.00042265  0.00042878  0.00043268  0.00043648  0.00044121  0.00044205
  0.00046187  0.00046636  0.00046873  0.00048241  0.00049503  0.00051564  0.00053383  0.00053717
  0.00054421  0.00055407  0.00055595  0.00055601  0.00057547  0.00059306  0.00059423  0.00059849
  0.00059924  0.00059957  0.00059985  0.00060219  0.00060471  0.00062334  0.00062707  0.00064072
  0.00064423  0.00064498  0.00064681  0.00066117  0.00067045  0.00069393  0.00069769  0.00079414
  0.00079748  0.00081325  0.00093257  0.00098893  0.00103968  0.00109319  0.00109412  0.00109481
  0.00109531  0.00111152  0.00113895  0.00114299  0.00116537  0.00116549  0.00116584  0.00116606
  0.00117108  0.00117166  0.00117283  0.00117349  0.00120692  0.00126092  0.00129523  0.00137483
  0.00144365  0.00148174  0.00156495  0.00171512  0.00177896  0.00179092  0.00191844  0.00227995
  0.00233890  0.00235400  0.00252122  0.00252551  0.00255987  0.00278927  0.00292192  0.00302349
  0.00304209  0.00308132  0.00309598  0.00311855  0.00367531  0.00367711  0.00372198  0.00372371
  0.00377440  0.00394485  0.00407720
 Checking for correct frequencies
 recalc frequencies=
    -0.0   -0.0    0.0    0.0    0.0    0.0    7.4   16.4   29.1   35.6
    53.4   55.6   62.5   77.2   90.1  101.8  113.0  130.3  163.2  167.8
   183.7  196.4  198.1  213.4  234.5  235.0  249.0  256.8  262.4  292.8
   302.5  305.6  323.9  352.3  389.8  392.3  417.3  419.1  431.7  437.2
   439.1  439.6  447.8  463.1  478.1  486.5  500.2  502.0  506.4  515.1
   520.1  545.4  572.9  574.0  578.1  605.1  615.4  631.4  639.0  645.4
   653.4  677.1  705.3  706.6  706.9  712.2  725.3  753.2  760.0  760.6
   761.9  771.8  799.5  812.5  813.4  814.5  821.5  828.9  832.5  835.9
   846.4  858.2  899.8  918.7  928.4  941.9  945.2  956.6  974.3  975.7
   976.1  977.8  987.6  988.2 1002.2 1020.8 1047.5 1061.1 1083.6 1094.8
  1099.8 1135.4 1155.5 1157.2 1164.3 1165.1 1177.8 1182.8 1185.6 1195.3
  1195.8 1205.6 1224.0 1232.6 1242.2 1252.1 1260.6 1299.4 1316.5 1318.6
  1326.3 1348.2 1350.3 1358.9 1365.9 1380.9 1382.4 1391.6 1400.1 1403.6
  1416.1 1430.6 1439.7 1443.9 1461.0 1466.2 1484.8 1485.0 1492.0 1497.5
  1505.3 1510.7 1522.6 1527.5 1546.5 1554.7 1570.2 1580.6 1598.9 1599.3
  1622.5 1635.6 1642.6 1685.2 1706.7 1724.5 1742.5 3034.2 3038.3 3092.1
  3095.3 3112.4 3132.7 3143.0 3165.5 3175.3 3184.1 3192.2 3196.7 3197.6
  3198.0 3204.4 3204.6 3212.5 3212.6 3223.7 3224.0
 recalc symmetries=
                                                                       
                                                                       
                                                                       
                                                                       
                                                                       
                                                                       
                                                                       
                                                                       
                                                                       
                                                                       
                                                                       
                                                                       
                                                                       
                                                                       
                                                                       
                                                                       
                                                                       
                                                  
 recalc freqs check OK
 Zero-point lengths:
 10.0000 10.0000 10.0000 10.0000 10.0000 10.0000 91.2708 61.1844 45.9934 41.5444
 33.9129 33.2561 31.3552 28.2123 26.1211 24.5756 23.3239 21.7201 19.4074 19.1384
 18.2924 17.6897 17.6153 16.9726 16.1901 16.1713 15.7096 15.4692 15.3033 14.4879
 14.2534 14.1812 13.7755 13.2081 12.5560 12.5169 12.1362 12.1092 11.9320 11.8569
 11.8312 11.8242 11.7159 11.5201 11.3378 11.2392 11.0847 11.0649 11.0164 10.9229
 10.8706 10.6154 10.3571 10.3473 10.3105 10.0778  9.9935  9.8662  9.8070  9.7582
  9.6984  9.5274  9.3346  9.3261  9.3241  9.2898  9.2053  9.0333  8.9927  8.9891
  8.9817  8.9234  8.7676  8.6973  8.6923  8.6864  8.6494  8.6107  8.5923  8.5746
  8.5213  8.4628  8.2648  8.1793  8.1365  8.0779  8.0636  8.0153  7.9424  7.9368
  7.9349  7.9280  7.8888  7.8862  7.8312  7.7593  7.6597  7.6106  7.5313  7.4925
  7.4753  7.3574  7.2930  7.2879  7.2655  7.2628  7.2237  7.2085  7.2000  7.1706
  7.1691  7.1398  7.0860  7.0613  7.0338  7.0062  6.9825  6.8775  6.8326  6.8273
  6.8074  6.7518  6.7466  6.7252  6.7080  6.6712  6.6677  6.6456  6.6255  6.6172
  6.5880  6.5545  6.5338  6.5242  6.4860  6.4743  6.4337  6.4333  6.4183  6.4064
  6.3898  6.3782  6.3533  6.3432  6.3040  6.2873  6.2563  6.2357  6.1999  6.1991
  6.1547  6.1300  6.1168  6.0390  6.0010  5.9698  5.9390  4.5007  4.4976  4.4583
  4.4560  4.4437  4.4293  4.4221  4.4063  4.3995  4.3934  4.3878  4.3847  4.3841
  4.3839  4.3795  4.3793  4.3739  4.3739  4.3663  4.3661
 highest evec of mol 1
 -0.0000 -0.0000  0.0000
 -0.0001  0.0000  0.0002
  0.0000  0.0000  0.0001
  0.0001  0.0002 -0.0004
  0.0002 -0.0010  0.0001
 -0.0002  0.0004  0.0002
 -0.0013  0.0016  0.0025
  0.0092 -0.0682  0.0119
  0.0634 -0.0833 -0.1202
 -0.0001  0.0032 -0.0015
 -0.0014  0.0006  0.0032
  0.0278 -0.1586  0.0116
  0.0264 -0.0281 -0.0533
 -0.0005  0.0031 -0.0003
  0.0004 -0.0005 -0.0007
 -0.0001  0.0004  0.0002
 -0.0001 -0.0002  0.0004
  0.0000  0.0000 -0.0001
  0.0001 -0.0000  0.0001
  0.0002  0.0001 -0.0000
  0.0000  0.0001 -0.0002
 -0.0002  0.0000 -0.0002
 -0.0001 -0.0001  0.0000
 -0.0001  0.0006 -0.0002
  0.0001 -0.0003 -0.0001
  0.0007 -0.0010 -0.0014
 -0.0052  0.0385 -0.0068
 -0.0384  0.0504  0.0726
  0.0000 -0.0020  0.0010
  0.0009 -0.0003 -0.0021
 -0.0165  0.0942 -0.0067
 -0.0175  0.0190  0.0352
  0.0003 -0.0019  0.0001
 -0.0003  0.0003  0.0006
  0.0001 -0.0002 -0.0001
 -0.0001 -0.0000  0.0002
 -0.0002  0.0003  0.0003
 -0.0001  0.0005  0.0000
  0.0000  0.0002 -0.0001
  0.0001  0.0001 -0.0003
 -0.0000 -0.0000  0.0000
  0.0001 -0.0001  0.0000
  0.0002 -0.0003 -0.0003
  0.0000 -0.0000  0.0000
  0.0000  0.0001 -0.0003
 -0.0001 -0.0001  0.0000
 -0.0342  0.2156 -0.0246
 -0.2134  0.2830  0.4029
 -0.0945  0.5338 -0.0365
 -0.0824  0.0999  0.1600
 -0.0002  0.0000 -0.0003
 -0.0007 -0.0003  0.0001
 -0.0001 -0.0003  0.0005
  0.0005 -0.0000  0.0006
  0.0003  0.0002 -0.0001
  0.0193 -0.1211  0.0138
  0.1292 -0.1708 -0.2438
  0.0562 -0.3170  0.0209
  0.0550 -0.0668 -0.1069
 generating redundant internal coords
         300        3600          59
 Adding extra bonds for z output only
           6           6           6           7           6           8
           6           6           6           6           6           6
           6           6           6           8           7           6
           6           6           6           6           6           6
           8           6           6           6           6           6
           6           6           6           6           8           6
           6           6           6           1           1           1
           1           1           1           1           1           1
           1           1           1           1           1           1
           1           1           1           1           1
 search for int coords
   1 str   2   1   1.532
   2 str   3   2   1.532
   3 str   4   2   1.498
   4 str   5   4   1.400
   5 str   6   5   1.222
   6 str   7   5   1.479
   7 str   8   7   1.400
   8 str   9   8   1.380
   9 str  10   9   1.422
  10 str  11  10   1.441
  11 str  12  11   1.422
  12 str  13  12   1.380
  13 str  14  13   1.400
  14 str  15  14   1.477
  15 str  16  15   1.217
  16 str  17  15   1.409
  17 str  18  17   1.449
  18 str  19  18   1.390
  19 str  20  19   1.392
  20 str  21  20   1.393
  21 str  22  21   1.393
  22 str  23  18   1.390
  23 str  23  22   1.392
  24 str  24  17   1.409
  25 str  25  24   1.217
  26 str  26  24   1.477
  27 str  27  26   1.400
  28 str  28  27   1.380
  29 str  29  28   1.422
  30 str  30  29   1.441
  31 str  31  30   1.422
  32 str  32  31   1.380
  33 str  33  32   1.400
  34 str  34   4   1.408
  35 str  34  33   1.477
  36 str  35  34   1.222
  37 str  36   7   1.411
  38 str  36  33   1.410
  39 str  37  10   1.427
  40 str  37  30   1.427
  41 str  37  36   1.428
  42 str  38  11   1.427
  43 str  38  29   1.427
  44 str  39  14   1.413
  45 str  39  26   1.413
  46 str  39  38   1.429
  47 str  40   1   1.093
  48 str  41   1   1.089
  49 str  42   1   1.093
  50 str  43   2   1.088
  51 str  44   3   1.089
  52 str  45   3   1.093
  53 str  46   3   1.093
  54 str  47   8   1.082
  55 str  48   9   1.081
  56 str  49  12   1.081
  57 str  50  13   1.082
  58 str  51  19   1.083
  59 str  52  20   1.084
  60 str  53  21   1.084
  61 str  54  22   1.084
  62 str  55  23   1.083
  63 str  56  27   1.082
  64 str  57  28   1.081
  65 str  58  31   1.081
  66 str  59  32   1.082
 nber stretches=          66
  67 ben   1   2   3
  68 prop tor   1   2   3  44
  69 prop tor   1   2   3  45
  70 prop tor   1   2   3  46
  71 ben   1   2   4
  72 prop tor   1   2   4   5
  73 prop tor   1   2   4  34
  74 ben   1   2  43
  75 ben   2   1  40
  76 ben   2   1  41
  77 ben   2   1  42
  78 ben   2   3  44
  79 ben   2   3  45
  80 ben   2   3  46
  81 ben   2   4   5
  82 prop tor   2   4   5   6
  83 prop tor   2   4   5   7
  84 ben   2   4  34
  85 prop tor   2   4  34  33
  86 prop tor   2   4  34  35
  87 ben   3   2   4
  88 prop tor   3   2   4   5
  89 prop tor   3   2   4  34
  90 ben   3   2  43
  91 prop tor   4   2   3  44
  92 prop tor   4   2   3  45
  93 prop tor   4   2   3  46
  94 ben   4   2  43
  95 ben   4   5   6
  96 ben   4   5   7
  97 prop tor   4   5   7   8
  98 prop tor   4   5   7  36
  99 ben   4  34  33
 100 ben   4  34  35
 101 ben   5   4  34
 102 prop tor   5   4  34  33
 103 prop tor   5   4  34  35
 104 ben   5   7   8
 105 prop tor   5   7   8   9
 106 prop tor   5   7   8  47
 107 ben   5   7  36
 108 prop tor   5   7  36  33
 109 prop tor   5   7  36  37
 110 ben   6   5   7
 111 prop tor   6   5   7   8
 112 prop tor   6   5   7  36
 113 ben   7   8   9
 114 prop tor   7   8   9  10
 115 prop tor   7   8   9  48
 116 ben   7   8  47
 117 ben   7  36  33
 118 ben   7  36  37
 119 prop tor   7  36  37  10
 120 prop tor   7  36  37  30
 121 ben   8   7  36
 122 prop tor   8   7  36  33
 123 prop tor   8   7  36  37
 124 ben   8   9  10
 125 prop tor   8   9  10  11
 126 prop tor   8   9  10  37
 127 ben   8   9  48
 128 ben   9   8  47
 129 ben   9  10  11
 130 prop tor   9  10  11  12
 131 prop tor   9  10  11  38
 132 ben   9  10  37
 133 prop tor   9  10  37  30
 134 prop tor   9  10  37  36
 135 ben  10   9  48
 136 ben  10  11  12
 137 prop tor  10  11  12  13
 138 prop tor  10  11  12  49
 139 ben  10  11  38
 140 prop tor  10  11  38  29
 141 prop tor  10  11  38  39
 142 ben  10  37  30
 143 ben  10  37  36
 144 ben  11  10  37
 145 prop tor  11  10  37  30
 146 prop tor  11  10  37  36
 147 ben  11  12  13
 148 prop tor  11  12  13  14
 149 prop tor  11  12  13  50
 150 ben  11  12  49
 151 ben  11  38  29
 152 ben  11  38  39
 153 prop tor  11  38  39  14
 154 prop tor  11  38  39  26
 155 ben  12  11  38
 156 prop tor  12  11  38  29
 157 prop tor  12  11  38  39
 158 ben  12  13  14
 159 prop tor  12  13  14  15
 160 prop tor  12  13  14  39
 161 ben  12  13  50
 162 ben  13  12  49
 163 ben  13  14  15
 164 prop tor  13  14  15  16
 165 prop tor  13  14  15  17
 166 ben  13  14  39
 167 prop tor  13  14  39  26
 168 prop tor  13  14  39  38
 169 ben  14  13  50
 170 ben  14  15  16
 171 ben  14  15  17
 172 prop tor  14  15  17  18
 173 prop tor  14  15  17  24
 174 ben  14  39  26
 175 ben  14  39  38
 176 ben  15  14  39
 177 prop tor  15  14  39  26
 178 prop tor  15  14  39  38
 179 ben  15  17  18
 180 prop tor  15  17  18  19
 181 prop tor  15  17  18  23
 182 ben  15  17  24
 183 prop tor  15  17  24  25
 184 prop tor  15  17  24  26
 185 ben  16  15  17
 186 prop tor  16  15  17  18
 187 prop tor  16  15  17  24
 188 ben  17  18  19
 189 prop tor  17  18  19  20
 190 prop tor  17  18  19  51
 191 ben  17  18  23
 192 prop tor  17  18  23  22
 193 prop tor  17  18  23  55
 194 ben  17  24  25
 195 ben  17  24  26
 196 prop tor  17  24  26  27
 197 prop tor  17  24  26  39
 198 ben  18  17  24
 199 prop tor  18  17  24  25
 200 prop tor  18  17  24  26
 201 ben  18  19  20
 202 prop tor  18  19  20  21
 203 prop tor  18  19  20  52
 204 ben  18  19  51
 205 ben  18  23  22
 206 ben  18  23  55
 207 ben  19  18  23
 208 prop tor  19  18  23  22
 209 prop tor  19  18  23  55
 210 ben  19  20  21
 211 prop tor  19  20  21  22
 212 prop tor  19  20  21  53
 213 ben  19  20  52
 214 ben  20  19  51
 215 ben  20  21  22
 216 prop tor  20  21  22  23
 217 prop tor  20  21  22  54
 218 ben  20  21  53
 219 ben  21  20  52
 220 ben  21  22  23
 221 prop tor  21  22  23  18
 222 prop tor  21  22  23  55
 223 ben  21  22  54
 224 ben  22  21  53
 225 ben  22  23  55
 226 prop tor  23  18  19  20
 227 prop tor  23  18  19  51
 228 ben  23  22  54
 229 prop tor  24  17  18  19
 230 prop tor  24  17  18  23
 231 ben  24  26  27
 232 prop tor  24  26  27  28
 233 prop tor  24  26  27  56
 234 ben  24  26  39
 235 prop tor  24  26  39  14
 236 prop tor  24  26  39  38
 237 ben  25  24  26
 238 prop tor  25  24  26  27
 239 prop tor  25  24  26  39
 240 ben  26  27  28
 241 prop tor  26  27  28  29
 242 prop tor  26  27  28  57
 243 ben  26  27  56
 244 ben  26  39  38
 245 ben  27  26  39
 246 prop tor  27  26  39  14
 247 prop tor  27  26  39  38
 248 ben  27  28  29
 249 prop tor  27  28  29  30
 250 prop tor  27  28  29  38
 251 ben  27  28  57
 252 ben  28  27  56
 253 ben  28  29  30
 254 prop tor  28  29  30  31
 255 prop tor  28  29  30  37
 256 ben  28  29  38
 257 prop tor  28  29  38  11
 258 prop tor  28  29  38  39
 259 ben  29  28  57
 260 ben  29  30  31
 261 prop tor  29  30  31  32
 262 prop tor  29  30  31  58
 263 ben  29  30  37
 264 prop tor  29  30  37  10
 265 prop tor  29  30  37  36
 266 ben  29  38  39
 267 prop tor  29  38  39  14
 268 prop tor  29  38  39  26
 269 ben  30  29  38
 270 prop tor  30  29  38  11
 271 prop tor  30  29  38  39
 272 ben  30  31  32
 273 prop tor  30  31  32  33
 274 prop tor  30  31  32  59
 275 ben  30  31  58
 276 ben  30  37  36
 277 ben  31  30  37
 278 prop tor  31  30  37  10
 279 prop tor  31  30  37  36
 280 ben  31  32  33
 281 prop tor  31  32  33  34
 282 prop tor  31  32  33  36
 283 ben  31  32  59
 284 ben  32  31  58
 285 ben  32  33  34
 286 prop tor  32  33  34   4
 287 prop tor  32  33  34  35
 288 ben  32  33  36
 289 prop tor  32  33  36   7
 290 prop tor  32  33  36  37
 291 ben  33  32  59
 292 ben  33  34  35
 293 ben  33  36  37
 294 prop tor  33  36  37  10
 295 prop tor  33  36  37  30
 296 prop tor  34   4   5   6
 297 prop tor  34   4   5   7
 298 ben  34  33  36
 299 prop tor  34  33  36   7
 300 prop tor  34  33  36  37
 301 prop tor  36   7   8   9
 302 prop tor  36   7   8  47
 303 prop tor  36  33  34   4
 304 prop tor  36  33  34  35
 305 prop tor  37  10  11  12
 306 prop tor  37  10  11  38
 307 prop tor  37  30  31  32
 308 prop tor  37  30  31  58
 309 prop tor  38  11  12  13
 310 prop tor  38  11  12  49
 311 prop tor  38  29  30  31
 312 prop tor  38  29  30  37
 313 prop tor  39  14  15  16
 314 prop tor  39  14  15  17
 315 prop tor  39  26  27  28
 316 prop tor  39  26  27  56
 317 prop tor  40   1   2   3
 318 prop tor  40   1   2   4
 319 prop tor  40   1   2  43
 320 ben  40   1  41
 321 ben  40   1  42
 322 prop tor  41   1   2   3
 323 prop tor  41   1   2   4
 324 prop tor  41   1   2  43
 325 ben  41   1  42
 326 prop tor  42   1   2   3
 327 prop tor  42   1   2   4
 328 prop tor  42   1   2  43
 329 prop tor  43   2   3  44
 330 prop tor  43   2   3  45
 331 prop tor  43   2   3  46
 332 prop tor  43   2   4   5
 333 prop tor  43   2   4  34
 334 ben  44   3  45
 335 ben  44   3  46
 336 ben  45   3  46
 337 prop tor  47   8   9  10
 338 prop tor  47   8   9  48
 339 prop tor  48   9  10  11
 340 prop tor  48   9  10  37
 341 prop tor  49  12  13  14
 342 prop tor  49  12  13  50
 343 prop tor  50  13  14  15
 344 prop tor  50  13  14  39
 345 prop tor  51  19  20  21
 346 prop tor  51  19  20  52
 347 prop tor  52  20  21  22
 348 prop tor  52  20  21  53
 349 prop tor  53  21  22  23
 350 prop tor  53  21  22  54
 351 prop tor  54  22  23  18
 352 prop tor  54  22  23  55
 353 prop tor  56  27  28  29
 354 prop tor  56  27  28  57
 355 prop tor  57  28  29  30
 356 prop tor  57  28  29  38
 357 prop tor  58  31  32  33
 358 prop tor  58  31  32  59
 359 prop tor  59  32  33  34
 360 prop tor  59  32  33  36
 nber bend=             114
 nber lin bend=           0
 nber prop tor=         180
 nber impr tor=           0
 nber tot redund int=         360
 Reading file: 
 ./PDI_1_C-1S0.log                                                              
                                          
  Entering Gaussian System, Link 0=g16                                          
  
 Gaussian format, type: g94, g98, g03= F F F
  #P Geom=AllCheck Guess=TCheck SCRF=Check GenChk UB3LYP/6-311G(d,p) Fre    
 energy type= B3LYP   
 Original G94 input coords:
  6  1.061098  0.410994 -0.062064
  6  2.533154  0.024120  0.125823
  6  2.989363  0.087164  1.588649
  7  2.849013 -1.287993 -0.500382
  6  2.229657 -2.449890 -0.004252
  8  1.437271 -2.380032  0.934825
  6  2.574192 -3.714525 -0.653831
  6  1.987969 -4.901620 -0.201355
  6  2.291172 -6.111138 -0.791438
  6  3.200241 -6.208795 -1.871575
  6  3.526475 -7.472057 -2.498644
  6  2.957823 -8.696278 -2.073806
  6  3.276333 -9.894594 -2.676931
  6  4.182225 -9.945088 -3.742587
  6  4.492970-11.236446 -4.351051
  8  4.007787-12.298133 -3.981068
  7  5.414769-11.212471 -5.431050
  6  5.739373-12.469094 -6.054828
  6  5.399560-12.695686 -7.386718
  6  5.716565-13.909666 -7.989402
  6  6.368475-14.904565 -7.263834
  6  6.704417-14.676293 -5.931063
  6  6.393900-13.460935 -5.327775
  6  6.041492-10.045813 -5.943831
  8  6.822886-10.130664 -6.882829
  6  5.693713 -8.788046 -5.287065
  6  6.279521 -7.599524 -5.737789
  6  5.976378 -6.391390 -5.146518
  6  5.066797 -6.295873 -4.066570
  6  4.740466 -5.032801 -3.439613
  6  5.307871 -3.807315 -3.862992
  6  4.989599 -2.609318 -3.257939
  6  4.084309 -2.560615 -2.191735
  6  3.770992 -1.273116 -1.574584
  8  4.271568 -0.215949 -1.952903
  6  3.489028 -3.756612 -1.730129
  6  3.812647 -5.009955 -2.352384
  6  4.454657 -7.495792 -3.586259
  6  4.778676 -8.749968 -4.208760
  1  0.908044  1.436522  0.289616
  1  0.402320 -0.255692  0.492954
  1  0.789943  0.375552 -1.120716
  1  3.140372  0.722703 -0.446491
  1  2.411855 -0.593088  2.213337
  1  2.864026  1.108105  1.963853
  1  4.048576 -0.171961  1.668938
  1  1.290219 -4.841760  0.624858
  1  1.813910 -7.002661 -0.408430
  1  2.252713 -8.705573 -1.254114
  1  2.834140-10.824518 -2.340948
  1  4.900804-11.915513 -7.946853
  1  5.453711-14.076636 -9.028439
  1  6.613009-15.851224 -7.733775
  1  7.209153-15.445803 -5.356899
  1  6.644420-13.280177 -4.290593
  1  6.976993 -7.658009 -6.564401
  1  6.453409 -5.499138 -5.527958
  1  6.012454 -3.796283 -4.683178
  1  5.432198 -1.679393 -3.593068
 nber atoms=          59
  SCF Done:  E(UB3LYP) =  -1680.59310853     A.U. after    1 cycles             
  
          23          40 "  -1680.59310853"
After scan for Atom:   Atom  AN      X      Y      Z        X      Y      Z        X      Y      Z   
After scan for Atom:   Atom  AN      X      Y      Z        X      Y      Z        X      Y      Z   
After scan for Atom:   Atom  AN      X      Y      Z        X      Y      Z        X      Y      Z   
After scan for Atom:   Atom  AN      X      Y      Z        X      Y      Z        X      Y      Z   
After scan for Atom:   Atom  AN      X      Y      Z        X      Y      Z        X      Y      Z   
After scan for Atom:   Atom  AN      X      Y      Z        X      Y      Z        X      Y      Z   
After scan for Atom:   Atom  AN      X      Y      Z        X      Y      Z        X      Y      Z   
After scan for Atom:   Atom  AN      X      Y      Z        X      Y      Z        X      Y      Z   
After scan for Atom:   Atom  AN      X      Y      Z        X      Y      Z        X      Y      Z   
After scan for Atom:   Atom  AN      X      Y      Z        X      Y      Z        X      Y      Z   
After scan for Atom:   Atom  AN      X      Y      Z        X      Y      Z        X      Y      Z   
After scan for Atom:   Atom  AN      X      Y      Z        X      Y      Z        X      Y      Z   
After scan for Atom:   Atom  AN      X      Y      Z        X      Y      Z        X      Y      Z   
After scan for Atom:   Atom  AN      X      Y      Z        X      Y      Z        X      Y      Z   
After scan for Atom:   Atom  AN      X      Y      Z        X      Y      Z        X      Y      Z   
After scan for Atom:   Atom  AN      X      Y      Z        X      Y      Z        X      Y      Z   
After scan for Atom:   Atom  AN      X      Y      Z        X      Y      Z        X      Y      Z   
After scan for Atom:   Atom  AN      X      Y      Z        X      Y      Z        X      Y      Z   
After scan for Atom:   Atom  AN      X      Y      Z        X      Y      Z        X      Y      Z   
After scan for Atom:   Atom  AN      X      Y      Z        X      Y      Z        X      Y      Z   
After scan for Atom:   Atom  AN      X      Y      Z        X      Y      Z        X      Y      Z   
After scan for Atom:   Atom  AN      X      Y      Z        X      Y      Z        X      Y      Z   
After scan for Atom:   Atom  AN      X      Y      Z        X      Y      Z        X      Y      Z   
After scan for Atom:   Atom  AN      X      Y      Z        X      Y      Z        X      Y      Z   
After scan for Atom:   Atom  AN      X      Y      Z        X      Y      Z        X      Y      Z   
After scan for Atom:   Atom  AN      X      Y      Z        X      Y      Z        X      Y      Z   
After scan for Atom:   Atom  AN      X      Y      Z        X      Y      Z        X      Y      Z   
After scan for Atom:   Atom  AN      X      Y      Z        X      Y      Z        X      Y      Z   
After scan for Atom:   Atom  AN      X      Y      Z        X      Y      Z        X      Y      Z   
After scan for Atom:   Atom  AN      X      Y      Z        X      Y      Z        X      Y      Z   
After scan for Atom:   Atom  AN      X      Y      Z        X      Y      Z        X      Y      Z   
After scan for Atom:   Atom  AN      X      Y      Z        X      Y      Z        X      Y      Z   
After scan for Atom:   Atom  AN      X      Y      Z        X      Y      Z        X      Y      Z   
After scan for Atom:   Atom  AN      X      Y      Z        X      Y      Z        X      Y      Z   
After scan for Atom:   Atom  AN      X      Y      Z        X      Y      Z        X      Y      Z   
After scan for Atom:   Atom  AN      X      Y      Z        X      Y      Z        X      Y      Z   
After scan for Atom:   Atom  AN      X      Y      Z        X      Y      Z        X      Y      Z   
After scan for Atom:   Atom  AN      X      Y      Z        X      Y      Z        X      Y      Z   
After scan for Atom:   Atom  AN      X      Y      Z        X      Y      Z        X      Y      Z   
After scan for Atom:   Atom  AN      X      Y      Z        X      Y      Z        X      Y      Z   
After scan for Atom:   Atom  AN      X      Y      Z        X      Y      Z        X      Y      Z   
After scan for Atom:   Atom  AN      X      Y      Z        X      Y      Z        X      Y      Z   
After scan for Atom:   Atom  AN      X      Y      Z        X      Y      Z        X      Y      Z   
After scan for Atom:   Atom  AN      X      Y      Z        X      Y      Z        X      Y      Z   
After scan for Atom:   Atom  AN      X      Y      Z        X      Y      Z        X      Y      Z   
After scan for Atom:   Atom  AN      X      Y      Z        X      Y      Z        X      Y      Z   
After scan for Atom:   Atom  AN      X      Y      Z        X      Y      Z        X      Y      Z   
After scan for Atom:   Atom  AN      X      Y      Z        X      Y      Z        X      Y      Z   
After scan for Atom:   Atom  AN      X      Y      Z        X      Y      Z        X      Y      Z   
After scan for Atom:   Atom  AN      X      Y      Z        X      Y      Z        X      Y      Z   
After scan for Atom:   Atom  AN      X      Y      Z        X      Y      Z        X      Y      Z   
After scan for Atom:   Atom  AN      X      Y      Z        X      Y      Z        X      Y      Z   
After scan for Atom:   Atom  AN      X      Y      Z        X      Y      Z        X      Y      Z   
After scan for Atom:   Atom  AN      X      Y      Z        X      Y      Z        X      Y      Z   
After scan for Atom:   Atom  AN      X      Y      Z        X      Y      Z        X      Y      Z   
After scan for Atom:   Atom  AN      X      Y      Z        X      Y      Z        X      Y      Z   
After scan for Atom:   Atom  AN      X      Y      Z        X      Y      Z        X      Y      Z   
 g94    frequencies=
     0.0    0.0    0.0    0.0    0.0    0.0   16.6   23.2   33.5   35.4
    58.4   59.0   63.9   81.3   92.7  103.7  117.7  143.3  165.0  170.7
   192.8  198.2  201.9  216.6  233.3  235.2  253.5  265.4  268.0  298.6
   301.4  309.4  343.2  360.4  393.1  396.4  418.0  419.4  431.4  435.0
   442.3  444.9  454.3  466.3  475.3  501.2  504.6  510.9  511.3  517.4
   526.9  542.8  579.5  582.1  592.1  623.3  625.0  634.1  648.2  656.0
   664.3  701.7  710.9  714.4  728.8  744.9  747.9  756.4  763.5  766.4
   782.7  802.6  803.0  809.2  814.6  817.0  823.2  827.6  831.4  836.3
   838.7  860.4  900.1  920.5  931.1  942.0  953.9  962.0  963.5  967.1
   973.7  976.3  979.7  979.9  987.4 1021.0 1048.9 1065.3 1079.5 1089.2
  1097.0 1139.7 1145.0 1154.2 1154.9 1164.3 1173.6 1177.4 1184.7 1195.6
  1196.0 1202.6 1223.4 1233.3 1243.4 1253.8 1263.9 1295.4 1307.0 1313.7
  1328.4 1344.1 1350.2 1354.4 1365.1 1372.4 1382.9 1387.6 1391.9 1396.7
  1405.6 1421.9 1436.0 1463.7 1468.2 1472.1 1481.7 1482.3 1482.4 1493.2
  1507.6 1524.0 1528.3 1529.5 1561.8 1571.9 1575.5 1590.9 1608.9 1617.0
  1626.4 1631.3 1643.5 1664.4 1684.9 1701.1 1721.8 3021.7 3027.2 3080.0
  3083.0 3104.0 3129.4 3138.4 3151.3 3164.1 3176.5 3181.7 3181.9 3189.3
  3189.6 3199.2 3199.4 3200.4 3202.0 3211.5 3211.8
 g94    symmetries=
                                                 A      A      A      A
       A      A      A      A      A      A      A      A      A      A
       A      A      A      A      A      A      A      A      A      A
       A      A      A      A      A      A      A      A      A      A
       A      A      A      A      A      A      A      A      A      A
       A      A      A      A      A      A      A      A      A      A
       A      A      A      A      A      A      A      A      A      A
       A      A      A      A      A      A      A      A      A      A
       A      A      A      A      A      A      A      A      A      A
       A      A      A      A      A      A      A      A      A      A
       A      A      A      A      A      A      A      A      A      A
       A      A      A      A      A      A      A      A      A      A
       A      A      A      A      A      A      A      A      A      A
       A      A      A      A      A      A      A      A      A      A
       A      A      A      A      A      A      A      A      A      A
       A      A      A      A      A      A      A      A      A      A
       A      A      A      A      A      A      A      A      A      A
       A      A      A      A      A      A      A
 atomic masses:
 12.0000 12.0000 12.0000 14.0031 12.0000 15.9949 12.0000 12.0000 12.0000 12.0000
 12.0000 12.0000 12.0000 12.0000 12.0000 15.9949 14.0031 12.0000 12.0000 12.0000
 12.0000 12.0000 12.0000 12.0000 15.9949 12.0000 12.0000 12.0000 12.0000 12.0000
 12.0000 12.0000 12.0000 12.0000 15.9949 12.0000 12.0000 12.0000 12.0000  1.0078
  1.0078  1.0078  1.0078  1.0078  1.0078  1.0078  1.0078  1.0078  1.0078  1.0078
  1.0078  1.0078  1.0078  1.0078  1.0078  1.0078  1.0078  1.0078  1.0078
 looking for force constants in 
 ./PDI_1_C-1S0.fchk                                                             
  
 Cartesian Force Constants                  R   N=       15753                  
  
 n3=         177       15753
 g94-fc frequencies=
    -1.7   -0.8   -0.0    0.0    0.0    3.8   16.6   23.2   33.5   35.4
    58.4   59.0   64.0   81.3   92.7  103.7  117.7  143.3  165.1  170.7
   192.8  198.2  201.9  216.6  233.3  235.2  253.5  265.4  268.0  298.6
   301.4  309.4  343.2  360.4  393.1  396.4  418.0  419.4  431.4  435.0
   442.3  444.9  454.3  466.3  475.3  501.3  504.6  510.9  511.4  517.4
   526.9  542.9  579.5  582.1  592.1  623.3  625.0  634.1  648.2  656.0
   664.3  701.7  711.0  714.4  728.8  744.9  748.0  756.4  763.5  766.4
   782.7  802.7  803.0  809.2  814.7  817.0  823.2  827.6  831.4  836.3
   838.8  860.4  900.1  920.5  931.1  942.0  953.9  962.0  963.6  967.1
   973.7  976.3  979.7  979.9  987.5 1021.1 1048.9 1065.3 1079.5 1089.3
  1097.0 1139.8 1145.0 1154.2 1154.9 1164.3 1173.6 1177.4 1184.7 1195.7
  1196.1 1202.6 1223.4 1233.3 1243.4 1253.9 1264.0 1295.4 1307.0 1313.7
  1328.4 1344.1 1350.2 1354.5 1365.2 1372.4 1382.9 1387.7 1391.9 1396.7
  1405.6 1422.0 1436.0 1463.7 1468.2 1472.1 1481.7 1482.3 1482.5 1493.2
  1507.6 1524.0 1528.4 1529.5 1561.9 1572.0 1575.6 1591.0 1608.9 1617.0
  1626.5 1631.3 1643.5 1664.5 1685.0 1701.1 1721.8 3021.7 3027.3 3080.0
  3083.0 3104.0 3129.5 3138.5 3151.4 3164.1 3176.6 3181.8 3182.0 3189.4
  3189.6 3199.2 3199.5 3200.5 3202.0 3211.6 3211.9
 at 99999: n3=         177
 symm operator            1 :  F  nop=           0
 symm operator            2 :  F  nop=           0
 symm operator            3 :  F  nop=           0
 symm operator            4 :  F  nop=           0
 symm operator            5 :  F  nop=           0
 symm operator            6 :  F  nop=           0
 symm operator            7 :  F  nop=           0
 The point group of the molecule is  C1
 Symmetry rotation matrix:
   1.00000   0.00000   0.00000
   0.00000   1.00000   0.00000
   0.00000   0.00000   1.00000

 Projecting out zero-frequency components
 generating redundant internal coords
         300        3600          59
 search for int coords
   1 str   2   1   1.534
   2 str   3   2   1.534
   3 str   4   2   1.488
   4 str   5   4   1.407
   5 str   6   5   1.231
   6 str   7   5   1.463
   7 str   8   7   1.399
   8 str   9   8   1.380
   9 str  10   9   1.415
  10 str  11  10   1.448
  11 str  12  11   1.415
  12 str  13  12   1.379
  13 str  14  13   1.400
  14 str  15  14   1.461
  15 str  16  15   1.225
  16 str  17  15   1.420
  17 str  18  17   1.440
  18 str  19  18   1.393
  19 str  20  19   1.392
  20 str  21  20   1.393
  21 str  22  21   1.393
  22 str  23  18   1.393
  23 str  23  22   1.392
  24 str  24  17   1.420
  25 str  25  24   1.225
  26 str  26  24   1.461
  27 str  27  26   1.400
  28 str  28  27   1.379
  29 str  29  28   1.415
  30 str  30  29   1.447
  31 str  31  30   1.415
  32 str  32  31   1.379
  33 str  33  32   1.400
  34 str  34   4   1.416
  35 str  34  33   1.462
  36 str  35  34   1.229
  37 str  36   7   1.413
  38 str  36  33   1.413
  39 str  37  10   1.429
  40 str  37  30   1.429
  41 str  37  36   1.436
  42 str  38  11   1.430
  43 str  38  29   1.430
  44 str  39  14   1.415
  45 str  39  26   1.415
  46 str  39  38   1.437
  47 str  40   1   1.095
  48 str  41   1   1.089
  49 str  42   1   1.093
  50 str  43   2   1.088
  51 str  44   3   1.089
  52 str  45   3   1.095
  53 str  46   3   1.093
  54 str  47   8   1.083
  55 str  48   9   1.081
  56 str  49  12   1.081
  57 str  50  13   1.083
  58 str  51  19   1.082
  59 str  52  20   1.085
  60 str  53  21   1.085
  61 str  54  22   1.085
  62 str  55  23   1.082
  63 str  56  27   1.083
  64 str  57  28   1.081
  65 str  58  31   1.081
  66 str  59  32   1.083
 nber stretches=          66
  67 ben   1   2   3
  68 prop tor   1   2   3  44
  69 prop tor   1   2   3  45
  70 prop tor   1   2   3  46
  71 ben   1   2   4
  72 prop tor   1   2   4   5
  73 prop tor   1   2   4  34
  74 ben   1   2  43
  75 ben   2   1  40
  76 ben   2   1  41
  77 ben   2   1  42
  78 ben   2   3  44
  79 ben   2   3  45
  80 ben   2   3  46
  81 ben   2   4   5
  82 prop tor   2   4   5   6
  83 prop tor   2   4   5   7
  84 ben   2   4  34
  85 prop tor   2   4  34  33
  86 prop tor   2   4  34  35
  87 ben   3   2   4
  88 prop tor   3   2   4   5
  89 prop tor   3   2   4  34
  90 ben   3   2  43
  91 prop tor   4   2   3  44
  92 prop tor   4   2   3  45
  93 prop tor   4   2   3  46
  94 ben   4   2  43
  95 ben   4   5   6
  96 ben   4   5   7
  97 prop tor   4   5   7   8
  98 prop tor   4   5   7  36
  99 ben   4  34  33
 100 ben   4  34  35
 101 ben   5   4  34
 102 prop tor   5   4  34  33
 103 prop tor   5   4  34  35
 104 ben   5   7   8
 105 prop tor   5   7   8   9
 106 prop tor   5   7   8  47
 107 ben   5   7  36
 108 prop tor   5   7  36  33
 109 prop tor   5   7  36  37
 110 ben   6   5   7
 111 prop tor   6   5   7   8
 112 prop tor   6   5   7  36
 113 ben   7   8   9
 114 prop tor   7   8   9  10
 115 prop tor   7   8   9  48
 116 ben   7   8  47
 117 ben   7  36  33
 118 ben   7  36  37
 119 prop tor   7  36  37  10
 120 prop tor   7  36  37  30
 121 ben   8   7  36
 122 prop tor   8   7  36  33
 123 prop tor   8   7  36  37
 124 ben   8   9  10
 125 prop tor   8   9  10  11
 126 prop tor   8   9  10  37
 127 ben   8   9  48
 128 ben   9   8  47
 129 ben   9  10  11
 130 prop tor   9  10  11  12
 131 prop tor   9  10  11  38
 132 ben   9  10  37
 133 prop tor   9  10  37  30
 134 prop tor   9  10  37  36
 135 ben  10   9  48
 136 ben  10  11  12
 137 prop tor  10  11  12  13
 138 prop tor  10  11  12  49
 139 ben  10  11  38
 140 prop tor  10  11  38  29
 141 prop tor  10  11  38  39
 142 ben  10  37  30
 143 ben  10  37  36
 144 ben  11  10  37
 145 prop tor  11  10  37  30
 146 prop tor  11  10  37  36
 147 ben  11  12  13
 148 prop tor  11  12  13  14
 149 prop tor  11  12  13  50
 150 ben  11  12  49
 151 ben  11  38  29
 152 ben  11  38  39
 153 prop tor  11  38  39  14
 154 prop tor  11  38  39  26
 155 ben  12  11  38
 156 prop tor  12  11  38  29
 157 prop tor  12  11  38  39
 158 ben  12  13  14
 159 prop tor  12  13  14  15
 160 prop tor  12  13  14  39
 161 ben  12  13  50
 162 ben  13  12  49
 163 ben  13  14  15
 164 prop tor  13  14  15  16
 165 prop tor  13  14  15  17
 166 ben  13  14  39
 167 prop tor  13  14  39  26
 168 prop tor  13  14  39  38
 169 ben  14  13  50
 170 ben  14  15  16
 171 ben  14  15  17
 172 prop tor  14  15  17  18
 173 prop tor  14  15  17  24
 174 ben  14  39  26
 175 ben  14  39  38
 176 ben  15  14  39
 177 prop tor  15  14  39  26
 178 prop tor  15  14  39  38
 179 ben  15  17  18
 180 prop tor  15  17  18  19
 181 prop tor  15  17  18  23
 182 ben  15  17  24
 183 prop tor  15  17  24  25
 184 prop tor  15  17  24  26
 185 ben  16  15  17
 186 prop tor  16  15  17  18
 187 prop tor  16  15  17  24
 188 ben  17  18  19
 189 prop tor  17  18  19  20
 190 prop tor  17  18  19  51
 191 ben  17  18  23
 192 prop tor  17  18  23  22
 193 prop tor  17  18  23  55
 194 ben  17  24  25
 195 ben  17  24  26
 196 prop tor  17  24  26  27
 197 prop tor  17  24  26  39
 198 ben  18  17  24
 199 prop tor  18  17  24  25
 200 prop tor  18  17  24  26
 201 ben  18  19  20
 202 prop tor  18  19  20  21
 203 prop tor  18  19  20  52
 204 ben  18  19  51
 205 ben  18  23  22
 206 ben  18  23  55
 207 ben  19  18  23
 208 prop tor  19  18  23  22
 209 prop tor  19  18  23  55
 210 ben  19  20  21
 211 prop tor  19  20  21  22
 212 prop tor  19  20  21  53
 213 ben  19  20  52
 214 ben  20  19  51
 215 ben  20  21  22
 216 prop tor  20  21  22  23
 217 prop tor  20  21  22  54
 218 ben  20  21  53
 219 ben  21  20  52
 220 ben  21  22  23
 221 prop tor  21  22  23  18
 222 prop tor  21  22  23  55
 223 ben  21  22  54
 224 ben  22  21  53
 225 ben  22  23  55
 226 prop tor  23  18  19  20
 227 prop tor  23  18  19  51
 228 ben  23  22  54
 229 prop tor  24  17  18  19
 230 prop tor  24  17  18  23
 231 ben  24  26  27
 232 prop tor  24  26  27  28
 233 prop tor  24  26  27  56
 234 ben  24  26  39
 235 prop tor  24  26  39  14
 236 prop tor  24  26  39  38
 237 ben  25  24  26
 238 prop tor  25  24  26  27
 239 prop tor  25  24  26  39
 240 ben  26  27  28
 241 prop tor  26  27  28  29
 242 prop tor  26  27  28  57
 243 ben  26  27  56
 244 ben  26  39  38
 245 ben  27  26  39
 246 prop tor  27  26  39  14
 247 prop tor  27  26  39  38
 248 ben  27  28  29
 249 prop tor  27  28  29  30
 250 prop tor  27  28  29  38
 251 ben  27  28  57
 252 ben  28  27  56
 253 ben  28  29  30
 254 prop tor  28  29  30  31
 255 prop tor  28  29  30  37
 256 ben  28  29  38
 257 prop tor  28  29  38  11
 258 prop tor  28  29  38  39
 259 ben  29  28  57
 260 ben  29  30  31
 261 prop tor  29  30  31  32
 262 prop tor  29  30  31  58
 263 ben  29  30  37
 264 prop tor  29  30  37  10
 265 prop tor  29  30  37  36
 266 ben  29  38  39
 267 prop tor  29  38  39  14
 268 prop tor  29  38  39  26
 269 ben  30  29  38
 270 prop tor  30  29  38  11
 271 prop tor  30  29  38  39
 272 ben  30  31  32
 273 prop tor  30  31  32  33
 274 prop tor  30  31  32  59
 275 ben  30  31  58
 276 ben  30  37  36
 277 ben  31  30  37
 278 prop tor  31  30  37  10
 279 prop tor  31  30  37  36
 280 ben  31  32  33
 281 prop tor  31  32  33  34
 282 prop tor  31  32  33  36
 283 ben  31  32  59
 284 ben  32  31  58
 285 ben  32  33  34
 286 prop tor  32  33  34   4
 287 prop tor  32  33  34  35
 288 ben  32  33  36
 289 prop tor  32  33  36   7
 290 prop tor  32  33  36  37
 291 ben  33  32  59
 292 ben  33  34  35
 293 ben  33  36  37
 294 prop tor  33  36  37  10
 295 prop tor  33  36  37  30
 296 prop tor  34   4   5   6
 297 prop tor  34   4   5   7
 298 ben  34  33  36
 299 prop tor  34  33  36   7
 300 prop tor  34  33  36  37
 301 prop tor  36   7   8   9
 302 prop tor  36   7   8  47
 303 prop tor  36  33  34   4
 304 prop tor  36  33  34  35
 305 prop tor  37  10  11  12
 306 prop tor  37  10  11  38
 307 prop tor  37  30  31  32
 308 prop tor  37  30  31  58
 309 prop tor  38  11  12  13
 310 prop tor  38  11  12  49
 311 prop tor  38  29  30  31
 312 prop tor  38  29  30  37
 313 prop tor  39  14  15  16
 314 prop tor  39  14  15  17
 315 prop tor  39  26  27  28
 316 prop tor  39  26  27  56
 317 prop tor  40   1   2   3
 318 prop tor  40   1   2   4
 319 prop tor  40   1   2  43
 320 ben  40   1  41
 321 ben  40   1  42
 322 prop tor  41   1   2   3
 323 prop tor  41   1   2   4
 324 prop tor  41   1   2  43
 325 ben  41   1  42
 326 prop tor  42   1   2   3
 327 prop tor  42   1   2   4
 328 prop tor  42   1   2  43
 329 prop tor  43   2   3  44
 330 prop tor  43   2   3  45
 331 prop tor  43   2   3  46
 332 prop tor  43   2   4   5
 333 prop tor  43   2   4  34
 334 ben  44   3  45
 335 ben  44   3  46
 336 ben  45   3  46
 337 prop tor  47   8   9  10
 338 prop tor  47   8   9  48
 339 prop tor  48   9  10  11
 340 prop tor  48   9  10  37
 341 prop tor  49  12  13  14
 342 prop tor  49  12  13  50
 343 prop tor  50  13  14  15
 344 prop tor  50  13  14  39
 345 prop tor  51  19  20  21
 346 prop tor  51  19  20  52
 347 prop tor  52  20  21  22
 348 prop tor  52  20  21  53
 349 prop tor  53  21  22  23
 350 prop tor  53  21  22  54
 351 prop tor  54  22  23  18
 352 prop tor  54  22  23  55
 353 prop tor  56  27  28  29
 354 prop tor  56  27  28  57
 355 prop tor  57  28  29  30
 356 prop tor  57  28  29  38
 357 prop tor  58  31  32  33
 358 prop tor  58  31  32  59
 359 prop tor  59  32  33  34
 360 prop tor  59  32  33  36
 nber bend=             114
 nber lin bend=           0
 nber prop tor=         180
 nber impr tor=           0
 nber tot redund int=         360
 Eigenvalues of G in red int coords
    Gval -0.00000000 -0.00000000 -0.00000000 -0.00000000 -0.00000000 -0.00000000 -0.00000000 -0.00000000
    Gval -0.00000000 -0.00000000 -0.00000000 -0.00000000 -0.00000000 -0.00000000 -0.00000000 -0.00000000
    Gval -0.00000000 -0.00000000 -0.00000000 -0.00000000 -0.00000000 -0.00000000 -0.00000000 -0.00000000
    Gval -0.00000000 -0.00000000 -0.00000000 -0.00000000 -0.00000000 -0.00000000 -0.00000000 -0.00000000
    Gval -0.00000000 -0.00000000 -0.00000000 -0.00000000 -0.00000000 -0.00000000 -0.00000000 -0.00000000
    Gval -0.00000000 -0.00000000 -0.00000000 -0.00000000 -0.00000000 -0.00000000 -0.00000000 -0.00000000
    Gval -0.00000000 -0.00000000 -0.00000000 -0.00000000 -0.00000000 -0.00000000 -0.00000000 -0.00000000
    Gval -0.00000000 -0.00000000 -0.00000000 -0.00000000 -0.00000000 -0.00000000 -0.00000000 -0.00000000
    Gval -0.00000000 -0.00000000 -0.00000000 -0.00000000 -0.00000000 -0.00000000 -0.00000000 -0.00000000
    Gval -0.00000000 -0.00000000 -0.00000000 -0.00000000 -0.00000000 -0.00000000 -0.00000000 -0.00000000
    Gval -0.00000000 -0.00000000 -0.00000000 -0.00000000 -0.00000000 -0.00000000 -0.00000000 -0.00000000
    Gval -0.00000000 -0.00000000 -0.00000000 -0.00000000 -0.00000000 -0.00000000  0.00000000  0.00000000
    Gval  0.00000000  0.00000000  0.00000000  0.00000000  0.00000000  0.00000000  0.00000000  0.00000000
    Gval  0.00000000  0.00000000  0.00000000  0.00000000  0.00000000  0.00000000  0.00000000  0.00000000
    Gval  0.00000000  0.00000000  0.00000000  0.00000000  0.00000000  0.00000000  0.00000000  0.00000000
    Gval  0.00000000  0.00000000  0.00000000  0.00000000  0.00000000  0.00000000  0.00000000  0.00000000
    Gval  0.00000000  0.00000000  0.00000000  0.00000000  0.00000000  0.00000000  0.00000000  0.00000000
[...]
 nber times 1st assigned=         127           0
 nber times 1st assigned=         128           0
 nber times 1st assigned=         129           0
 nber times 1st assigned=         130           0
 nber times 1st assigned=         131           0
 nber times 1st assigned=         132           0
 nber times 1st assigned=         133           0
 nber times 1st assigned=         134           0
 nber times 1st assigned=         135           0
 nber times 1st assigned=         136           0
 nber times 1st assigned=         137           0
 nber times 1st assigned=         138           0
 nber times 1st assigned=         139           0
 nber times 1st assigned=         140           0
 nber times 1st assigned=         141           0
 nber times 1st assigned=         142           0
 nber times 1st assigned=         143           0
 nber times 1st assigned=         144           0
 nber times 1st assigned=         145           0
 nber times 1st assigned=         146           0
 nber times 1st assigned=         147           0
 nber times 1st assigned=         148           0
 nber times 1st assigned=         149           0
 nber times 1st assigned=         150           0
 nber times 1st assigned=         151           0
 nber times 1st assigned=         152           0
 nber times 1st assigned=         153           0
 nber times 1st assigned=         154           0
 nber times 1st assigned=         155           0
 nber times 1st assigned=         156           0
 nber times 1st assigned=         157           0
 nber times 1st assigned=         158           0
 nber times 1st assigned=         159           0
 nber times 1st assigned=         160           0
 nber times 1st assigned=         161           0
 nber times 1st assigned=         162           0
 nber times 1st assigned=         163           0
 nber times 1st assigned=         164           0
 nber times 1st assigned=         165           0
 nber times 1st assigned=         166           0
 nber times 1st assigned=         167           0
 nber times 1st assigned=         168           0
 nber times 1st assigned=         169           0
 nber times 1st assigned=         170           0
 nber times 1st assigned=         171           0
 nber times 1st assigned=         172           0
 nber times 1st assigned=         173           0
 nber times 1st assigned=         174           0
 nber times 1st assigned=         175           0
 nber times 1st assigned=         176           0
 nber times 1st assigned=         177           0
 modes represented=   348.268943849034     
 p1=
   -0.    0.    0.    0.   -0.   -0. 1027.   36.   30.    8.    1.   -2.   -2.    2.    2.   -0.    0.    1.   -0.   -0.
    0.   -0.   -0.   -0.    0.    1.   -2.   -1.   -1.    1.   -1.    8.    0.    1.   -1.    1.   -2.    4.   -5.    2.
   -0.   -0.   -0.    1.    2.   -0.    1.    0.   -1.   -0.    0.    2.    0.    0.    2.   -0.    0.    0.   -0.   -3.
    0.    0.    0.   -0.    0.    0.    1.    0.    1.    0.   -0.   -0.   -0.   -0.    1.   -0.    1.   -0.   -0.   -0.
    2.    2.    1.    1.   -1.    0.    0.   -0.    0.   -1.   -0.    0.   -0.    0.    0.    0.   -0.    0.    1.   -0.
    0.   -0.   -0.    1.   -1.   -0.    0.   -0.    0.    0.    0.    0.   -1.    0.   -0.   -0.   -1.    2.    1.   -0.
   -0.   -0.    0.    0.    0.   -2.    0.    0.   -0.   -0.    0.    0.    1.    0.    0.   -0.   -0.    0.    0.    0.
    0.   -0.   -0.    0.   -0.   -1.   -0.   -0.   -0.   -0.   -0.   -0.    0.    0.   -0.   -1.   -1.   -0.    0.   -0.
    0.   -0.   -0.   -0.    0.    0.   -0.    0.   -0.   -0.    0.    0.    0.   -0.    0.    0.   -0.
 p2=
    0.    0.    0.   -0.   -0.   -0.  -51. -607.  806.  164.   14.  -37.   15.  -45.   12.   -1.   -2.    3.   33.    0.
   -3.    4.   -8.   -2.   -6.    1.  -31.    1.   10.    2.    2.   24.   -0.    1.   -6.  -20.   -2.    7.    0.    0.
    0.   -1.    0.    5.    9.   -0.    0.   -5.   -1.    0.    0.   -1.    0.   -2.    0.    0.   -0.   -0.   -1.    0.
    0.    0.   -0.   -0.    0.    0.    0.    0.    0.    0.   -0.   -0.   -1.    0.   -0.   -0.   -0.   -0.    0.   -3.
    4.    1.    0.    0.    0.    0.    0.   -3.    0.   -0.   -0.    0.    0.   -0.    1.    1.   -2.    0.    1.   -1.
    0.    0.    0.   -0.   -0.    0.   -0.    0.    0.   -1.    3.   -0.   -0.   -1.   -0.   -0.   -1.   -2.   -3.   -0.
   -0.    2.    0.   -0.   -1.   -3.   -0.    0.    0.   -0.   -0.    1.   -2.    1.   -0.   -0.   -0.   -0.    0.   -0.
    0.   -0.   -1.    0.   -0.    1.    0.   -0.    0.    1.   -1.    0.    1.   -0.   -0.    1.    3.    0.    0.    0.
    0.   -0.    0.   -0.   -0.    0.    0.    0.   -0.   -0.   -0.   -0.   -0.    0.   -1.    0.   -0.

 Displacement: in terms of nc of 1 THEN of nc of 2

   1     freq=    -0. Q= -0.000 lam=    -0.0     freq=    -0. Q= -0.000 lam=    -0.0
   2     freq=    -0. Q=  0.000 lam=    -0.0     freq=    -0. Q=  0.000 lam=    -0.0
   3     freq=     0. Q=  0.000 lam=     0.0     freq=    -0. Q=  0.000 lam=    -0.0
   4     freq=     0. Q=  0.000 lam=     0.0     freq=    -0. Q=  0.000 lam=    -0.0
   5     freq=     0. Q= -0.000 lam=     0.0     freq=     0. Q= -0.000 lam=     0.0
   6     freq=     0. Q= -0.000 lam=     0.0     freq=     0. Q= -0.000 lam=     0.0
   7     freq=     7. Q= 11.257 lam=   467.4     freq=    17. Q=  0.838 lam=     5.8
   8     freq=    16. Q=  0.590 lam=     2.9     freq=    23. Q= 11.791 lam=  1613.2
   9     freq=    29. Q=  0.656 lam=     6.2     freq=    34. Q= 18.821 lam=  5937.5
  10     freq=    36. Q=  0.187 lam=     0.6     freq=    35. Q=  3.928 lam=   272.9
  11     freq=    53. Q=  0.023 lam=     0.0     freq=    58. Q=  0.443 lam=     5.7
  12     freq=    56. Q= -0.067 lam=     0.1     freq=    59. Q= -1.145 lam=    38.7
  13     freq=    63. Q= -0.054 lam=     0.1     freq=    64. Q= -0.492 lam=     7.7
  14     freq=    77. Q=  0.072 lam=     0.2     freq=    81. Q=  1.624 lam=   107.2
  15     freq=    90. Q=  0.062 lam=     0.2     freq=    93. Q=  0.484 lam=    10.8
  16     freq=   102. Q= -0.015 lam=     0.0     freq=   104. Q= -0.061 lam=     0.2
  17     freq=   113. Q=  0.017 lam=     0.0     freq=   118. Q=  0.094 lam=     0.5
  18     freq=   130. Q=  0.031 lam=     0.1     freq=   143. Q=  0.137 lam=     1.3
  19     freq=   163. Q= -0.006 lam=     0.0     freq=   165. Q= -1.719 lam=   243.8
  20     freq=   168. Q= -0.009 lam=     0.0     freq=   171. Q= -0.012 lam=     0.0
  21     freq=   184. Q=  0.000 lam=     0.0     freq=   193. Q=  0.158 lam=     2.4
  22     freq=   196. Q= -0.014 lam=     0.0     freq=   198. Q= -0.230 lam=     5.2
  23     freq=   198. Q= -0.009 lam=     0.0     freq=   202. Q= -0.484 lam=    23.7
  24     freq=   213. Q= -0.005 lam=     0.0     freq=   217. Q= -0.098 lam=     1.0
  25     freq=   234. Q=  0.014 lam=     0.0     freq=   233. Q=  0.371 lam=    16.1
  26     freq=   235. Q=  0.037 lam=     0.2     freq=   235. Q=  0.045 lam=     0.2
  27     freq=   249. Q= -0.126 lam=     2.0     freq=   253. Q= -1.985 lam=   499.4
  28     freq=   257. Q= -0.037 lam=     0.2     freq=   265. Q= -0.078 lam=     0.8
  29     freq=   262. Q= -0.077 lam=     0.8     freq=   268. Q= -0.686 lam=    63.2
  30     freq=   293. Q=  0.065 lam=     0.6     freq=   299. Q=  0.154 lam=     3.5
  31     freq=   303. Q= -0.055 lam=     0.5     freq=   301. Q= -0.127 lam=     2.4
  32     freq=   306. Q=  0.561 lam=    48.1     freq=   309. Q=  1.717 lam=   455.9
  33     freq=   324. Q=  0.003 lam=     0.0     freq=   343. Q=  0.003 lam=     0.0
  34     freq=   352. Q=  0.043 lam=     0.3     freq=   360. Q=  0.079 lam=     1.1
  35     freq=   390. Q= -0.054 lam=     0.6     freq=   393. Q= -0.476 lam=    44.5
  36     freq=   392. Q=  0.101 lam=     2.0     freq=   396. Q=  1.588 lam=   499.7
  37     freq=   417. Q= -0.163 lam=     5.5     freq=   418. Q= -0.195 lam=     7.9
  38     freq=   419. Q=  0.355 lam=    26.4     freq=   419. Q=  0.537 lam=    60.5
  39     freq=   432. Q= -0.398 lam=    34.1     freq=   431. Q= -0.004 lam=     0.0
  40     freq=   437. Q=  0.168 lam=     6.2     freq=   435. Q=  0.019 lam=     0.1
  41     freq=   439. Q= -0.041 lam=     0.4     freq=   442. Q= -0.017 lam=     0.1
  42     freq=   440. Q= -0.007 lam=     0.0     freq=   445. Q= -0.092 lam=     1.9
  43     freq=   448. Q= -0.003 lam=     0.0     freq=   454. Q= -0.003 lam=     0.0
  44     freq=   463. Q=  0.069 lam=     1.1     freq=   466. Q=  0.411 lam=    39.4
  45     freq=   478. Q=  0.170 lam=     6.9     freq=   475. Q=  0.757 lam=   136.3
  46     freq=   487. Q= -0.001 lam=     0.0     freq=   501. Q= -0.045 lam=     0.5
  47     freq=   500. Q=  0.046 lam=     0.5     freq=   505. Q=  0.005 lam=     0.0
  48     freq=   502. Q=  0.001 lam=     0.0     freq=   511. Q=  0.498 lam=    63.4
  49     freq=   506. Q= -0.046 lam=     0.5     freq=   511. Q= -0.073 lam=     1.3
  50     freq=   515. Q= -0.044 lam=     0.5     freq=   517. Q= -0.034 lam=     0.3
  51     freq=   520. Q=  0.003 lam=     0.0     freq=   527. Q=  0.004 lam=     0.0
  52     freq=   545. Q=  0.153 lam=     6.4     freq=   543. Q=  0.110 lam=     3.3
  53     freq=   573. Q=  0.000 lam=     0.0     freq=   579. Q=  0.004 lam=     0.0
  54     freq=   574. Q=  0.007 lam=     0.0     freq=   582. Q=  0.184 lam=     9.8
  55     freq=   578. Q=  0.207 lam=    12.4     freq=   592. Q=  0.001 lam=     0.0
  56     freq=   605. Q= -0.024 lam=     0.2     freq=   623. Q= -0.032 lam=     0.3
  57     freq=   615. Q=  0.017 lam=     0.1     freq=   625. Q=  0.015 lam=     0.1
  58     freq=   631. Q=  0.000 lam=     0.0     freq=   634. Q=  0.002 lam=     0.0
  59     freq=   639. Q= -0.000 lam=     0.0     freq=   648. Q= -0.142 lam=     6.5
  60     freq=   645. Q= -0.257 lam=    21.3     freq=   656. Q= -0.001 lam=     0.0
  61     freq=   653. Q=  0.005 lam=     0.0     freq=   664. Q=  0.043 lam=     0.6
  62     freq=   677. Q=  0.002 lam=     0.0     freq=   702. Q=  0.000 lam=     0.0
  63     freq=   705. Q=  0.007 lam=     0.0     freq=   711. Q=  0.015 lam=     0.1
  64     freq=   707. Q= -0.003 lam=     0.0     freq=   714. Q= -0.014 lam=     0.1
  65     freq=   707. Q=  0.029 lam=     0.3     freq=   729. Q=  0.034 lam=     0.4
  66     freq=   712. Q=  0.005 lam=     0.0     freq=   745. Q=  0.001 lam=     0.0
  67     freq=   725. Q=  0.145 lam=     7.6     freq=   748. Q=  0.004 lam=     0.0
  68     freq=   753. Q=  0.054 lam=     1.1     freq=   756. Q=  0.054 lam=     1.1
  69     freq=   760. Q=  0.061 lam=     1.4     freq=   763. Q=  0.009 lam=     0.0
  70     freq=   761. Q=  0.024 lam=     0.2     freq=   766. Q=  0.041 lam=     0.6
  71     freq=   762. Q= -0.007 lam=     0.0     freq=   783. Q= -0.002 lam=     0.0
  72     freq=   772. Q= -0.001 lam=     0.0     freq=   803. Q= -0.042 lam=     0.7
  73     freq=   800. Q= -0.028 lam=     0.3     freq=   803. Q= -0.077 lam=     2.4
  74     freq=   812. Q= -0.005 lam=     0.0     freq=   809. Q= -0.025 lam=     0.3
  75     freq=   813. Q=  0.097 lam=     3.8     freq=   815. Q=  0.013 lam=     0.1
  76     freq=   815. Q= -0.037 lam=     0.5     freq=   817. Q= -0.003 lam=     0.0
  77     freq=   822. Q=  0.101 lam=     4.2     freq=   823. Q=  0.043 lam=     0.8
  78     freq=   829. Q= -0.000 lam=     0.0     freq=   828. Q= -0.040 lam=     0.7
  79     freq=   832. Q= -0.041 lam=     0.7     freq=   831. Q= -0.003 lam=     0.0
  80     freq=   836. Q= -0.016 lam=     0.1     freq=   836. Q= -0.378 lam=    59.9
  81     freq=   846. Q=  0.270 lam=    31.0     freq=   839. Q=  0.509 lam=   108.6
  82     freq=   858. Q=  0.247 lam=    26.2     freq=   860. Q=  0.093 lam=     3.7
  83     freq=   900. Q=  0.065 lam=     1.9     freq=   900. Q=  0.029 lam=     0.4
  84     freq=   919. Q=  0.095 lam=     4.1     freq=   920. Q=  0.041 lam=     0.8
  85     freq=   928. Q= -0.063 lam=     1.9     freq=   931. Q= -0.050 lam=     1.1
  86     freq=   942. Q=  0.004 lam=     0.0     freq=   942. Q=  0.001 lam=     0.0
  87     freq=   945. Q=  0.001 lam=     0.0     freq=   954. Q=  0.001 lam=     0.0
  88     freq=   957. Q= -0.000 lam=     0.0     freq=   962. Q= -0.436 lam=    91.3
  89     freq=   974. Q=  0.010 lam=     0.0     freq=   964. Q=  0.007 lam=     0.0
  90     freq=   976. Q= -0.127 lam=     7.8     freq=   967. Q= -0.001 lam=     0.0
  91     freq=   976. Q= -0.003 lam=     0.0     freq=   974. Q= -0.043 lam=     0.9
  92     freq=   978. Q=  0.034 lam=     0.6     freq=   976. Q=  0.004 lam=     0.0
  93     freq=   988. Q= -0.007 lam=     0.0     freq=   980. Q= -0.007 lam=     0.0
  94     freq=   988. Q=  0.005 lam=     0.0     freq=   980. Q=  0.001 lam=     0.0
  95     freq=  1002. Q=  0.001 lam=     0.0     freq=   987. Q=  0.093 lam=     4.2
  96     freq=  1021. Q=  0.032 lam=     0.5     freq=  1021. Q=  0.095 lam=     4.6
  97     freq=  1048. Q= -0.036 lam=     0.7     freq=  1049. Q= -0.247 lam=    32.1
  98     freq=  1061. Q=  0.031 lam=     0.5     freq=  1065. Q=  0.045 lam=     1.1
  99     freq=  1084. Q=  0.164 lam=    14.5     freq=  1079. Q=  0.133 lam=     9.6
 100     freq=  1095. Q= -0.008 lam=     0.0     freq=  1089. Q= -0.079 lam=     3.4
 101     freq=  1100. Q=  0.004 lam=     0.0     freq=  1097. Q=  0.002 lam=     0.0
 102     freq=  1135. Q= -0.012 lam=     0.1     freq=  1140. Q= -0.002 lam=     0.0
 103     freq=  1155. Q= -0.000 lam=     0.0     freq=  1145. Q= -0.007 lam=     0.0
 104     freq=  1157. Q=  0.095 lam=     5.2     freq=  1154. Q=  0.000 lam=     0.0
 105     freq=  1164. Q= -0.106 lam=     6.6     freq=  1155. Q= -0.066 lam=     2.5
 106     freq=  1165. Q= -0.036 lam=     0.8     freq=  1164. Q= -0.022 lam=     0.3
 107     freq=  1178. Q=  0.010 lam=     0.1     freq=  1174. Q=  0.008 lam=     0.0
 108     freq=  1183. Q= -0.001 lam=     0.0     freq=  1177. Q= -0.000 lam=     0.0
 109     freq=  1186. Q=  0.016 lam=     0.1     freq=  1185. Q=  0.008 lam=     0.0
 110     freq=  1195. Q=  0.028 lam=     0.5     freq=  1196. Q=  0.113 lam=     7.7
 111     freq=  1196. Q=  0.010 lam=     0.1     freq=  1196. Q=  0.425 lam=   107.9
 112     freq=  1206. Q=  0.008 lam=     0.0     freq=  1203. Q=  0.007 lam=     0.0
 113     freq=  1224. Q= -0.077 lam=     3.6     freq=  1223. Q= -0.064 lam=     2.5
 114     freq=  1233. Q=  0.032 lam=     0.6     freq=  1233. Q=  0.081 lam=     4.0
 115     freq=  1242. Q= -0.001 lam=     0.0     freq=  1243. Q= -0.001 lam=     0.0
 116     freq=  1252. Q= -0.006 lam=     0.0     freq=  1254. Q= -0.003 lam=     0.0
 117     freq=  1261. Q= -0.078 lam=     3.9     freq=  1264. Q= -0.185 lam=    21.6
 118     freq=  1299. Q=  0.218 lam=    30.9     freq=  1295. Q=  0.273 lam=    48.4
 119     freq=  1316. Q=  0.087 lam=     5.0     freq=  1307. Q=  0.371 lam=    90.1
 120     freq=  1319. Q= -0.011 lam=     0.1     freq=  1314. Q= -0.031 lam=     0.6
 121     freq=  1326. Q= -0.003 lam=     0.0     freq=  1328. Q= -0.003 lam=     0.0
 122     freq=  1348. Q= -0.004 lam=     0.0     freq=  1344. Q= -0.322 lam=    69.9
 123     freq=  1350. Q=  0.008 lam=     0.0     freq=  1350. Q=  0.008 lam=     0.0
 124     freq=  1359. Q=  0.025 lam=     0.4     freq=  1354. Q=  0.009 lam=     0.1
 125     freq=  1366. Q=  0.004 lam=     0.0     freq=  1365. Q=  0.125 lam=    10.7
 126     freq=  1381. Q= -0.274 lam=    51.8     freq=  1372. Q= -0.411 lam=   116.0
 127     freq=  1382. Q=  0.004 lam=     0.0     freq=  1383. Q=  0.001 lam=     0.0
 128     freq=  1392. Q=  0.013 lam=     0.1     freq=  1388. Q=  0.004 lam=     0.0
 129     freq=  1400. Q= -0.000 lam=     0.0     freq=  1392. Q= -0.031 lam=     0.7
 130     freq=  1404. Q= -0.007 lam=     0.0     freq=  1397. Q= -0.000 lam=     0.0
 131     freq=  1416. Q=  0.056 lam=     2.2     freq=  1406. Q=  0.049 lam=     1.7
 132     freq=  1431. Q=  0.049 lam=     1.7     freq=  1422. Q=  0.128 lam=    11.7
 133     freq=  1440. Q=  0.129 lam=    11.9     freq=  1436. Q=  0.271 lam=    52.8
 134     freq=  1444. Q=  0.013 lam=     0.1     freq=  1464. Q=  0.103 lam=     7.7
 135     freq=  1461. Q=  0.009 lam=     0.1     freq=  1468. Q=  0.005 lam=     0.0
 136     freq=  1466. Q= -0.003 lam=     0.0     freq=  1472. Q= -0.001 lam=     0.0
 137     freq=  1485. Q= -0.000 lam=     0.0     freq=  1482. Q= -0.066 lam=     3.2
 138     freq=  1485. Q=  0.001 lam=     0.0     freq=  1482. Q=  0.001 lam=     0.0
 139     freq=  1492. Q=  0.048 lam=     1.7     freq=  1482. Q=  0.002 lam=     0.0
 140     freq=  1497. Q=  0.040 lam=     1.2     freq=  1493. Q=  0.036 lam=     0.9
 141     freq=  1505. Q=  0.000 lam=     0.0     freq=  1508. Q=  0.000 lam=     0.0
 142     freq=  1511. Q= -0.002 lam=     0.0     freq=  1524. Q= -0.019 lam=     0.3
 143     freq=  1523. Q= -0.026 lam=     0.5     freq=  1528. Q= -0.148 lam=    16.8
 144     freq=  1527. Q=  0.044 lam=     1.5     freq=  1529. Q=  0.011 lam=     0.1
 145     freq=  1546. Q= -0.018 lam=     0.2     freq=  1562. Q= -0.064 lam=     3.2
 146     freq=  1555. Q= -0.189 lam=    27.9     freq=  1572. Q= -0.240 lam=    45.1
 147     freq=  1570. Q= -0.004 lam=     0.0     freq=  1576. Q= -0.007 lam=     0.0
 148     freq=  1581. Q= -0.005 lam=     0.0     freq=  1591. Q= -0.007 lam=     0.0
 149     freq=  1599. Q= -0.003 lam=     0.0     freq=  1609. Q= -0.001 lam=     0.0
 150     freq=  1599. Q= -0.003 lam=     0.0     freq=  1617. Q= -0.118 lam=    11.3
 151     freq=  1622. Q= -0.030 lam=     0.7     freq=  1626. Q= -0.102 lam=     8.5
 152     freq=  1636. Q= -0.002 lam=     0.0     freq=  1631. Q= -0.002 lam=     0.0
 153     freq=  1643. Q=  0.018 lam=     0.3     freq=  1643. Q=  0.122 lam=    12.3
 154     freq=  1685. Q=  0.005 lam=     0.0     freq=  1664. Q=  0.007 lam=     0.0
 155     freq=  1707. Q= -0.000 lam=     0.0     freq=  1685. Q= -0.000 lam=     0.0
 156     freq=  1724. Q= -0.174 lam=    26.2     freq=  1701. Q= -0.099 lam=     8.4
 157     freq=  1742. Q= -0.228 lam=    45.5     freq=  1722. Q= -0.515 lam=   227.9
 158     freq=  3034. Q= -0.000 lam=     0.0     freq=  3022. Q= -0.000 lam=     0.0
 159     freq=  3038. Q=  0.017 lam=     0.4     freq=  3027. Q=  0.017 lam=     0.4
 160     freq=  3092. Q= -0.000 lam=     0.0     freq=  3080. Q= -0.000 lam=     0.0
 161     freq=  3095. Q=  0.014 lam=     0.3     freq=  3083. Q=  0.011 lam=     0.2
 162     freq=  3112. Q= -0.007 lam=     0.1     freq=  3104. Q= -0.008 lam=     0.1
 163     freq=  3133. Q= -0.000 lam=     0.0     freq=  3129. Q= -0.000 lam=     0.0
 164     freq=  3143. Q= -0.008 lam=     0.1     freq=  3138. Q= -0.006 lam=     0.1
 165     freq=  3165. Q=  0.005 lam=     0.0     freq=  3151. Q=  0.031 lam=     1.5
 166     freq=  3175. Q=  0.000 lam=     0.0     freq=  3164. Q=  0.000 lam=     0.0
 167     freq=  3184. Q= -0.013 lam=     0.3     freq=  3177. Q= -0.080 lam=    10.1
 168     freq=  3192. Q=  0.000 lam=     0.0     freq=  3182. Q=  0.001 lam=     0.0
 169     freq=  3197. Q= -0.004 lam=     0.0     freq=  3182. Q= -0.000 lam=     0.0
 170     freq=  3198. Q= -0.001 lam=     0.0     freq=  3189. Q= -0.004 lam=     0.0
 171     freq=  3198. Q=  0.000 lam=     0.0     freq=  3190. Q=  0.008 lam=     0.1
 172     freq=  3204. Q=  0.002 lam=     0.0     freq=  3199. Q=  0.001 lam=     0.0
 173     freq=  3205. Q=  0.008 lam=     0.1     freq=  3199. Q=  0.002 lam=     0.0
 174     freq=  3212. Q= -0.000 lam=     0.0     freq=  3200. Q= -0.000 lam=     0.0
 175     freq=  3213. Q=  0.000 lam=     0.0     freq=  3202. Q=  0.204 lam=    66.6
 176     freq=  3224. Q=  0.004 lam=     0.0     freq=  3211. Q=  0.002 lam=     0.0
 177     freq=  3224. Q= -0.017 lam=     0.5     freq=  3212. Q= -0.015 lam=     0.4

 total reorg energy (cm**-1, kcal/mol)=     1000.    11501.      2.86     32.88
 Nber of molecules processed=           2
