 Enter ifcurve (0=recti, 1=orth curvi, 2=apprx curvi, -1 = skip
 And atom ordering flag, 0= never changes, 1= use the first order thenceforth,
  2= deduce it (does read on fail), 3= always read it
 Reading file: 
 ./Benzene-bridges_3_C0S0.log                                                   
                                          
  Entering Gaussian System, Link 0=g16                                          
  
 Gaussian format, type: g94, g98, g03= F F F
  #P Geom=AllCheck Guess=TCheck SCRF=Check GenChk RB3LYP/6-311G(d,p) Fre    
 energy type= B3LYP   
 Original G94 input coords:
  6 -1.390528 -0.092320  0.454206
  6 -0.851138  1.126829  0.049126
  6  0.502308  1.227467 -0.258158
  6  1.347893  0.111733 -0.167024
  6  2.791528  0.219237 -0.494403
  6  3.538535  1.346798 -0.124523
  6  4.889744  1.447375 -0.430866
  6  5.556439  0.425083 -1.121300
  6  7.000028  0.532615 -1.448609
  6  7.558064  1.752859 -1.858213
  6  8.911629  1.853926 -2.164865
  6  9.738637  0.736634 -2.069564
  6  9.199156 -0.482461 -1.664439
  6  7.845660 -0.583077 -1.357309
  6  4.809407 -0.702464 -1.491203
  6  3.458201 -0.803051 -1.184859
  6  0.789964 -1.108580  0.242495
  6 -0.563559 -1.209654  0.549309
  1 -2.444973 -0.170881  0.693432
  1 -1.487654  2.000604 -0.036628
  1  0.905389  2.174966 -0.597275
  1  3.062364  2.139979  0.440653
  1  5.445342  2.317385 -0.099646
  1  6.919341  2.622722 -1.961230
  1  9.319440  2.805518 -2.487594
  1 10.793106  0.815192 -2.308665
  1  9.835598 -1.356276 -1.578538
  1  7.442596 -1.530589 -1.018189
  1  5.285531 -1.495532 -2.056584
  1  2.902544 -1.672935 -1.516301
  1  1.428730 -1.978429  0.345269
  1 -0.971404 -2.161256  0.871957
 nber atoms=          32
  SCF Done:  E(RB3LYP) =  -694.527753335     A.U. after    1 cycles             
  
          23          40 "  -694.527753335"
After scan for Atom:   Atom  AN      X      Y      Z        X      Y      Z        X      Y      Z   
After scan for Atom:   Atom  AN      X      Y      Z        X      Y      Z        X      Y      Z   
After scan for Atom:   Atom  AN      X      Y      Z        X      Y      Z        X      Y      Z   
After scan for Atom:   Atom  AN      X      Y      Z        X      Y      Z        X      Y      Z   
After scan for Atom:   Atom  AN      X      Y      Z        X      Y      Z        X      Y      Z   
After scan for Atom:   Atom  AN      X      Y      Z        X      Y      Z        X      Y      Z   
After scan for Atom:   Atom  AN      X      Y      Z        X      Y      Z        X      Y      Z   
After scan for Atom:   Atom  AN      X      Y      Z        X      Y      Z        X      Y      Z   
After scan for Atom:   Atom  AN      X      Y      Z        X      Y      Z        X      Y      Z   
After scan for Atom:   Atom  AN      X      Y      Z        X      Y      Z        X      Y      Z   
After scan for Atom:   Atom  AN      X      Y      Z        X      Y      Z        X      Y      Z   
After scan for Atom:   Atom  AN      X      Y      Z        X      Y      Z        X      Y      Z   
After scan for Atom:   Atom  AN      X      Y      Z        X      Y      Z        X      Y      Z   
After scan for Atom:   Atom  AN      X      Y      Z        X      Y      Z        X      Y      Z   
After scan for Atom:   Atom  AN      X      Y      Z        X      Y      Z        X      Y      Z   
After scan for Atom:   Atom  AN      X      Y      Z        X      Y      Z        X      Y      Z   
After scan for Atom:   Atom  AN      X      Y      Z        X      Y      Z        X      Y      Z   
After scan for Atom:   Atom  AN      X      Y      Z        X      Y      Z        X      Y      Z   
After scan for Atom:   Atom  AN      X      Y      Z        X      Y      Z        X      Y      Z   
After scan for Atom:   Atom  AN      X      Y      Z        X      Y      Z        X      Y      Z   
After scan for Atom:   Atom  AN      X      Y      Z        X      Y      Z        X      Y      Z   
After scan for Atom:   Atom  AN      X      Y      Z        X      Y      Z        X      Y      Z   
After scan for Atom:   Atom  AN      X      Y      Z        X      Y      Z        X      Y      Z   
After scan for Atom:   Atom  AN      X      Y      Z        X      Y      Z        X      Y      Z   
After scan for Atom:   Atom  AN      X      Y      Z        X      Y      Z        X      Y      Z   
After scan for Atom:   Atom  AN      X      Y      Z        X      Y      Z        X      Y      Z   
After scan for Atom:   Atom  AN      X      Y      Z        X      Y      Z        X      Y      Z   
After scan for Atom:   Atom  AN      X      Y      Z        X      Y      Z        X      Y      Z   
After scan for Atom:   Atom  AN      X      Y      Z        X      Y      Z        X      Y      Z   
After scan for Atom:   Atom  AN      X      Y      Z        X      Y      Z        X      Y      Z   
 g94    frequencies=
     0.0    0.0    0.0    0.0    0.0    0.0   38.5   46.8   69.0   80.6
   112.2  150.4  214.3  226.3  336.9  341.8  406.4  414.3  417.3  425.7
   458.7  497.9  543.3  581.9  628.1  631.4  635.8  656.6  713.2  714.1
   714.4  747.0  769.9  789.9  792.8  852.1  856.7  856.8  862.4  931.6
   934.2  977.5  980.2  981.6  982.7 1001.7 1001.8 1013.2 1016.1 1022.5
  1025.1 1046.3 1059.7 1069.2 1103.4 1104.1 1140.2 1182.4 1182.5 1203.7
  1205.3 1214.1 1286.6 1303.4 1305.2 1305.4 1324.6 1341.6 1354.0 1358.6
  1431.4 1472.5 1483.9 1517.1 1527.6 1552.2 1586.8 1618.1 1622.8 1642.6
  1644.3 1651.7 3158.8 3158.9 3163.8 3165.3 3166.0 3168.3 3175.1 3176.1
  3179.8 3181.5 3183.8 3185.0 3189.6 3190.1
 g94    symmetries=
                                                 A      A      A      A
       A      A      A      A      A      A      A      A      A      A
       A      A      A      A      A      A      A      A      A      A
       A      A      A      A      A      A      A      A      A      A
       A      A      A      A      A      A      A      A      A      A
       A      A      A      A      A      A      A      A      A      A
       A      A      A      A      A      A      A      A      A      A
       A      A      A      A      A      A      A      A      A      A
       A      A      A      A      A      A      A      A      A      A
       A      A      A      A      A      A
 atomic masses:
 12.0000 12.0000 12.0000 12.0000 12.0000 12.0000 12.0000 12.0000 12.0000 12.0000
 12.0000 12.0000 12.0000 12.0000 12.0000 12.0000 12.0000 12.0000  1.0078  1.0078
  1.0078  1.0078  1.0078  1.0078  1.0078  1.0078  1.0078  1.0078  1.0078  1.0078
  1.0078  1.0078
 looking for force constants in 
 ./Benzene-bridges_3_C0S0.fchk                                                  
  
 Cartesian Force Constants                  R   N=        4656                  
  
 n3=          96        4656
 g94-fc frequencies=
    -0.6   -0.0   -0.0    0.0    2.0    6.2   38.5   46.8   69.0   80.6
   112.2  150.4  214.3  226.3  336.9  341.8  406.4  414.3  417.3  425.7
   458.7  497.9  543.3  581.9  628.1  631.4  635.9  656.7  713.2  714.1
   714.4  747.0  769.9  789.9  792.8  852.1  856.7  856.8  862.4  931.6
   934.2  977.5  980.3  981.6  982.8 1001.7 1001.9 1013.2 1016.1 1022.5
  1025.2 1046.3 1059.8 1069.3 1103.4 1104.1 1140.2 1182.4 1182.5 1203.7
  1205.3 1214.1 1286.7 1303.4 1305.2 1305.4 1324.6 1341.6 1354.0 1358.6
  1431.4 1472.5 1483.9 1517.1 1527.7 1552.2 1586.8 1618.1 1622.8 1642.7
  1644.3 1651.8 3158.8 3159.0 3163.9 3165.4 3166.0 3168.3 3175.2 3176.2
  3179.9 3181.6 3183.9 3185.1 3189.7 3190.1
 at 99999: n3=          96
 symm operator            1 :  F  nop=           0
 symm operator            2 :  F  nop=           0
 symm operator            3 :  F  nop=           0
 symm operator            4 :  F  nop=           0
 symm operator            5 :  F  nop=           0
 symm operator            6 :  F  nop=           0
 symm operator            7 :  F  nop=           0
 The point group of the molecule is  C1
 Symmetry rotation matrix:
   1.00000   0.00000   0.00000
   0.00000   1.00000   0.00000
   0.00000   0.00000   1.00000

 Projecting out zero-frequency components
 generating redundant internal coords
         300        3600          32
 search for int coords
   1 str   2   1   1.393
   2 str   3   2   1.392
   3 str   4   3   1.403
   4 str   5   4   1.484
   5 str   6   5   1.402
   6 str   7   6   1.389
   7 str   8   7   1.402
   8 str   9   8   1.484
   9 str  10   9   1.403
  10 str  11  10   1.392
  11 str  12  11   1.393
  12 str  13  12   1.393
  13 str  14   9   1.403
  14 str  14  13   1.392
  15 str  15   8   1.402
  16 str  16   5   1.402
  17 str  16  15   1.389
  18 str  17   4   1.403
  19 str  18   1   1.393
  20 str  18  17   1.392
  21 str  19   1   1.084
  22 str  20   2   1.084
  23 str  21   3   1.084
  24 str  22   6   1.084
  25 str  23   7   1.084
  26 str  24  10   1.084
  27 str  25  11   1.084
  28 str  26  12   1.084
  29 str  27  13   1.084
  30 str  28  14   1.084
  31 str  29  15   1.084
  32 str  30  16   1.084
  33 str  31  17   1.084
  34 str  32  18   1.084
 nber stretches=          34
  35 ben   1   2   3
  36 prop tor   1   2   3   4
  37 prop tor   1   2   3  21
  38 ben   1   2  20
  39 ben   1  18  17
  40 ben   1  18  32
  41 ben   2   1  18
  42 prop tor   2   1  18  17
  43 prop tor   2   1  18  32
  44 ben   2   1  19
  45 ben   2   3   4
  46 prop tor   2   3   4   5
  47 prop tor   2   3   4  17
  48 ben   2   3  21
  49 ben   3   2  20
  50 ben   3   4   5
  51 prop tor   3   4   5   6
  52 prop tor   3   4   5  16
  53 ben   3   4  17
  54 prop tor   3   4  17  18
  55 prop tor   3   4  17  31
  56 ben   4   3  21
  57 ben   4   5   6
  58 prop tor   4   5   6   7
  59 prop tor   4   5   6  22
  60 ben   4   5  16
  61 prop tor   4   5  16  15
  62 prop tor   4   5  16  30
  63 ben   4  17  18
  64 prop tor   4  17  18   1
  65 prop tor   4  17  18  32
  66 ben   4  17  31
  67 ben   5   4  17
  68 prop tor   5   4  17  18
  69 prop tor   5   4  17  31
  70 ben   5   6   7
  71 prop tor   5   6   7   8
  72 prop tor   5   6   7  23
  73 ben   5   6  22
  74 ben   5  16  15
  75 ben   5  16  30
  76 ben   6   5  16
  77 prop tor   6   5  16  15
  78 prop tor   6   5  16  30
  79 ben   6   7   8
  80 prop tor   6   7   8   9
  81 prop tor   6   7   8  15
  82 ben   6   7  23
  83 ben   7   6  22
  84 ben   7   8   9
  85 prop tor   7   8   9  10
  86 prop tor   7   8   9  14
  87 ben   7   8  15
  88 prop tor   7   8  15  16
  89 prop tor   7   8  15  29
  90 ben   8   7  23
  91 ben   8   9  10
  92 prop tor   8   9  10  11
  93 prop tor   8   9  10  24
  94 ben   8   9  14
  95 prop tor   8   9  14  13
  96 prop tor   8   9  14  28
  97 ben   8  15  16
  98 prop tor   8  15  16   5
  99 prop tor   8  15  16  30
 100 ben   8  15  29
 101 ben   9   8  15
 102 prop tor   9   8  15  16
 103 prop tor   9   8  15  29
 104 ben   9  10  11
 105 prop tor   9  10  11  12
 106 prop tor   9  10  11  25
 107 ben   9  10  24
 108 ben   9  14  13
 109 ben   9  14  28
 110 ben  10   9  14
 111 prop tor  10   9  14  13
 112 prop tor  10   9  14  28
 113 ben  10  11  12
 114 prop tor  10  11  12  13
 115 prop tor  10  11  12  26
 116 ben  10  11  25
 117 ben  11  10  24
 118 ben  11  12  13
 119 prop tor  11  12  13  14
 120 prop tor  11  12  13  27
 121 ben  11  12  26
 122 ben  12  11  25
 123 ben  12  13  14
 124 prop tor  12  13  14   9
 125 prop tor  12  13  14  28
 126 ben  12  13  27
 127 ben  13  12  26
 128 ben  13  14  28
 129 prop tor  14   9  10  11
 130 prop tor  14   9  10  24
 131 ben  14  13  27
 132 prop tor  15   8   9  10
 133 prop tor  15   8   9  14
 134 ben  15  16  30
 135 prop tor  16   5   6   7
 136 prop tor  16   5   6  22
 137 ben  16  15  29
 138 prop tor  17   4   5   6
 139 prop tor  17   4   5  16
 140 ben  17  18  32
 141 prop tor  18   1   2   3
 142 prop tor  18   1   2  20
 143 ben  18   1  19
 144 ben  18  17  31
 145 prop tor  19   1   2   3
 146 prop tor  19   1   2  20
 147 prop tor  19   1  18  17
 148 prop tor  19   1  18  32
 149 prop tor  20   2   3   4
 150 prop tor  20   2   3  21
 151 prop tor  21   3   4   5
 152 prop tor  21   3   4  17
 153 prop tor  22   6   7   8
 154 prop tor  22   6   7  23
 155 prop tor  23   7   8   9
 156 prop tor  23   7   8  15
 157 prop tor  24  10  11  12
 158 prop tor  24  10  11  25
 159 prop tor  25  11  12  13
 160 prop tor  25  11  12  26
 161 prop tor  26  12  13  14
 162 prop tor  26  12  13  27
 163 prop tor  27  13  14   9
 164 prop tor  27  13  14  28
 165 prop tor  29  15  16   5
 166 prop tor  29  15  16  30
 167 prop tor  31  17  18   1
 168 prop tor  31  17  18  32
 nber bend=              54
 nber lin bend=           0
 nber prop tor=          80
 nber impr tor=           0
 nber tot redund int=         168
 Eigenvalues of G in red int coords
    Gval -0.00000000 -0.00000000 -0.00000000 -0.00000000 -0.00000000 -0.00000000 -0.00000000 -0.00000000
    Gval -0.00000000 -0.00000000 -0.00000000 -0.00000000 -0.00000000 -0.00000000 -0.00000000 -0.00000000
    Gval -0.00000000 -0.00000000 -0.00000000 -0.00000000 -0.00000000 -0.00000000 -0.00000000 -0.00000000
    Gval -0.00000000 -0.00000000 -0.00000000 -0.00000000 -0.00000000 -0.00000000 -0.00000000 -0.00000000
    Gval -0.00000000 -0.00000000 -0.00000000 -0.00000000 -0.00000000 -0.00000000 -0.00000000 -0.00000000
    Gval  0.00000000  0.00000000  0.00000000  0.00000000  0.00000000  0.00000000  0.00000000  0.00000000
    Gval  0.00000000  0.00000000  0.00000000  0.00000000  0.00000000  0.00000000  0.00000000  0.00000000
    Gval  0.00000000  0.00000000  0.00000000  0.00000000  0.00000000  0.00000000  0.00000000  0.00000000
    Gval  0.00000000  0.00000000  0.00000000  0.00000000  0.00000000  0.00000000  0.00000000  0.00000000
    Gval  0.00000000  0.00000000  0.00000000  0.00000000  0.00000000  0.00000000  0.00000154  0.00000360
    Gval  0.00000474  0.00000794  0.00001281  0.00002147  0.00002543  0.00002583  0.00004203  0.00004269
    Gval  0.00004717  0.00005014  0.00005645  0.00005762  0.00006140  0.00006422  0.00007026  0.00007420
    Gval  0.00009812  0.00009816  0.00010023  0.00010917  0.00011828  0.00011926  0.00012180  0.00012392
    Gval  0.00016687  0.00017850  0.00025466  0.00026070  0.00026406  0.00026833  0.00029668  0.00034955
    Gval  0.00035776  0.00037012  0.00037712  0.00039034  0.00047023  0.00051257  0.00053735  0.00059306
    Gval  0.00059306  0.00059334  0.00059363  0.00059532  0.00059640  0.00060014  0.00060443  0.00060455
    Gval  0.00062041  0.00062170  0.00064015  0.00065053  0.00066082  0.00066111  0.00068683  0.00080288
    Gval  0.00100165  0.00103971  0.00104229  0.00107765  0.00110600  0.00110868  0.00110942  0.00113719
    Gval  0.00113760  0.00115062  0.00116845  0.00116991  0.00117024  0.00117227  0.00117227  0.00142789
    Gval  0.00143206  0.00159839  0.00177106  0.00194025  0.00232788  0.00233985  0.00234812  0.00248547
    Gval  0.00310740  0.00312964  0.00361724  0.00370789  0.00373087  0.00373471  0.00406707  0.00406729
  1.542717623572018E-006  1.542717623572018E-006
  3.603488018126505E-006  1.542717623572018E-006
  4.735950550198177E-006  1.542717623572018E-006
  7.943427971758620E-006  1.542717623572018E-006
  1.281213697090136E-005  1.542717623572018E-006
  2.147139533859934E-005  1.542717623572018E-006
  2.542634072073431E-005  1.542717623572018E-006
  2.582978276074540E-005  1.542717623572018E-006
  4.202930156864792E-005  1.542717623572018E-006
  4.268694024730444E-005  1.542717623572018E-006
  4.716869588881920E-005  1.542717623572018E-006
  5.014338325126084E-005  1.542717623572018E-006
  5.645371515291654E-005  1.542717623572018E-006
  5.761555058007429E-005  1.542717623572018E-006
  6.139947939536836E-005  1.542717623572018E-006
  6.422408110997891E-005  1.542717623572018E-006
  7.026433136291766E-005  1.542717623572018E-006
  7.420251947867322E-005  1.542717623572018E-006
  9.811637118284648E-005  1.542717623572018E-006
  9.816374072502316E-005  1.542717623572018E-006
  1.002280460218367E-004  1.542717623572018E-006
  1.091698612532254E-004  1.542717623572018E-006
  1.182813171398716E-004  1.542717623572018E-006
  1.192583822073987E-004  1.542717623572018E-006
  1.217990954410194E-004  1.542717623572018E-006
  1.239221676962784E-004  1.542717623572018E-006
  1.668685039671007E-004  1.542717623572018E-006
  1.785028204804654E-004  1.542717623572018E-006
  2.546577254368965E-004  1.542717623572018E-006
  2.606975386118186E-004  1.542717623572018E-006
  2.640614324165411E-004  1.542717623572018E-006
  2.683340123271594E-004  1.542717623572018E-006
  2.966754724441666E-004  1.542717623572018E-006
  3.495492487280547E-004  1.542717623572018E-006
  3.577621723648622E-004  1.542717623572018E-006
  3.701157162488564E-004  1.542717623572018E-006
  3.771158658765302E-004  1.542717623572018E-006
  3.903398762944528E-004  1.542717623572018E-006
  4.702330759814467E-004  1.542717623572018E-006
  5.125692335936100E-004  1.542717623572018E-006
  5.373536367378312E-004  1.542717623572018E-006
  5.930588201764590E-004  1.542717623572018E-006
  5.930617159798826E-004  1.542717623572018E-006
  5.933405266187357E-004  1.542717623572018E-006
  5.936313761210719E-004  1.542717623572018E-006
  5.953199611508109E-004  1.542717623572018E-006
  5.963987345356553E-004  1.542717623572018E-006
  6.001434304776541E-004  1.542717623572018E-006
  6.044318066288842E-004  1.542717623572018E-006
  6.045469696170585E-004  1.542717623572018E-006
  6.204053126994629E-004  1.542717623572018E-006
  6.216993583480651E-004  1.542717623572018E-006
  6.401460059274216E-004  1.542717623572018E-006
  6.505333516878695E-004  1.542717623572018E-006
  6.608237330682299E-004  1.542717623572018E-006
  6.611103820971640E-004  1.542717623572018E-006
  6.868263098486804E-004  1.542717623572018E-006
  8.028761801616075E-004  1.542717623572018E-006
  1.001647443777309E-003  1.542717623572018E-006
  1.039710599048744E-003  1.542717623572018E-006
  1.042294704824285E-003  1.542717623572018E-006
  1.077652171786821E-003  1.542717623572018E-006
  1.105999865262137E-003  1.542717623572018E-006
  1.108683713506736E-003  1.542717623572018E-006
  1.109420187496021E-003  1.542717623572018E-006
  1.137193554294427E-003  1.542717623572018E-006
  1.137602839233293E-003  1.542717623572018E-006
  1.150618600594167E-003  1.542717623572018E-006
  1.168454052492762E-003  1.542717623572018E-006
  1.169906558550491E-003  1.542717623572018E-006
  1.170239541408542E-003  1.542717623572018E-006
  1.172267434836161E-003  1.542717623572018E-006
  1.172272390769284E-003  1.542717623572018E-006
  1.427889521617078E-003  1.542717623572018E-006
  1.432057787769161E-003  1.542717623572018E-006
  1.598386141202626E-003  1.542717623572018E-006
  1.771058533143023E-003  1.542717623572018E-006
  1.940248196272880E-003  1.542717623572018E-006
  2.327877102754181E-003  1.542717623572018E-006
  2.339852761833084E-003  1.542717623572018E-006
  2.348120945139501E-003  1.542717623572018E-006
  2.485466958975707E-003  1.542717623572018E-006
  3.107395009427054E-003  1.542717623572018E-006
  3.129638576549579E-003  1.542717623572018E-006
  3.617238261211005E-003  1.542717623572018E-006
  3.707892229519916E-003  1.542717623572018E-006
  3.730873172669819E-003  1.542717623572018E-006
  3.734706072161874E-003  1.542717623572018E-006
  4.067068799710420E-003  1.542717623572018E-006
  4.067291635386725E-003  1.542717623572018E-006
 cut=1d-8, nber non-redundant internal coords=          90
 Check on Eigenvals of non-red overlap matrix:
  0.00000154  0.00000360  0.00000474  0.00000794  0.00001281  0.00002147  0.00002543  0.00002583
  0.00004203  0.00004269  0.00004717  0.00005014  0.00005645  0.00005762  0.00006140  0.00006422
  0.00007026  0.00007420  0.00009812  0.00009816  0.00010023  0.00010917  0.00011828  0.00011926
  0.00012180  0.00012392  0.00016687  0.00017850  0.00025466  0.00026070  0.00026406  0.00026833
  0.00029668  0.00034955  0.00035776  0.00037012  0.00037712  0.00039034  0.00047023  0.00051257
  0.00053735  0.00059306  0.00059306  0.00059334  0.00059363  0.00059532  0.00059640  0.00060014
  0.00060443  0.00060455  0.00062041  0.00062170  0.00064015  0.00065053  0.00066082  0.00066111
  0.00068683  0.00080288  0.00100165  0.00103971  0.00104229  0.00107765  0.00110600  0.00110868
  0.00110942  0.00113719  0.00113760  0.00115062  0.00116845  0.00116991  0.00117024  0.00117227
  0.00117227  0.00142789  0.00143206  0.00159839  0.00177106  0.00194025  0.00232788  0.00233985
  0.00234812  0.00248547  0.00310740  0.00312964  0.00361724  0.00370789  0.00373087  0.00373471
  0.00406707  0.00406729
 Checking for correct frequencies
 recalc frequencies=
    -0.0   -0.0    0.0    0.0    0.0    0.0   38.5   46.8   69.0   80.6
   112.2  150.4  214.3  226.3  336.9  341.8  406.4  414.3  417.3  425.7
   458.7  497.9  543.3  581.9  628.1  631.4  635.9  656.7  713.2  714.1
   714.4  747.0  769.9  789.9  792.8  852.1  856.7  856.8  862.4  931.6
   934.2  977.5  980.3  981.6  982.8 1001.7 1001.9 1013.2 1016.1 1022.5
  1025.2 1046.3 1059.8 1069.3 1103.4 1104.1 1140.2 1182.4 1182.5 1203.7
  1205.3 1214.1 1286.7 1303.4 1305.2 1305.4 1324.6 1341.6 1354.0 1358.6
  1431.4 1472.5 1483.9 1517.1 1527.7 1552.2 1586.8 1618.1 1622.8 1642.7
  1644.3 1651.8 3158.8 3159.0 3163.9 3165.4 3166.0 3168.3 3175.2 3176.2
  3179.9 3181.6 3183.9 3185.1 3189.7 3190.1
 recalc symmetries=
                                                                       
                                                                       
                                                                       
                                                                       
                                                                       
                                                                       
                                                                       
                                                                       
                                                                       
                                           
 recalc freqs check OK
 Zero-point lengths:
 10.0000 10.0000 10.0000 10.0000 10.0000 10.0000 39.9691 36.2293 29.8374 27.6206
 23.4053 20.2154 16.9334 16.4797 13.5072 13.4095 12.2978 12.1790 12.1352 12.0159
 11.5749 11.1105 10.6359 10.2771  9.8920  9.8663  9.8314  9.6745  9.2832  9.2772
  9.2753  9.0703  8.9348  8.8207  8.8047  8.4928  8.4700  8.4692  8.4418  8.1224
  8.1109  7.9292  7.9182  7.9128  7.9081  7.8329  7.8324  7.7885  7.7773  7.7529
  7.7428  7.6640  7.6154  7.5814  7.4632  7.4610  7.3418  7.2095  7.2092  7.1455
  7.1407  7.1148  6.9113  6.8668  6.8620  6.8615  6.8117  6.7684  6.7372  6.7259
  6.5525  6.4605  6.4356  6.3648  6.3428  6.2925  6.2235  6.1629  6.1541  6.1168
  6.1137  6.0999  4.4110  4.4108  4.4074  4.4064  4.4059  4.4043  4.3996  4.3989
  4.3963  4.3951  4.3936  4.3927  4.3896  4.3893
 highest evec of mol 1
 -0.1148 -0.0085  0.0260
 -0.0545  0.0784 -0.0081
  0.0292  0.0602 -0.0224
  0.0037  0.0003 -0.0009
 -0.0018 -0.0001  0.0004
 -0.0185  0.0284  0.0207
  0.0212  0.0311  0.0115
  0.0018  0.0001 -0.0004
 -0.0037 -0.0003  0.0008
 -0.0435  0.0539 -0.0056
  0.0335  0.0836 -0.0277
  0.1131  0.0084 -0.0257
  0.0536 -0.0772  0.0080
 -0.0287 -0.0590  0.0219
  0.0184 -0.0283 -0.0206
 -0.0213 -0.0312 -0.0116
  0.0444 -0.0551  0.0058
 -0.0341 -0.0852  0.0282
  0.3658  0.0272 -0.0830
  0.1774 -0.2452  0.0242
 -0.0857 -0.1974  0.0707
  0.0574 -0.0944 -0.0672
 -0.0660 -0.1025 -0.0386
  0.1326 -0.1782  0.0205
 -0.1114 -0.2624  0.0887
 -0.3607 -0.0269  0.0818
 -0.1745  0.2412 -0.0239
  0.0840  0.1936 -0.0694
 -0.0571  0.0939  0.0668
  0.0664  0.1030  0.0388
 -0.1356  0.1823 -0.0209
  0.1135  0.2672 -0.0903
 generating redundant internal coords
         300        3600          32
 Adding extra bonds for z output only
           6           6           6           6           6           6
           6           6           6           6           6           6
           6           6           6           6           6           6
           1           1           1           1           1           1
           1           1           1           1           1           1
           1           1
 search for int coords
   1 str   2   1   1.393
   2 str   3   2   1.392
   3 str   4   3   1.403
   4 str   5   4   1.484
   5 str   6   5   1.402
   6 str   7   6   1.389
   7 str   8   7   1.402
   8 str   9   8   1.484
   9 str  10   9   1.403
  10 str  11  10   1.392
  11 str  12  11   1.393
  12 str  13  12   1.393
  13 str  14   9   1.403
  14 str  14  13   1.392
  15 str  15   8   1.402
  16 str  16   5   1.402
  17 str  16  15   1.389
  18 str  17   4   1.403
  19 str  18   1   1.393
  20 str  18  17   1.392
  21 str  19   1   1.084
  22 str  20   2   1.084
  23 str  21   3   1.084
  24 str  22   6   1.084
  25 str  23   7   1.084
  26 str  24  10   1.084
  27 str  25  11   1.084
  28 str  26  12   1.084
  29 str  27  13   1.084
  30 str  28  14   1.084
  31 str  29  15   1.084
  32 str  30  16   1.084
  33 str  31  17   1.084
  34 str  32  18   1.084
 nber stretches=          34
  35 ben   1   2   3
  36 prop tor   1   2   3   4
  37 prop tor   1   2   3  21
  38 ben   1   2  20
  39 ben   1  18  17
  40 ben   1  18  32
  41 ben   2   1  18
  42 prop tor   2   1  18  17
  43 prop tor   2   1  18  32
  44 ben   2   1  19
  45 ben   2   3   4
  46 prop tor   2   3   4   5
  47 prop tor   2   3   4  17
  48 ben   2   3  21
  49 ben   3   2  20
  50 ben   3   4   5
  51 prop tor   3   4   5   6
  52 prop tor   3   4   5  16
  53 ben   3   4  17
  54 prop tor   3   4  17  18
  55 prop tor   3   4  17  31
  56 ben   4   3  21
  57 ben   4   5   6
  58 prop tor   4   5   6   7
  59 prop tor   4   5   6  22
  60 ben   4   5  16
  61 prop tor   4   5  16  15
  62 prop tor   4   5  16  30
  63 ben   4  17  18
  64 prop tor   4  17  18   1
  65 prop tor   4  17  18  32
  66 ben   4  17  31
  67 ben   5   4  17
  68 prop tor   5   4  17  18
  69 prop tor   5   4  17  31
  70 ben   5   6   7
  71 prop tor   5   6   7   8
  72 prop tor   5   6   7  23
  73 ben   5   6  22
  74 ben   5  16  15
  75 ben   5  16  30
  76 ben   6   5  16
  77 prop tor   6   5  16  15
  78 prop tor   6   5  16  30
  79 ben   6   7   8
  80 prop tor   6   7   8   9
  81 prop tor   6   7   8  15
  82 ben   6   7  23
  83 ben   7   6  22
  84 ben   7   8   9
  85 prop tor   7   8   9  10
  86 prop tor   7   8   9  14
  87 ben   7   8  15
  88 prop tor   7   8  15  16
  89 prop tor   7   8  15  29
  90 ben   8   7  23
  91 ben   8   9  10
  92 prop tor   8   9  10  11
  93 prop tor   8   9  10  24
  94 ben   8   9  14
  95 prop tor   8   9  14  13
  96 prop tor   8   9  14  28
  97 ben   8  15  16
  98 prop tor   8  15  16   5
  99 prop tor   8  15  16  30
 100 ben   8  15  29
 101 ben   9   8  15
 102 prop tor   9   8  15  16
 103 prop tor   9   8  15  29
 104 ben   9  10  11
 105 prop tor   9  10  11  12
 106 prop tor   9  10  11  25
 107 ben   9  10  24
 108 ben   9  14  13
 109 ben   9  14  28
 110 ben  10   9  14
 111 prop tor  10   9  14  13
 112 prop tor  10   9  14  28
 113 ben  10  11  12
 114 prop tor  10  11  12  13
 115 prop tor  10  11  12  26
 116 ben  10  11  25
 117 ben  11  10  24
 118 ben  11  12  13
 119 prop tor  11  12  13  14
 120 prop tor  11  12  13  27
 121 ben  11  12  26
 122 ben  12  11  25
 123 ben  12  13  14
 124 prop tor  12  13  14   9
 125 prop tor  12  13  14  28
 126 ben  12  13  27
 127 ben  13  12  26
 128 ben  13  14  28
 129 prop tor  14   9  10  11
 130 prop tor  14   9  10  24
 131 ben  14  13  27
 132 prop tor  15   8   9  10
 133 prop tor  15   8   9  14
 134 ben  15  16  30
 135 prop tor  16   5   6   7
 136 prop tor  16   5   6  22
 137 ben  16  15  29
 138 prop tor  17   4   5   6
 139 prop tor  17   4   5  16
 140 ben  17  18  32
 141 prop tor  18   1   2   3
 142 prop tor  18   1   2  20
 143 ben  18   1  19
 144 ben  18  17  31
 145 prop tor  19   1   2   3
 146 prop tor  19   1   2  20
 147 prop tor  19   1  18  17
 148 prop tor  19   1  18  32
 149 prop tor  20   2   3   4
 150 prop tor  20   2   3  21
 151 prop tor  21   3   4   5
 152 prop tor  21   3   4  17
 153 prop tor  22   6   7   8
 154 prop tor  22   6   7  23
 155 prop tor  23   7   8   9
 156 prop tor  23   7   8  15
 157 prop tor  24  10  11  12
 158 prop tor  24  10  11  25
 159 prop tor  25  11  12  13
 160 prop tor  25  11  12  26
 161 prop tor  26  12  13  14
 162 prop tor  26  12  13  27
 163 prop tor  27  13  14   9
 164 prop tor  27  13  14  28
 165 prop tor  29  15  16   5
 166 prop tor  29  15  16  30
 167 prop tor  31  17  18   1
 168 prop tor  31  17  18  32
 nber bend=              54
 nber lin bend=           0
 nber prop tor=          80
 nber impr tor=           0
 nber tot redund int=         168
 Reading file: 
 ./Benzene-bridges_3_C0S1.log                                                   
                                          
  Entering Gaussian System, Link 0=g16                                          
  
 Gaussian format, type: g94, g98, g03= F F F
  #P Geom=AllCheck Guess=TCheck SCRF=Check GenChk RB3LYP TD(FC,Read)/6-3    
 energy type= TD      
 Original G94 input coords:
  6 -1.404786 -0.093085  0.457003
  6 -0.816829  1.160641  0.234646
  6  0.526045  1.268771 -0.066653
  6  1.366013  0.112807 -0.170992
  6  2.763164  0.216804 -0.487460
  6  3.460527  1.474698 -0.475412
  6  4.790485  1.573914 -0.777173
  6  5.584936  0.427285 -1.127570
  6  6.982041  0.531426 -1.444546
  6  7.613299  1.796794 -1.674738
  6  8.955965  1.888410 -1.982488
  6  9.752612  0.737739 -2.073221
  6  9.165103 -0.516012 -1.849872
  6  7.822296 -0.624337 -1.548265
  6  4.887677 -0.830624 -1.139343
  6  3.557703 -0.929872 -0.837648
  6  0.734261 -1.152554  0.058129
  6 -0.608481 -1.243949  0.365539
  1 -2.458873 -0.171420  0.695944
  1 -1.423635  2.057782  0.293728
  1  0.938152  2.250522 -0.259398
  1  2.933783  2.371717 -0.177725
  1  5.261531  2.545378 -0.705883
  1  7.024586  2.704049 -1.641239
  1  9.396295  2.863388 -2.161633
  1 10.806639  0.816234 -2.312386
  1  9.772184 -1.413001 -1.908415
  1  7.410548 -1.606078 -1.354725
  1  5.414464 -1.727689 -1.436806
  1  3.086748 -1.901394 -0.908694
  1  1.322639 -2.060000  0.023937
  1 -1.049172 -2.218923  0.543820
 nber atoms=          32
  Total Energy, E(TD-HF/TD-DFT) =  -694.385730237                               
  
          32          49 "  -694.385730237"
After scan for Atom:   Atom  AN      X      Y      Z        X      Y      Z        X      Y      Z   
After scan for Atom:   Atom  AN      X      Y      Z        X      Y      Z        X      Y      Z   
After scan for Atom:   Atom  AN      X      Y      Z        X      Y      Z        X      Y      Z   
After scan for Atom:   Atom  AN      X      Y      Z        X      Y      Z        X      Y      Z   
After scan for Atom:   Atom  AN      X      Y      Z        X      Y      Z        X      Y      Z   
After scan for Atom:   Atom  AN      X      Y      Z        X      Y      Z        X      Y      Z   
After scan for Atom:   Atom  AN      X      Y      Z        X      Y      Z        X      Y      Z   
After scan for Atom:   Atom  AN      X      Y      Z        X      Y      Z        X      Y      Z   
After scan for Atom:   Atom  AN      X      Y      Z        X      Y      Z        X      Y      Z   
After scan for Atom:   Atom  AN      X      Y      Z        X      Y      Z        X      Y      Z   
After scan for Atom:   Atom  AN      X      Y      Z        X      Y      Z        X      Y      Z   
After scan for Atom:   Atom  AN      X      Y      Z        X      Y      Z        X      Y      Z   
After scan for Atom:   Atom  AN      X      Y      Z        X      Y      Z        X      Y      Z   
After scan for Atom:   Atom  AN      X      Y      Z        X      Y      Z        X      Y      Z   
After scan for Atom:   Atom  AN      X      Y      Z        X      Y      Z        X      Y      Z   
After scan for Atom:   Atom  AN      X      Y      Z        X      Y      Z        X      Y      Z   
After scan for Atom:   Atom  AN      X      Y      Z        X      Y      Z        X      Y      Z   
After scan for Atom:   Atom  AN      X      Y      Z        X      Y      Z        X      Y      Z   
After scan for Atom:   Atom  AN      X      Y      Z        X      Y      Z        X      Y      Z   
After scan for Atom:   Atom  AN      X      Y      Z        X      Y      Z        X      Y      Z   
After scan for Atom:   Atom  AN      X      Y      Z        X      Y      Z        X      Y      Z   
After scan for Atom:   Atom  AN      X      Y      Z        X      Y      Z        X      Y      Z   
After scan for Atom:   Atom  AN      X      Y      Z        X      Y      Z        X      Y      Z   
After scan for Atom:   Atom  AN      X      Y      Z        X      Y      Z        X      Y      Z   
After scan for Atom:   Atom  AN      X      Y      Z        X      Y      Z        X      Y      Z   
After scan for Atom:   Atom  AN      X      Y      Z        X      Y      Z        X      Y      Z   
After scan for Atom:   Atom  AN      X      Y      Z        X      Y      Z        X      Y      Z   
After scan for Atom:   Atom  AN      X      Y      Z        X      Y      Z        X      Y      Z   
After scan for Atom:   Atom  AN      X      Y      Z        X      Y      Z        X      Y      Z   
After scan for Atom:   Atom  AN      X      Y      Z        X      Y      Z        X      Y      Z   
 g94    frequencies=
     0.0    0.0    0.0    0.0    0.0    0.0   28.5   37.1   64.8   85.6
    96.4  156.5  187.1  227.1  260.3  364.8  400.1  407.7  407.9  412.5
   432.0  449.2  477.5  515.6  603.9  607.7  619.9  636.6  660.2  661.5
   695.0  699.4  745.6  750.8  765.2  775.3  794.0  794.2  807.6  868.7
   869.8  929.2  934.3  963.2  963.8  964.0  966.8  978.3  978.8  981.8
  1009.2 1018.7 1034.4 1036.5 1101.1 1108.9 1147.3 1162.0 1175.8 1202.9
  1211.1 1236.9 1253.9 1286.8 1326.6 1340.3 1346.8 1359.7 1370.5 1371.3
  1422.3 1458.3 1476.3 1482.4 1504.4 1510.8 1515.9 1541.5 1546.8 1608.1
  1633.7 1682.4 3159.9 3160.1 3165.4 3165.6 3179.6 3181.4 3185.0 3187.9
  3191.4 3194.7 3200.1 3202.6 3207.8 3210.6
 g94    symmetries=
                                                 A      A      A      A
       A      A      A      A      A      A      A      A      A      A
       A      A      A      A      A      A      A      A      A      A
       A      A      A      A      A      A      A      A      A      A
       A      A      A      A      A      A      A      A      A      A
       A      A      A      A      A      A      A      A      A      A
       A      A      A      A      A      A      A      A      A      A
       A      A      A      A      A      A      A      A      A      A
       A      A      A      A      A      A      A      A      A      A
       A      A      A      A      A      A
 atomic masses:
 12.0000 12.0000 12.0000 12.0000 12.0000 12.0000 12.0000 12.0000 12.0000 12.0000
 12.0000 12.0000 12.0000 12.0000 12.0000 12.0000 12.0000 12.0000  1.0078  1.0078
  1.0078  1.0078  1.0078  1.0078  1.0078  1.0078  1.0078  1.0078  1.0078  1.0078
  1.0078  1.0078
 looking for force constants in 
 ./Benzene-bridges_3_C0S1.fchk                                                  
  
 Cartesian Force Constants                  R   N=        4656                  
  
 n3=          96        4656
 g94-fc frequencies=
    -4.3   -2.1   -0.0   -0.0    0.0    2.0   28.6   37.1   64.8   85.6
    96.4  156.5  187.1  227.1  260.3  364.8  400.1  407.7  407.9  412.5
   432.0  449.2  477.5  515.7  604.0  607.7  619.9  636.6  660.2  661.6
   695.0  699.4  745.6  750.8  765.2  775.3  794.0  794.2  807.7  868.7
   869.8  929.3  934.3  963.2  963.8  964.0  966.8  978.3  978.8  981.8
  1009.2 1018.7 1034.4 1036.5 1101.1 1108.9 1147.4 1162.1 1175.9 1203.0
  1211.2 1236.9 1253.9 1286.8 1326.6 1340.3 1346.8 1359.8 1370.6 1371.4
  1422.4 1458.4 1476.3 1482.5 1504.4 1510.8 1516.0 1541.5 1546.9 1608.1
  1633.8 1682.5 3159.9 3160.2 3165.4 3165.7 3179.6 3181.4 3185.1 3187.9
  3191.5 3194.7 3200.1 3202.7 3207.8 3210.7
 at 99999: n3=          96
 symm operator            1 :  F  nop=           0
 symm operator            2 :  F  nop=           0
 symm operator            3 :  F  nop=           0
 symm operator            4 :  F  nop=           0
 symm operator            5 :  F  nop=           0
 symm operator            6 :  F  nop=           0
 symm operator            7 :  F  nop=           0
 The point group of the molecule is  C1
 Symmetry rotation matrix:
   1.00000   0.00000   0.00000
   0.00000   1.00000   0.00000
   0.00000   0.00000   1.00000

 Projecting out zero-frequency components
 generating redundant internal coords
         300        3600          32
 search for int coords
   1 str   2   1   1.402
   2 str   3   2   1.381
   3 str   4   3   1.433
   4 str   5   4   1.436
   5 str   6   5   1.438
   6 str   7   6   1.367
   7 str   8   7   1.438
   8 str   9   8   1.436
   9 str  10   9   1.433
  10 str  11  10   1.381
  11 str  12  11   1.402
  12 str  13  12   1.402
  13 str  14   9   1.433
  14 str  14  13   1.381
  15 str  15   8   1.438
  16 str  16   5   1.438
  17 str  16  15   1.367
  18 str  17   4   1.433
  19 str  18   1   1.402
  20 str  18  17   1.381
  21 str  19   1   1.084
  22 str  20   2   1.085
  23 str  21   3   1.082
  24 str  22   6   1.082
  25 str  23   7   1.082
  26 str  24  10   1.082
  27 str  25  11   1.085
  28 str  26  12   1.084
  29 str  27  13   1.085
  30 str  28  14   1.082
  31 str  29  15   1.082
  32 str  30  16   1.082
  33 str  31  17   1.082
  34 str  32  18   1.085
 nber stretches=          34
  35 ben   1   2   3
  36 prop tor   1   2   3   4
  37 prop tor   1   2   3  21
  38 ben   1   2  20
  39 ben   1  18  17
  40 ben   1  18  32
  41 ben   2   1  18
  42 prop tor   2   1  18  17
  43 prop tor   2   1  18  32
  44 ben   2   1  19
  45 ben   2   3   4
  46 prop tor   2   3   4   5
  47 prop tor   2   3   4  17
  48 ben   2   3  21
  49 ben   3   2  20
  50 ben   3   4   5
  51 prop tor   3   4   5   6
  52 prop tor   3   4   5  16
  53 ben   3   4  17
  54 prop tor   3   4  17  18
  55 prop tor   3   4  17  31
  56 ben   4   3  21
  57 ben   4   5   6
  58 prop tor   4   5   6   7
  59 prop tor   4   5   6  22
  60 ben   4   5  16
  61 prop tor   4   5  16  15
  62 prop tor   4   5  16  30
  63 ben   4  17  18
  64 prop tor   4  17  18   1
  65 prop tor   4  17  18  32
  66 ben   4  17  31
  67 ben   5   4  17
  68 prop tor   5   4  17  18
  69 prop tor   5   4  17  31
  70 ben   5   6   7
  71 prop tor   5   6   7   8
  72 prop tor   5   6   7  23
  73 ben   5   6  22
  74 ben   5  16  15
  75 ben   5  16  30
  76 ben   6   5  16
  77 prop tor   6   5  16  15
  78 prop tor   6   5  16  30
  79 ben   6   7   8
  80 prop tor   6   7   8   9
  81 prop tor   6   7   8  15
  82 ben   6   7  23
  83 ben   7   6  22
  84 ben   7   8   9
  85 prop tor   7   8   9  10
  86 prop tor   7   8   9  14
  87 ben   7   8  15
  88 prop tor   7   8  15  16
  89 prop tor   7   8  15  29
  90 ben   8   7  23
  91 ben   8   9  10
  92 prop tor   8   9  10  11
  93 prop tor   8   9  10  24
  94 ben   8   9  14
  95 prop tor   8   9  14  13
  96 prop tor   8   9  14  28
  97 ben   8  15  16
  98 prop tor   8  15  16   5
  99 prop tor   8  15  16  30
 100 ben   8  15  29
 101 ben   9   8  15
 102 prop tor   9   8  15  16
 103 prop tor   9   8  15  29
 104 ben   9  10  11
 105 prop tor   9  10  11  12
 106 prop tor   9  10  11  25
 107 ben   9  10  24
 108 ben   9  14  13
 109 ben   9  14  28
 110 ben  10   9  14
 111 prop tor  10   9  14  13
 112 prop tor  10   9  14  28
 113 ben  10  11  12
 114 prop tor  10  11  12  13
 115 prop tor  10  11  12  26
 116 ben  10  11  25
 117 ben  11  10  24
 118 ben  11  12  13
 119 prop tor  11  12  13  14
 120 prop tor  11  12  13  27
 121 ben  11  12  26
 122 ben  12  11  25
 123 ben  12  13  14
 124 prop tor  12  13  14   9
 125 prop tor  12  13  14  28
 126 ben  12  13  27
 127 ben  13  12  26
 128 ben  13  14  28
 129 prop tor  14   9  10  11
 130 prop tor  14   9  10  24
 131 ben  14  13  27
 132 prop tor  15   8   9  10
 133 prop tor  15   8   9  14
 134 ben  15  16  30
 135 prop tor  16   5   6   7
 136 prop tor  16   5   6  22
 137 ben  16  15  29
 138 prop tor  17   4   5   6
 139 prop tor  17   4   5  16
 140 ben  17  18  32
 141 prop tor  18   1   2   3
 142 prop tor  18   1   2  20
 143 ben  18   1  19
 144 ben  18  17  31
 145 prop tor  19   1   2   3
 146 prop tor  19   1   2  20
 147 prop tor  19   1  18  17
 148 prop tor  19   1  18  32
 149 prop tor  20   2   3   4
 150 prop tor  20   2   3  21
 151 prop tor  21   3   4   5
 152 prop tor  21   3   4  17
 153 prop tor  22   6   7   8
 154 prop tor  22   6   7  23
 155 prop tor  23   7   8   9
 156 prop tor  23   7   8  15
 157 prop tor  24  10  11  12
 158 prop tor  24  10  11  25
 159 prop tor  25  11  12  13
 160 prop tor  25  11  12  26
 161 prop tor  26  12  13  14
 162 prop tor  26  12  13  27
 163 prop tor  27  13  14   9
 164 prop tor  27  13  14  28
 165 prop tor  29  15  16   5
 166 prop tor  29  15  16  30
 167 prop tor  31  17  18   1
 168 prop tor  31  17  18  32
 nber bend=              54
 nber lin bend=           0
 nber prop tor=          80
 nber impr tor=           0
 nber tot redund int=         168
 Eigenvalues of G in red int coords
    Gval -0.00000000 -0.00000000 -0.00000000 -0.00000000 -0.00000000 -0.00000000 -0.00000000 -0.00000000
    Gval -0.00000000 -0.00000000 -0.00000000 -0.00000000 -0.00000000 -0.00000000 -0.00000000 -0.00000000
    Gval -0.00000000 -0.00000000 -0.00000000 -0.00000000 -0.00000000 -0.00000000 -0.00000000 -0.00000000
    Gval -0.00000000 -0.00000000 -0.00000000 -0.00000000 -0.00000000 -0.00000000 -0.00000000 -0.00000000
    Gval -0.00000000 -0.00000000 -0.00000000 -0.00000000 -0.00000000 -0.00000000 -0.00000000 -0.00000000
    Gval -0.00000000  0.00000000  0.00000000  0.00000000  0.00000000  0.00000000  0.00000000  0.00000000
    Gval  0.00000000  0.00000000  0.00000000  0.00000000  0.00000000  0.00000000  0.00000000  0.00000000
    Gval  0.00000000  0.00000000  0.00000000  0.00000000  0.00000000  0.00000000  0.00000000  0.00000000
    Gval  0.00000000  0.00000000  0.00000000  0.00000000  0.00000000  0.00000000  0.00000000  0.00000000
    Gval  0.00000000  0.00000000  0.00000000  0.00000000  0.00000000  0.00000000  0.00000139  0.00000357
    Gval  0.00000627  0.00000719  0.00001269  0.00002135  0.00002263  0.00002870  0.00004270  0.00004716
    Gval  0.00004967  0.00005021  0.00005747  0.00005775  0.00006130  0.00006177  0.00006887  0.00007411
    Gval  0.00008509  0.00009871  0.00010991  0.00011406  0.00011918  0.00012030  0.00012539  0.00012583
    Gval  0.00014726  0.00018277  0.00024205  0.00025396  0.00026388  0.00028127  0.00028887  0.00033812
    Gval  0.00035228  0.00036401  0.00038237  0.00040730  0.00044092  0.00052948  0.00055022  0.00059305
    Gval  0.00059305  0.00059332  0.00059352  0.00059647  0.00059946  0.00060082  0.00060358  0.00060387
    Gval  0.00061582  0.00062144  0.00062638  0.00064157  0.00064974  0.00065960  0.00065991  0.00081815
    Gval  0.00101654  0.00104067  0.00104136  0.00108006  0.00110469  0.00110741  0.00110799  0.00113987
    Gval  0.00114001  0.00115468  0.00116983  0.00117017  0.00117134  0.00117134  0.00117145  0.00141433
    Gval  0.00142619  0.00155437  0.00175619  0.00199410  0.00231934  0.00233327  0.00233988  0.00252272
    Gval  0.00311734  0.00316385  0.00361069  0.00367279  0.00370743  0.00370985  0.00405507  0.00405551
  1.388322918434409E-006  1.388322918434409E-006
  3.565848195180939E-006  1.388322918434409E-006
  6.266834937681300E-006  1.388322918434409E-006
  7.193729175486833E-006  1.388322918434409E-006
  1.269498396932777E-005  1.388322918434409E-006
  2.135371067195910E-005  1.388322918434409E-006
  2.262544339912509E-005  1.388322918434409E-006
  2.870163012706116E-005  1.388322918434409E-006
  4.270403333184103E-005  1.388322918434409E-006
  4.716388599646572E-005  1.388322918434409E-006
  4.967260999861993E-005  1.388322918434409E-006
  5.021109276528171E-005  1.388322918434409E-006
  5.746932531233932E-005  1.388322918434409E-006
  5.774574272955741E-005  1.388322918434409E-006
  6.129851014383822E-005  1.388322918434409E-006
  6.177408705350101E-005  1.388322918434409E-006
  6.887492995426990E-005  1.388322918434409E-006
  7.411460220501256E-005  1.388322918434409E-006
  8.509122741372549E-005  1.388322918434409E-006
  9.871365299499762E-005  1.388322918434409E-006
  1.099093267472443E-004  1.388322918434409E-006
  1.140647189483358E-004  1.388322918434409E-006
  1.191800747659525E-004  1.388322918434409E-006
  1.203044135429236E-004  1.388322918434409E-006
  1.253900118927316E-004  1.388322918434409E-006
  1.258318628804849E-004  1.388322918434409E-006
  1.472604433045974E-004  1.388322918434409E-006
  1.827719362429856E-004  1.388322918434409E-006
  2.420456984798583E-004  1.388322918434409E-006
  2.539647175521246E-004  1.388322918434409E-006
  2.638790775835687E-004  1.388322918434409E-006
  2.812673737244834E-004  1.388322918434409E-006
  2.888726927296634E-004  1.388322918434409E-006
  3.381239173109246E-004  1.388322918434409E-006
  3.522777527838880E-004  1.388322918434409E-006
  3.640067887383772E-004  1.388322918434409E-006
  3.823735707142133E-004  1.388322918434409E-006
  4.072972725767916E-004  1.388322918434409E-006
  4.409239094775648E-004  1.388322918434409E-006
  5.294773454153385E-004  1.388322918434409E-006
  5.502183703193144E-004  1.388322918434409E-006
  5.930495252704103E-004  1.388322918434409E-006
  5.930505550922280E-004  1.388322918434409E-006
  5.933174448093963E-004  1.388322918434409E-006
  5.935159782755301E-004  1.388322918434409E-006
  5.964720308682636E-004  1.388322918434409E-006
  5.994566498374058E-004  1.388322918434409E-006
  6.008160963928885E-004  1.388322918434409E-006
  6.035770696831806E-004  1.388322918434409E-006
  6.038662806379421E-004  1.388322918434409E-006
  6.158225743352694E-004  1.388322918434409E-006
  6.214384661141356E-004  1.388322918434409E-006
  6.263768260704950E-004  1.388322918434409E-006
  6.415712564969468E-004  1.388322918434409E-006
  6.497368984830393E-004  1.388322918434409E-006
  6.596033978459832E-004  1.388322918434409E-006
  6.599067491951915E-004  1.388322918434409E-006
  8.181504162766917E-004  1.388322918434409E-006
  1.016539513255664E-003  1.388322918434409E-006
  1.040673110827425E-003  1.388322918434409E-006
  1.041357621733421E-003  1.388322918434409E-006
  1.080057868912650E-003  1.388322918434409E-006
  1.104694878786194E-003  1.388322918434409E-006
  1.107407928394529E-003  1.388322918434409E-006
  1.107991627362121E-003  1.388322918434409E-006
  1.139871622304942E-003  1.388322918434409E-006
  1.140010779574016E-003  1.388322918434409E-006
  1.154681192552029E-003  1.388322918434409E-006
  1.169826494052636E-003  1.388322918434409E-006
  1.170171863777295E-003  1.388322918434409E-006
  1.171337869092111E-003  1.388322918434409E-006
  1.171337944667838E-003  1.388322918434409E-006
  1.171449813891623E-003  1.388322918434409E-006
  1.414327628556895E-003  1.388322918434409E-006
  1.426194858982508E-003  1.388322918434409E-006
  1.554368982692704E-003  1.388322918434409E-006
  1.756188116224413E-003  1.388322918434409E-006
  1.994099302277650E-003  1.388322918434409E-006
  2.319342552971000E-003  1.388322918434409E-006
  2.333274819826646E-003  1.388322918434409E-006
  2.339875898092193E-003  1.388322918434409E-006
  2.522722577004277E-003  1.388322918434409E-006
  3.117341283705324E-003  1.388322918434409E-006
  3.163854630417269E-003  1.388322918434409E-006
  3.610689732677118E-003  1.388322918434409E-006
  3.672789536645002E-003  1.388322918434409E-006
  3.707433533833719E-003  1.388322918434409E-006
  3.709852808900618E-003  1.388322918434409E-006
  4.055065802149507E-003  1.388322918434409E-006
  4.055509873031405E-003  1.388322918434409E-006
 cut=1d-8, nber non-redundant internal coords=          90
 Check on Eigenvals of non-red overlap matrix:
  0.00000139  0.00000357  0.00000627  0.00000719  0.00001269  0.00002135  0.00002263  0.00002870
  0.00004270  0.00004716  0.00004967  0.00005021  0.00005747  0.00005775  0.00006130  0.00006177
  0.00006887  0.00007411  0.00008509  0.00009871  0.00010991  0.00011406  0.00011918  0.00012030
  0.00012539  0.00012583  0.00014726  0.00018277  0.00024205  0.00025396  0.00026388  0.00028127
  0.00028887  0.00033812  0.00035228  0.00036401  0.00038237  0.00040730  0.00044092  0.00052948
  0.00055022  0.00059305  0.00059305  0.00059332  0.00059352  0.00059647  0.00059946  0.00060082
  0.00060358  0.00060387  0.00061582  0.00062144  0.00062638  0.00064157  0.00064974  0.00065960
  0.00065991  0.00081815  0.00101654  0.00104067  0.00104136  0.00108006  0.00110469  0.00110741
  0.00110799  0.00113987  0.00114001  0.00115468  0.00116983  0.00117017  0.00117134  0.00117134
  0.00117145  0.00141433  0.00142619  0.00155437  0.00175619  0.00199410  0.00231934  0.00233327
  0.00233988  0.00252272  0.00311734  0.00316385  0.00361069  0.00367279  0.00370743  0.00370985
  0.00405507  0.00405551
 Checking for correct frequencies
 recalc frequencies=
    -0.0   -0.0    0.0    0.0    0.0    0.0   28.6   37.1   64.8   85.6
    96.4  156.5  187.1  227.1  260.3  364.8  400.1  407.7  407.9  412.5
   432.0  449.2  477.5  515.7  604.0  607.7  619.9  636.6  660.2  661.6
   695.0  699.4  745.6  750.8  765.2  775.3  794.0  794.2  807.7  868.7
   869.8  929.3  934.3  963.2  963.8  964.0  966.8  978.3  978.8  981.8
  1009.2 1018.7 1034.4 1036.5 1101.1 1108.9 1147.4 1162.1 1175.9 1203.0
  1211.2 1236.9 1253.9 1286.8 1326.6 1340.3 1346.8 1359.8 1370.6 1371.4
  1422.4 1458.4 1476.3 1482.5 1504.4 1510.8 1516.0 1541.5 1546.9 1608.1
  1633.8 1682.5 3159.9 3160.2 3165.4 3165.7 3179.6 3181.4 3185.1 3187.9
  3191.5 3194.7 3200.1 3202.7 3207.8 3210.7
 recalc symmetries=
                                                                       
                                                                       
                                                                       
                                                                       
                                                                       
                                                                       
                                                                       
                                                                       
                                                                       
                                           
 recalc freqs check OK
 Zero-point lengths:
 10.0000 10.0000 10.0000 10.0000 10.0000 10.0000 46.3971 40.7113 30.7934 26.7942
 25.2469 19.8189 18.1254 16.4502 15.3653 12.9804 12.3935 12.2774 12.2748 12.2068
 11.9275 11.6975 11.3451 10.9173 10.0877 10.0562  9.9568  9.8255  9.6482  9.6385
  9.4037  9.3741  9.0790  9.0474  8.9621  8.9032  8.7980  8.7967  8.7233  8.4111
  8.4059  8.1325  8.1107  7.9881  7.9854  7.9848  7.9730  7.9261  7.9239  7.9118
  7.8038  7.7674  7.7082  7.7003  7.4710  7.4448  7.3189  7.2724  7.2297  7.1477
  7.1235  7.0490  7.0010  6.9110  6.8065  6.7716  6.7553  6.7230  6.6965  6.6945
  6.5734  6.4917  6.4521  6.4388  6.3916  6.3781  6.3672  6.3143  6.3033  6.1821
  6.1334  6.0440  4.4102  4.4100  4.4063  4.4062  4.3965  4.3953  4.3927  4.3908
  4.3883  4.3861  4.3824  4.3806  4.3771  4.3752
 highest evec of mol 2
 -0.0151 -0.0011  0.0034
 -0.0143  0.0183  0.0016
  0.0297  0.0697 -0.0138
  0.0035  0.0003 -0.0008
 -0.0057 -0.0004  0.0013
 -0.0616  0.0969  0.0329
  0.0552  0.1053  0.0064
  0.0057  0.0004 -0.0013
 -0.0035 -0.0003  0.0008
 -0.0426  0.0648  0.0025
  0.0110  0.0202 -0.0041
  0.0151  0.0011 -0.0034
  0.0144 -0.0184 -0.0016
 -0.0299 -0.0702  0.0139
  0.0621 -0.0977 -0.0332
 -0.0558 -0.1064 -0.0064
  0.0430 -0.0655 -0.0026
 -0.0110 -0.0204  0.0041
  0.0457  0.0034 -0.0104
  0.0399 -0.0579 -0.0040
 -0.1018 -0.2331  0.0451
  0.1955 -0.3230 -0.1065
 -0.1740 -0.3495 -0.0225
  0.1441 -0.2166 -0.0104
 -0.0293 -0.0633  0.0118
 -0.0457 -0.0034  0.0104
 -0.0401  0.0582  0.0040
  0.1025  0.2348 -0.0456
 -0.1972  0.3259  0.1074
  0.1758  0.3534  0.0227
 -0.1455  0.2188  0.0106
  0.0295  0.0638 -0.0118
 Enter nber and list of atoms to keep of mol #2
 keep list:          32           1           2           3           4
           5           6           7           8           9          10
          11          12          13          14          15          16
          17          18          19          20          21          22
          23          24          25          26          27          28
          29          30          31          32
 reordering atoms
           1   5.73541445363651     
           2   5.02363873836798     
           3   3.64316499851747     
           4   2.88688922638143     
           5   1.45057514055119     
           6  0.683785382674562     
           7 -0.683581339117141     
           8  -1.45053501983324     
           9  -2.88692684926810     
          10  -3.64339208774898     
          11  -5.02388994310360     
          12  -5.73541080247121     
          13  -5.02385022153961     
          14  -3.64335958451706     
          15 -0.683784674583440     
          16  0.683585370449235     
          17   3.64359822081645     
          18   5.02407899078757     
          19   6.81907885512565     
          20   5.56189393011265     
          21   3.12867163976952     
          22   1.19680595161058     
          23  -1.19641773644521     
          24  -3.12911132903384     
          25  -5.56234451663112     
          26  -6.81907784546845     
          27  -5.56226502078839     
          28  -3.12904078166673     
          29  -1.19679432634049     
          30   1.19639127756700     
          31   3.12950428692140     
          32   5.56269383137499     
           1           1
           2           2
           3           3
           4           4
           5           5
           6           6
           7           7
           8           8
           9           9
          10          10
          11          11
          12          12
          13          13
          14          14
          15          15
          16          16
          17          17
          18          18
          19          19
          20          20
          21          21
          22          22
          23          23
          24          24
          25          25
          26          26
          27          27
          28          28
          29          29
          30          30
          31          31
          32          32
 initial cartes coords mol 1
   6  -0.00016   0.00006   5.72087
   6   0.24846  -1.17735   5.01856
   6   0.24883  -1.17719   3.62702
   6   0.00009  -0.00005   2.90547
   6   0.00010  -0.00003   1.42128
   6  -0.55058  -1.06534   0.69458
   6  -0.55064  -1.06529  -0.69456
   6   0.00002   0.00004  -1.42128
   6  -0.00002   0.00002  -2.90541
   6   0.24890  -1.17710  -3.62694
   6   0.24861  -1.17735  -5.01848
   6  -0.00008  -0.00004  -5.72093
   6  -0.24873   1.17731  -5.01852
   6  -0.24893   1.17713  -3.62697
   6   0.55074   1.06533  -0.69456
   6   0.55080   1.06529   0.69458
   6  -0.24877   1.17715   3.62688
   6  -0.24865   1.17741   5.01842
   1  -0.00027   0.00009   6.80496
   1   0.45165  -2.09736   5.55547
   1   0.46929  -2.09363   3.09152
   1  -1.01561  -1.88861   1.22494
   1  -1.01568  -1.88854  -1.22495
   1   0.46950  -2.09349  -3.09140
   1   0.45196  -2.09741  -5.55527
   1  -0.00009  -0.00006  -6.80502
   1  -0.45204   2.09736  -5.55533
   1  -0.46940   2.09358  -3.09148
   1   1.01597   1.88848  -1.22493
   1   1.01606   1.88841   1.22497
   1  -0.46914   2.09353   3.09125
   1  -0.45191   2.09748   5.55522
 initial cartes coords mol 2
   6   0.00033  -0.00031   5.73541
   6   0.08515  -1.20578   5.02364
   6   0.08199  -1.21390   3.64316
   6  -0.00001   0.00018   2.88689
   6  -0.00037   0.00026   1.45058
   6  -0.16835  -1.20497   0.68379
   6  -0.16819  -1.20512  -0.68358
   6  -0.00017  -0.00003  -1.45054
   6  -0.00002  -0.00010  -2.88693
   6   0.08285  -1.21399  -3.64339
   6   0.08605  -1.20556  -5.02389
   6   0.00035  -0.00003  -5.73541
   6  -0.08554   1.20548  -5.02385
   6  -0.08269   1.21380  -3.64336
   6   0.16752   1.20522  -0.68378
   6   0.16743   1.20539   0.68359
   6  -0.08173   1.21405   3.64360
   6  -0.08458   1.20540   5.02408
   1   0.00043  -0.00050   6.81908
   1   0.16017  -2.14451   5.56189
   1   0.17725  -2.16103   3.12867
   1  -0.34372  -2.14133   1.19681
   1  -0.34344  -2.14160  -1.19642
   1   0.17880  -2.16115  -3.12911
   1   0.16182  -2.14412  -5.56234
   1   0.00048  -0.00000  -6.81908
   1  -0.16115   2.14407  -5.56227
   1  -0.17881   2.16093  -3.12904
   1   0.34266   2.14163  -1.19679
   1   0.34242   2.14193   1.19639
   1  -0.17694   2.16139   3.12950
   1  -0.15943   2.14394   5.56269
 loop 1 0
 mod cartes coords mol 2
   6   0.00033  -0.00031   5.73541
   6   0.08515  -1.20578   5.02364
   6   0.08199  -1.21390   3.64316
   6  -0.00001   0.00018   2.88689
   6  -0.00037   0.00026   1.45058
   6  -0.16835  -1.20497   0.68379
   6  -0.16819  -1.20512  -0.68358
   6  -0.00017  -0.00003  -1.45054
   6  -0.00002  -0.00010  -2.88693
   6   0.08285  -1.21399  -3.64339
   6   0.08605  -1.20556  -5.02389
   6   0.00035  -0.00003  -5.73541
   6  -0.08554   1.20548  -5.02385
   6  -0.08269   1.21380  -3.64336
   6   0.16752   1.20522  -0.68378
   6   0.16743   1.20539   0.68359
   6  -0.08173   1.21405   3.64360
   6  -0.08458   1.20540   5.02408
   1   0.00043  -0.00050   6.81908
   1   0.16017  -2.14451   5.56189
   1   0.17725  -2.16103   3.12867
   1  -0.34372  -2.14133   1.19681
   1  -0.34344  -2.14160  -1.19642
   1   0.17880  -2.16115  -3.12911
   1   0.16182  -2.14412  -5.56234
   1   0.00048  -0.00000  -6.81908
   1  -0.16115   2.14407  -5.56227
   1  -0.17881   2.16093  -3.12904
   1   0.34266   2.14163  -1.19679
   1   0.34242   2.14193   1.19639
   1  -0.17694   2.16139   3.12950
   1  -0.15943   2.14394   5.56269
 read in order, maxerr=  0.72 for atom  30
 loop 1 1
 mod cartes coords mol 2
   6  -0.00033  -0.00031   5.73541
   6  -0.08515  -1.20578   5.02364
   6  -0.08199  -1.21390   3.64316
   6   0.00001   0.00018   2.88689
   6   0.00037   0.00026   1.45058
   6   0.16835  -1.20497   0.68379
   6   0.16819  -1.20512  -0.68358
   6   0.00017  -0.00003  -1.45054
   6   0.00002  -0.00010  -2.88693
   6  -0.08285  -1.21399  -3.64339
   6  -0.08605  -1.20556  -5.02389
   6  -0.00035  -0.00003  -5.73541
   6   0.08554   1.20548  -5.02385
   6   0.08269   1.21380  -3.64336
   6  -0.16752   1.20522  -0.68378
   6  -0.16743   1.20539   0.68359
   6   0.08173   1.21405   3.64360
   6   0.08458   1.20540   5.02408
   1  -0.00043  -0.00050   6.81908
   1  -0.16017  -2.14451   5.56189
   1  -0.17725  -2.16103   3.12867
   1   0.34372  -2.14133   1.19681
   1   0.34344  -2.14160  -1.19642
   1  -0.17880  -2.16115  -3.12911
   1  -0.16182  -2.14412  -5.56234
   1  -0.00048  -0.00000  -6.81908
   1   0.16115   2.14407  -5.56227
   1   0.17881   2.16093  -3.12904
   1  -0.34266   2.14163  -1.19679
   1  -0.34242   2.14193   1.19639
   1   0.17694   2.16139   3.12950
   1   0.15943   2.14394   5.56269
 read in order, maxerr=  1.38 for atom  22
 loop 1 2
 mod cartes coords mol 2
   6   0.00033   0.00031   5.73541
   6   0.08515   1.20578   5.02364
   6   0.08199   1.21390   3.64316
   6  -0.00001  -0.00018   2.88689
   6  -0.00037  -0.00026   1.45058
   6  -0.16835   1.20497   0.68379
   6  -0.16819   1.20512  -0.68358
   6  -0.00017   0.00003  -1.45054
   6  -0.00002   0.00010  -2.88693
   6   0.08285   1.21399  -3.64339
   6   0.08605   1.20556  -5.02389
   6   0.00035   0.00003  -5.73541
   6  -0.08554  -1.20548  -5.02385
   6  -0.08269  -1.21380  -3.64336
   6   0.16752  -1.20522  -0.68378
   6   0.16743  -1.20539   0.68359
   6  -0.08173  -1.21405   3.64360
   6  -0.08458  -1.20540   5.02408
   1   0.00043   0.00050   6.81908
   1   0.16017   2.14451   5.56189
   1   0.17725   2.16103   3.12867
   1  -0.34372   2.14133   1.19681
   1  -0.34344   2.14160  -1.19642
   1   0.17880   2.16115  -3.12911
   1   0.16182   2.14412  -5.56234
   1   0.00048   0.00000  -6.81908
   1  -0.16115  -2.14407  -5.56227
   1  -0.17881  -2.16093  -3.12904
   1   0.34266  -2.14163  -1.19679
   1   0.34242  -2.14193   1.19639
   1  -0.17694  -2.16139   3.12950
   1  -0.15943  -2.14394   5.56269
 read in order, maxerr=  4.27 for atom  31
 loop 1 3
 mod cartes coords mol 2
   6  -0.00033   0.00031   5.73541
   6  -0.08515   1.20578   5.02364
   6  -0.08199   1.21390   3.64316
   6   0.00001  -0.00018   2.88689
   6   0.00037  -0.00026   1.45058
   6   0.16835   1.20497   0.68379
   6   0.16819   1.20512  -0.68358
   6   0.00017   0.00003  -1.45054
   6   0.00002   0.00010  -2.88693
   6  -0.08285   1.21399  -3.64339
   6  -0.08605   1.20556  -5.02389
   6  -0.00035   0.00003  -5.73541
   6   0.08554  -1.20548  -5.02385
   6   0.08269  -1.21380  -3.64336
   6  -0.16752  -1.20522  -0.68378
   6  -0.16743  -1.20539   0.68359
   6   0.08173  -1.21405   3.64360
   6   0.08458  -1.20540   5.02408
   1  -0.00043   0.00050   6.81908
   1  -0.16017   2.14451   5.56189
   1  -0.17725   2.16103   3.12867
   1   0.34372   2.14133   1.19681
   1   0.34344   2.14160  -1.19642
   1  -0.17880   2.16115  -3.12911
   1  -0.16182   2.14412  -5.56234
   1  -0.00048   0.00000  -6.81908
   1   0.16115  -2.14407  -5.56227
   1   0.17881  -2.16093  -3.12904
   1  -0.34266  -2.14163  -1.19679
   1  -0.34242  -2.14193   1.19639
   1   0.17694  -2.16139   3.12950
   1   0.15943  -2.14394   5.56269
 read in order, maxerr=  4.30 for atom  24
 loop 1 4
 mod cartes coords mol 2
   6   0.00033  -0.00031  -5.73541
   6   0.08515  -1.20578  -5.02364
   6   0.08199  -1.21390  -3.64316
   6  -0.00001   0.00018  -2.88689
   6  -0.00037   0.00026  -1.45058
   6  -0.16835  -1.20497  -0.68379
   6  -0.16819  -1.20512   0.68358
   6  -0.00017  -0.00003   1.45054
   6  -0.00002  -0.00010   2.88693
   6   0.08285  -1.21399   3.64339
   6   0.08605  -1.20556   5.02389
   6   0.00035  -0.00003   5.73541
   6  -0.08554   1.20548   5.02385
   6  -0.08269   1.21380   3.64336
   6   0.16752   1.20522   0.68378
   6   0.16743   1.20539  -0.68359
   6  -0.08173   1.21405  -3.64360
   6  -0.08458   1.20540  -5.02408
   1   0.00043  -0.00050  -6.81908
   1   0.16017  -2.14451  -5.56189
   1   0.17725  -2.16103  -3.12867
   1  -0.34372  -2.14133  -1.19681
   1  -0.34344  -2.14160   1.19642
   1   0.17880  -2.16115   3.12911
   1   0.16182  -2.14412   5.56234
   1   0.00048  -0.00000   6.81908
   1  -0.16115   2.14407   5.56227
   1  -0.17881   2.16093   3.12904
   1   0.34266   2.14163   1.19679
   1   0.34242   2.14193  -1.19639
   1  -0.17694   2.16139  -3.12950
   1  -0.15943   2.14394  -5.56269
 read in order, maxerr= 13.62 for atom  26
 loop 1 5
 mod cartes coords mol 2
   6  -0.00033  -0.00031  -5.73541
   6  -0.08515  -1.20578  -5.02364
   6  -0.08199  -1.21390  -3.64316
   6   0.00001   0.00018  -2.88689
   6   0.00037   0.00026  -1.45058
   6   0.16835  -1.20497  -0.68379
   6   0.16819  -1.20512   0.68358
   6   0.00017  -0.00003   1.45054
   6   0.00002  -0.00010   2.88693
   6  -0.08285  -1.21399   3.64339
   6  -0.08605  -1.20556   5.02389
   6  -0.00035  -0.00003   5.73541
   6   0.08554   1.20548   5.02385
   6   0.08269   1.21380   3.64336
   6  -0.16752   1.20522   0.68378
   6  -0.16743   1.20539  -0.68359
   6   0.08173   1.21405  -3.64360
   6   0.08458   1.20540  -5.02408
   1  -0.00043  -0.00050  -6.81908
   1  -0.16017  -2.14451  -5.56189
   1  -0.17725  -2.16103  -3.12867
   1   0.34372  -2.14133  -1.19681
   1   0.34344  -2.14160   1.19642
   1  -0.17880  -2.16115   3.12911
   1  -0.16182  -2.14412   5.56234
   1  -0.00048  -0.00000   6.81908
   1   0.16115   2.14407   5.56227
   1   0.17881   2.16093   3.12904
   1  -0.34266   2.14163   1.19679
   1  -0.34242   2.14193  -1.19639
   1   0.17694   2.16139  -3.12950
   1   0.15943   2.14394  -5.56269
 read in order, maxerr= 13.62 for atom  26
 loop 1 6
 mod cartes coords mol 2
   6   0.00033   0.00031  -5.73541
   6   0.08515   1.20578  -5.02364
   6   0.08199   1.21390  -3.64316
   6  -0.00001  -0.00018  -2.88689
   6  -0.00037  -0.00026  -1.45058
   6  -0.16835   1.20497  -0.68379
   6  -0.16819   1.20512   0.68358
   6  -0.00017   0.00003   1.45054
   6  -0.00002   0.00010   2.88693
   6   0.08285   1.21399   3.64339
   6   0.08605   1.20556   5.02389
   6   0.00035   0.00003   5.73541
   6  -0.08554  -1.20548   5.02385
   6  -0.08269  -1.21380   3.64336
   6   0.16752  -1.20522   0.68378
   6   0.16743  -1.20539  -0.68359
   6  -0.08173  -1.21405  -3.64360
   6  -0.08458  -1.20540  -5.02408
   1   0.00043   0.00050  -6.81908
   1   0.16017   2.14451  -5.56189
   1   0.17725   2.16103  -3.12867
   1  -0.34372   2.14133  -1.19681
   1  -0.34344   2.14160   1.19642
   1   0.17880   2.16115   3.12911
   1   0.16182   2.14412   5.56234
   1   0.00048   0.00000   6.81908
   1  -0.16115  -2.14407   5.56227
   1  -0.17881  -2.16093   3.12904
   1   0.34266  -2.14163   1.19679
   1   0.34242  -2.14193  -1.19639
   1  -0.17694  -2.16139  -3.12950
   1  -0.15943  -2.14394  -5.56269
 read in order, maxerr= 13.62 for atom  26
 loop 1 7
 mod cartes coords mol 2
   6  -0.00033   0.00031  -5.73541
   6  -0.08515   1.20578  -5.02364
   6  -0.08199   1.21390  -3.64316
   6   0.00001  -0.00018  -2.88689
   6   0.00037  -0.00026  -1.45058
   6   0.16835   1.20497  -0.68379
   6   0.16819   1.20512   0.68358
   6   0.00017   0.00003   1.45054
   6   0.00002   0.00010   2.88693
   6  -0.08285   1.21399   3.64339
   6  -0.08605   1.20556   5.02389
   6  -0.00035   0.00003   5.73541
   6   0.08554  -1.20548   5.02385
   6   0.08269  -1.21380   3.64336
   6  -0.16752  -1.20522   0.68378
   6  -0.16743  -1.20539  -0.68359
   6   0.08173  -1.21405  -3.64360
   6   0.08458  -1.20540  -5.02408
   1  -0.00043   0.00050  -6.81908
   1  -0.16017   2.14451  -5.56189
   1  -0.17725   2.16103  -3.12867
   1   0.34372   2.14133  -1.19681
   1   0.34344   2.14160   1.19642
   1  -0.17880   2.16115   3.12911
   1  -0.16182   2.14412   5.56234
   1  -0.00048   0.00000   6.81908
   1   0.16115  -2.14407   5.56227
   1   0.17881  -2.16093   3.12904
   1  -0.34266  -2.14163   1.19679
   1  -0.34242  -2.14193  -1.19639
   1   0.17694  -2.16139  -3.12950
   1   0.15943  -2.14394  -5.56269
 read in order, maxerr= 13.62 for atom  26
 loop 2 0
 mod cartes coords mol 2
   6   0.00033   5.73541  -0.00031
   6   0.08515   5.02364  -1.20578
   6   0.08199   3.64316  -1.21390
   6  -0.00001   2.88689   0.00018
   6  -0.00037   1.45058   0.00026
   6  -0.16835   0.68379  -1.20497
   6  -0.16819  -0.68358  -1.20512
   6  -0.00017  -1.45054  -0.00003
   6  -0.00002  -2.88693  -0.00010
   6   0.08285  -3.64339  -1.21399
   6   0.08605  -5.02389  -1.20556
   6   0.00035  -5.73541  -0.00003
   6  -0.08554  -5.02385   1.20548
   6  -0.08269  -3.64336   1.21380
   6   0.16752  -0.68378   1.20522
   6   0.16743   0.68359   1.20539
   6  -0.08173   3.64360   1.21405
   6  -0.08458   5.02408   1.20540
   1   0.00043   6.81908  -0.00050
   1   0.16017   5.56189  -2.14451
   1   0.17725   3.12867  -2.16103
   1  -0.34372   1.19681  -2.14133
   1  -0.34344  -1.19642  -2.14160
   1   0.17880  -3.12911  -2.16115
   1   0.16182  -5.56234  -2.14412
   1   0.00048  -6.81908  -0.00000
   1  -0.16115  -5.56227   2.14407
   1  -0.17881  -3.12904   2.16093
   1   0.34266  -1.19679   2.14163
   1   0.34242   1.19639   2.14193
   1  -0.17694   3.12950   2.16139
   1  -0.15943   5.56269   2.14394
 read in order, maxerr= 10.86 for atom  20
 loop 2 1
 mod cartes coords mol 2
   6  -0.00033   5.73541  -0.00031
   6  -0.08515   5.02364  -1.20578
   6  -0.08199   3.64316  -1.21390
   6   0.00001   2.88689   0.00018
   6   0.00037   1.45058   0.00026
   6   0.16835   0.68379  -1.20497
   6   0.16819  -0.68358  -1.20512
   6   0.00017  -1.45054  -0.00003
   6   0.00002  -2.88693  -0.00010
   6  -0.08285  -3.64339  -1.21399
   6  -0.08605  -5.02389  -1.20556
   6  -0.00035  -5.73541  -0.00003
   6   0.08554  -5.02385   1.20548
   6   0.08269  -3.64336   1.21380
   6  -0.16752  -0.68378   1.20522
   6  -0.16743   0.68359   1.20539
   6   0.08173   3.64360   1.21405
   6   0.08458   5.02408   1.20540
   1  -0.00043   6.81908  -0.00050
   1  -0.16017   5.56189  -2.14451
   1  -0.17725   3.12867  -2.16103
   1   0.34372   1.19681  -2.14133
   1   0.34344  -1.19642  -2.14160
   1  -0.17880  -3.12911  -2.16115
   1  -0.16182  -5.56234  -2.14412
   1  -0.00048  -6.81908  -0.00000
   1   0.16115  -5.56227   2.14407
   1   0.17881  -3.12904   2.16093
   1  -0.34266  -1.19679   2.14163
   1  -0.34242   1.19639   2.14193
   1   0.17694   3.12950   2.16139
   1   0.15943   5.56269   2.14394
 read in order, maxerr= 10.88 for atom  20
 loop 2 2
 mod cartes coords mol 2
   6   0.00033   5.73541   0.00031
   6   0.08515   5.02364   1.20578
   6   0.08199   3.64316   1.21390
   6  -0.00001   2.88689  -0.00018
   6  -0.00037   1.45058  -0.00026
   6  -0.16835   0.68379   1.20497
   6  -0.16819  -0.68358   1.20512
   6  -0.00017  -1.45054   0.00003
   6  -0.00002  -2.88693   0.00010
   6   0.08285  -3.64339   1.21399
   6   0.08605  -5.02389   1.20556
   6   0.00035  -5.73541   0.00003
   6  -0.08554  -5.02385  -1.20548
   6  -0.08269  -3.64336  -1.21380
   6   0.16752  -0.68378  -1.20522
   6   0.16743   0.68359  -1.20539
   6  -0.08173   3.64360  -1.21405
   6  -0.08458   5.02408  -1.20540
   1   0.00043   6.81908   0.00050
   1   0.16017   5.56189   2.14451
   1   0.17725   3.12867   2.16103
   1  -0.34372   1.19681   2.14133
   1  -0.34344  -1.19642   2.14160
   1   0.17880  -3.12911   2.16115
   1   0.16182  -5.56234   2.14412
   1   0.00048  -6.81908   0.00000
   1  -0.16115  -5.56227  -2.14407
   1  -0.17881  -3.12904  -2.16093
   1   0.34266  -1.19679  -2.14163
   1   0.34242   1.19639  -2.14193
   1  -0.17694   3.12950  -2.16139
   1  -0.15943   5.56269  -2.14394
 read in order, maxerr=  9.63 for atom  26
 loop 2 3
 mod cartes coords mol 2
   6  -0.00033   5.73541   0.00031
   6  -0.08515   5.02364   1.20578
   6  -0.08199   3.64316   1.21390
   6   0.00001   2.88689  -0.00018
   6   0.00037   1.45058  -0.00026
   6   0.16835   0.68379   1.20497
   6   0.16819  -0.68358   1.20512
   6   0.00017  -1.45054   0.00003
   6   0.00002  -2.88693   0.00010
   6  -0.08285  -3.64339   1.21399
   6  -0.08605  -5.02389   1.20556
   6  -0.00035  -5.73541   0.00003
   6   0.08554  -5.02385  -1.20548
   6   0.08269  -3.64336  -1.21380
   6  -0.16752  -0.68378  -1.20522
   6  -0.16743   0.68359  -1.20539
   6   0.08173   3.64360  -1.21405
   6   0.08458   5.02408  -1.20540
   1  -0.00043   6.81908   0.00050
   1  -0.16017   5.56189   2.14451
   1  -0.17725   3.12867   2.16103
   1   0.34372   1.19681   2.14133
   1   0.34344  -1.19642   2.14160
   1  -0.17880  -3.12911   2.16115
   1  -0.16182  -5.56234   2.14412
   1  -0.00048  -6.81908   0.00000
   1   0.16115  -5.56227  -2.14407
   1   0.17881  -3.12904  -2.16093
   1  -0.34266  -1.19679  -2.14163
   1  -0.34242   1.19639  -2.14193
   1   0.17694   3.12950  -2.16139
   1   0.15943   5.56269  -2.14394
 read in order, maxerr=  9.63 for atom  26
 loop 2 4
 mod cartes coords mol 2
   6   0.00033  -5.73541  -0.00031
   6   0.08515  -5.02364  -1.20578
   6   0.08199  -3.64316  -1.21390
   6  -0.00001  -2.88689   0.00018
   6  -0.00037  -1.45058   0.00026
   6  -0.16835  -0.68379  -1.20497
   6  -0.16819   0.68358  -1.20512
   6  -0.00017   1.45054  -0.00003
   6  -0.00002   2.88693  -0.00010
   6   0.08285   3.64339  -1.21399
   6   0.08605   5.02389  -1.20556
   6   0.00035   5.73541  -0.00003
   6  -0.08554   5.02385   1.20548
   6  -0.08269   3.64336   1.21380
   6   0.16752   0.68378   1.20522
   6   0.16743  -0.68359   1.20539
   6  -0.08173  -3.64360   1.21405
   6  -0.08458  -5.02408   1.20540
   1   0.00043  -6.81908  -0.00050
   1   0.16017  -5.56189  -2.14451
   1   0.17725  -3.12867  -2.16103
   1  -0.34372  -1.19681  -2.14133
   1  -0.34344   1.19642  -2.14160
   1   0.17880   3.12911  -2.16115
   1   0.16182   5.56234  -2.14412
   1   0.00048   6.81908  -0.00000
   1  -0.16115   5.56227   2.14407
   1  -0.17881   3.12904   2.16093
   1   0.34266   1.19679   2.14163
   1   0.34242  -1.19639   2.14193
   1  -0.17694  -3.12950   2.16139
   1  -0.15943  -5.56269   2.14394
 read in order, maxerr=  9.63 for atom  19
 loop 2 5
 mod cartes coords mol 2
   6  -0.00033  -5.73541  -0.00031
   6  -0.08515  -5.02364  -1.20578
   6  -0.08199  -3.64316  -1.21390
   6   0.00001  -2.88689   0.00018
   6   0.00037  -1.45058   0.00026
   6   0.16835  -0.68379  -1.20497
   6   0.16819   0.68358  -1.20512
   6   0.00017   1.45054  -0.00003
   6   0.00002   2.88693  -0.00010
   6  -0.08285   3.64339  -1.21399
   6  -0.08605   5.02389  -1.20556
   6  -0.00035   5.73541  -0.00003
   6   0.08554   5.02385   1.20548
   6   0.08269   3.64336   1.21380
   6  -0.16752   0.68378   1.20522
   6  -0.16743  -0.68359   1.20539
   6   0.08173  -3.64360   1.21405
   6   0.08458  -5.02408   1.20540
   1  -0.00043  -6.81908  -0.00050
   1  -0.16017  -5.56189  -2.14451
   1  -0.17725  -3.12867  -2.16103
   1   0.34372  -1.19681  -2.14133
   1   0.34344   1.19642  -2.14160
   1  -0.17880   3.12911  -2.16115
   1  -0.16182   5.56234  -2.14412
   1  -0.00048   6.81908  -0.00000
   1   0.16115   5.56227   2.14407
   1   0.17881   3.12904   2.16093
   1  -0.34266   1.19679   2.14163
   1  -0.34242  -1.19639   2.14193
   1   0.17694  -3.12950   2.16139
   1   0.15943  -5.56269   2.14394
 read in order, maxerr=  9.63 for atom  19
 loop 2 6
 mod cartes coords mol 2
   6   0.00033  -5.73541   0.00031
   6   0.08515  -5.02364   1.20578
   6   0.08199  -3.64316   1.21390
   6  -0.00001  -2.88689  -0.00018
   6  -0.00037  -1.45058  -0.00026
   6  -0.16835  -0.68379   1.20497
   6  -0.16819   0.68358   1.20512
   6  -0.00017   1.45054   0.00003
   6  -0.00002   2.88693   0.00010
   6   0.08285   3.64339   1.21399
   6   0.08605   5.02389   1.20556
   6   0.00035   5.73541   0.00003
   6  -0.08554   5.02385  -1.20548
   6  -0.08269   3.64336  -1.21380
   6   0.16752   0.68378  -1.20522
   6   0.16743  -0.68359  -1.20539
   6  -0.08173  -3.64360  -1.21405
   6  -0.08458  -5.02408  -1.20540
   1   0.00043  -6.81908   0.00050
   1   0.16017  -5.56189   2.14451
   1   0.17725  -3.12867   2.16103
   1  -0.34372  -1.19681   2.14133
   1  -0.34344   1.19642   2.14160
   1   0.17880   3.12911   2.16115
   1   0.16182   5.56234   2.14412
   1   0.00048   6.81908   0.00000
   1  -0.16115   5.56227  -2.14407
   1  -0.17881   3.12904  -2.16093
   1   0.34266   1.19679  -2.14163
   1   0.34242  -1.19639  -2.14193
   1  -0.17694  -3.12950  -2.16139
   1  -0.15943  -5.56269  -2.14394
 read in order, maxerr= 10.86 for atom  32
 loop 2 7
 mod cartes coords mol 2
   6  -0.00033  -5.73541   0.00031
   6  -0.08515  -5.02364   1.20578
   6  -0.08199  -3.64316   1.21390
   6   0.00001  -2.88689  -0.00018
   6   0.00037  -1.45058  -0.00026
   6   0.16835  -0.68379   1.20497
   6   0.16819   0.68358   1.20512
   6   0.00017   1.45054   0.00003
   6   0.00002   2.88693   0.00010
   6  -0.08285   3.64339   1.21399
   6  -0.08605   5.02389   1.20556
   6  -0.00035   5.73541   0.00003
   6   0.08554   5.02385  -1.20548
   6   0.08269   3.64336  -1.21380
   6  -0.16752   0.68378  -1.20522
   6  -0.16743  -0.68359  -1.20539
   6   0.08173  -3.64360  -1.21405
   6   0.08458  -5.02408  -1.20540
   1  -0.00043  -6.81908   0.00050
   1  -0.16017  -5.56189   2.14451
   1  -0.17725  -3.12867   2.16103
   1   0.34372  -1.19681   2.14133
   1   0.34344   1.19642   2.14160
   1  -0.17880   3.12911   2.16115
   1  -0.16182   5.56234   2.14412
   1  -0.00048   6.81908   0.00000
   1   0.16115   5.56227  -2.14407
   1   0.17881   3.12904  -2.16093
   1  -0.34266   1.19679  -2.14163
   1  -0.34242  -1.19639  -2.14193
   1   0.17694  -3.12950  -2.16139
   1   0.15943  -5.56269  -2.14394
 read in order, maxerr= 10.88 for atom  25
 loop 3 0
 mod cartes coords mol 2
   6  -0.00031   0.00033   5.73541
   6  -1.20578   0.08515   5.02364
   6  -1.21390   0.08199   3.64316
   6   0.00018  -0.00001   2.88689
   6   0.00026  -0.00037   1.45058
   6  -1.20497  -0.16835   0.68379
   6  -1.20512  -0.16819  -0.68358
   6  -0.00003  -0.00017  -1.45054
   6  -0.00010  -0.00002  -2.88693
   6  -1.21399   0.08285  -3.64339
   6  -1.20556   0.08605  -5.02389
   6  -0.00003   0.00035  -5.73541
   6   1.20548  -0.08554  -5.02385
   6   1.21380  -0.08269  -3.64336
   6   1.20522   0.16752  -0.68378
   6   1.20539   0.16743   0.68359
   6   1.21405  -0.08173   3.64360
   6   1.20540  -0.08458   5.02408
   1  -0.00050   0.00043   6.81908
   1  -2.14451   0.16017   5.56189
   1  -2.16103   0.17725   3.12867
   1  -2.14133  -0.34372   1.19681
   1  -2.14160  -0.34344  -1.19642
   1  -2.16115   0.17880  -3.12911
   1  -2.14412   0.16182  -5.56234
   1  -0.00000   0.00048  -6.81908
   1   2.14407  -0.16115  -5.56227
   1   2.16093  -0.17881  -3.12904
   1   2.14163   0.34266  -1.19679
   1   2.14193   0.34242   1.19639
   1   2.16139  -0.17694   3.12950
   1   2.14394  -0.15943   5.56269
 read in order, maxerr=  3.48 for atom  24
 loop 3 1
 mod cartes coords mol 2
   6  -0.00031  -0.00033   5.73541
   6  -1.20578  -0.08515   5.02364
   6  -1.21390  -0.08199   3.64316
   6   0.00018   0.00001   2.88689
   6   0.00026   0.00037   1.45058
   6  -1.20497   0.16835   0.68379
   6  -1.20512   0.16819  -0.68358
   6  -0.00003   0.00017  -1.45054
   6  -0.00010   0.00002  -2.88693
   6  -1.21399  -0.08285  -3.64339
   6  -1.20556  -0.08605  -5.02389
   6  -0.00003  -0.00035  -5.73541
   6   1.20548   0.08554  -5.02385
   6   1.21380   0.08269  -3.64336
   6   1.20522  -0.16752  -0.68378
   6   1.20539  -0.16743   0.68359
   6   1.21405   0.08173   3.64360
   6   1.20540   0.08458   5.02408
   1  -0.00050  -0.00043   6.81908
   1  -2.14451  -0.16017   5.56189
   1  -2.16103  -0.17725   3.12867
   1  -2.14133   0.34372   1.19681
   1  -2.14160   0.34344  -1.19642
   1  -2.16115  -0.17880  -3.12911
   1  -2.14412  -0.16182  -5.56234
   1  -0.00000  -0.00048  -6.81908
   1   2.14407   0.16115  -5.56227
   1   2.16093   0.17881  -3.12904
   1   2.14163  -0.34266  -1.19679
   1   2.14193  -0.34242   1.19639
   1   2.16139   0.17694   3.12950
   1   2.14394   0.15943   5.56269
 read in order, maxerr=  3.25 for atom  31
 loop 3 2
 mod cartes coords mol 2
   6   0.00031   0.00033   5.73541
   6   1.20578   0.08515   5.02364
   6   1.21390   0.08199   3.64316
   6  -0.00018  -0.00001   2.88689
   6  -0.00026  -0.00037   1.45058
   6   1.20497  -0.16835   0.68379
   6   1.20512  -0.16819  -0.68358
   6   0.00003  -0.00017  -1.45054
   6   0.00010  -0.00002  -2.88693
   6   1.21399   0.08285  -3.64339
   6   1.20556   0.08605  -5.02389
   6   0.00003   0.00035  -5.73541
   6  -1.20548  -0.08554  -5.02385
   6  -1.21380  -0.08269  -3.64336
   6  -1.20522   0.16752  -0.68378
   6  -1.20539   0.16743   0.68359
   6  -1.21405  -0.08173   3.64360
   6  -1.20540  -0.08458   5.02408
   1   0.00050   0.00043   6.81908
   1   2.14451   0.16017   5.56189
   1   2.16103   0.17725   3.12867
   1   2.14133  -0.34372   1.19681
   1   2.14160  -0.34344  -1.19642
   1   2.16115   0.17880  -3.12911
   1   2.14412   0.16182  -5.56234
   1   0.00000   0.00048  -6.81908
   1  -2.14407  -0.16115  -5.56227
   1  -2.16093  -0.17881  -3.12904
   1  -2.14163   0.34266  -1.19679
   1  -2.14193   0.34242   1.19639
   1  -2.16139  -0.17694   3.12950
   1  -2.14394  -0.15943   5.56269
 read in order, maxerr=  3.52 for atom  30
 loop 3 3
 mod cartes coords mol 2
   6   0.00031  -0.00033   5.73541
   6   1.20578  -0.08515   5.02364
[...]
  45       983.  0.8166    66.7    99.5  43       934.
                 0.3843    14.8          44       963.
                -0.3838    14.7          47       967.
  46      1002. -0.9857    97.2    99.7  48       978.
  47      1002.  0.9765    95.4    99.7  49       979.
  48      1013.  0.8339    69.5    99.8  46       964.
                 0.3678    13.5          51      1009.
                -0.3435    11.8          54      1036.
  49      1016.  0.4536    20.6    99.4  44       963.
                 0.5718    32.7          47       967.
                 0.5252    27.6          50       982.
  50      1022. -0.3167    10.0    99.3  44       963.
                -0.4641    21.5          47       967.
                 0.4380    19.2          50       982.
                 0.6903    47.7          52      1019.
  51      1025. -0.3815    14.6    99.6  46       964.
                 0.9137    83.5          51      1009.
  52      1046. -0.4372    19.1   100.6  50       982.
                 0.5530    30.6          52      1019.
                -0.6287    39.5          53      1034.
  53      1060.  0.9337    87.2   100.2  54      1036.
  54      1069.  0.5674    32.2   100.1  50       982.
                -0.3619    13.1          52      1019.
                -0.7327    53.7          53      1034.
  55      1103.  0.9253    85.6    98.8  56      1109.
  56      1104.  0.9452    89.3    99.1  55      1101.
  57      1140. -0.8705    75.8    99.0  57      1147.
                -0.3184    10.1          64      1287.
  58      1182. -0.8851    78.3   100.1  58      1162.
                 0.4222    17.8          62      1237.
  59      1183.  0.9305    86.6   100.0  59      1176.
  60      1204.  0.9816    96.4   100.5  60      1203.
  61      1205.  0.9831    96.7   100.4  61      1211.
  62      1214. -0.9799    96.0   100.8  63      1254.
  63      1287. -0.3606    13.0    99.2  57      1147.
                 0.7715    59.5          64      1287.
  64      1303.  0.9866    97.3   100.1  70      1371.
  65      1305. -0.5206    27.1    99.5  62      1237.
                -0.3705    13.7          65      1327.
                 0.4567    20.9          68      1360.
                 0.3923    15.4          71      1422.
  66      1305. -0.9884    97.7    99.9  67      1347.
  67      1325. -0.4754    22.6   100.7  66      1340.
                -0.3923    15.4          69      1371.
  68      1342. -0.3194    10.2   100.7  62      1237.
                 0.7116    50.6          65      1327.
                 0.3934    15.5          71      1422.
  69      1354. -0.8490    72.1   100.1  68      1360.
  70      1359.  0.9031    81.6   100.4  69      1371.
  71      1431. -0.5367    28.8    99.0  72      1458.
                -0.5482    30.1          75      1504.
  72      1472. -0.5554    30.8    99.4  71      1422.
                 0.6113    37.4          74      1482.
                -0.3861    14.9          78      1541.
  73      1484. -0.5171    26.7   100.2  72      1458.
                 0.6555    43.0          75      1504.
  74      1517. -0.9403    88.4    99.9  73      1476.
                -0.3180    10.1          76      1511.
  75      1528. -0.9846    97.0    99.8  77      1516.
  76      1552. -0.3214    10.3    99.6  73      1476.
                 0.8892    79.1          76      1511.
  77      1587. -0.4393    19.3    99.6  62      1237.
                -0.5384    29.0          71      1422.
                -0.4234    17.9          74      1482.
                 0.3546    12.6          78      1541.
  78      1618.  0.3512    12.3    99.9  72      1458.
                -0.8176    66.8          79      1547.
  79      1623.  0.4912    24.1   100.3  74      1482.
                 0.8232    67.8          78      1541.
  80      1643. -0.5560    30.9   100.0  81      1634.
                -0.8271    68.4          82      1682.
  81      1644. -0.9504    90.3   100.0  80      1608.
  82      1652. -0.8250    68.1   100.1  81      1634.
                 0.5536    30.6          82      1682.
  83      3159.  0.9725    94.6   100.0  83      3160.
  84      3159. -0.9773    95.5   100.0  84      3160.
  85      3164. -0.7907    62.5   100.0  85      3165.
                 0.6065    36.8          88      3181.
  86      3165.  0.9208    84.8   100.0  86      3166.
                -0.3496    12.2          91      3191.
  87      3166.  0.8957    80.2   100.0  87      3180.
  88      3168.  0.5005    25.1   100.0  85      3165.
                 0.7142    51.0          88      3181.
                 0.4888    23.9          93      3200.
  89      3175. -0.8991    80.8   100.0  89      3185.
                -0.3768    14.2          92      3195.
  90      3176.  0.4231    17.9   100.0  87      3180.
                -0.6464    41.8          90      3188.
                -0.6282    39.5          94      3203.
  91      3180. -0.3279    10.7   100.0  86      3166.
                -0.9333    87.1          91      3191.
  92      3182. -0.3508    12.3   100.0  85      3165.
                -0.3489    12.2          88      3181.
                 0.8687    75.5          93      3200.
  93      3184. -0.9748    95.0   100.0  95      3208.
  94      3185.  0.6432    41.4   100.0  92      3195.
                -0.7579    57.4          96      3211.
  95      3190.  0.6912    47.8   100.0  90      3188.
                -0.6988    48.8          94      3203.
  96      3190. -0.4242    18.0   100.0  89      3185.
                 0.6438    41.4          92      3195.
                 0.6104    37.3          96      3211.
 nber times 1st assigned=           1           0
 nber times 1st assigned=           2           0
 nber times 1st assigned=           3           0
 nber times 1st assigned=           4           0
 nber times 1st assigned=           5           0
 nber times 1st assigned=           6           0
 nber times 1st assigned=           7           0
 nber times 1st assigned=           8           0
 nber times 1st assigned=           9           0
 nber times 1st assigned=          10           0
 nber times 1st assigned=          11           0
 nber times 1st assigned=          12           0
 nber times 1st assigned=          13           0
 nber times 1st assigned=          14           0
 nber times 1st assigned=          15           0
 nber times 1st assigned=          16           0
 nber times 1st assigned=          17           0
 nber times 1st assigned=          18           0
 nber times 1st assigned=          19           0
 nber times 1st assigned=          20           0
 nber times 1st assigned=          21           0
 nber times 1st assigned=          22           0
 nber times 1st assigned=          23           0
 nber times 1st assigned=          24           0
 nber times 1st assigned=          25           0
 nber times 1st assigned=          26           0
 nber times 1st assigned=          27           0
 nber times 1st assigned=          28           0
 nber times 1st assigned=          29           0
 nber times 1st assigned=          30           0
 nber times 1st assigned=          31           0
 nber times 1st assigned=          32           0
 nber times 1st assigned=          33           0
 nber times 1st assigned=          34           0
 nber times 1st assigned=          35           0
 nber times 1st assigned=          36           0
 nber times 1st assigned=          37           0
 nber times 1st assigned=          38           0
 nber times 1st assigned=          39           0
 nber times 1st assigned=          40           0
 nber times 1st assigned=          41           0
 nber times 1st assigned=          42           0
 nber times 1st assigned=          43           0
 nber times 1st assigned=          44           0
 nber times 1st assigned=          45           0
 nber times 1st assigned=          46           0
 nber times 1st assigned=          47           0
 nber times 1st assigned=          48           0
 nber times 1st assigned=          49           0
 nber times 1st assigned=          50           0
 nber times 1st assigned=          51           0
 nber times 1st assigned=          52           0
 nber times 1st assigned=          53           0
 nber times 1st assigned=          54           0
 nber times 1st assigned=          55           0
 nber times 1st assigned=          56           0
 nber times 1st assigned=          57           0
 nber times 1st assigned=          58           0
 nber times 1st assigned=          59           0
 nber times 1st assigned=          60           0
 nber times 1st assigned=          61           0
 nber times 1st assigned=          62           0
 nber times 1st assigned=          63           0
 nber times 1st assigned=          64           0
 nber times 1st assigned=          65           0
 nber times 1st assigned=          66           0
 nber times 1st assigned=          67           0
 nber times 1st assigned=          68           0
 nber times 1st assigned=          69           0
 nber times 1st assigned=          70           0
 nber times 1st assigned=          71           0
 nber times 1st assigned=          72           0
 nber times 1st assigned=          73           0
 nber times 1st assigned=          74           0
 nber times 1st assigned=          75           0
 nber times 1st assigned=          76           0
 nber times 1st assigned=          77           0
 nber times 1st assigned=          78           0
 nber times 1st assigned=          79           0
 nber times 1st assigned=          80           0
 nber times 1st assigned=          81           0
 nber times 1st assigned=          82           0
 nber times 1st assigned=          83           0
 nber times 1st assigned=          84           0
 nber times 1st assigned=          85           0
 nber times 1st assigned=          86           0
 nber times 1st assigned=          87           0
 nber times 1st assigned=          88           0
 nber times 1st assigned=          89           0
 nber times 1st assigned=          90           0
 nber times 1st assigned=          91           0
 nber times 1st assigned=          92           0
 nber times 1st assigned=          93           0
 nber times 1st assigned=          94           0
 nber times 1st assigned=          95           0
 nber times 1st assigned=          96           0
 modes represented=   102.478290881534     
 p1=
    0.    0.   -0.   -0.    0.    0.    0.    0.    0.  155.    0.   -1.   -8.    0.    0.   -0.    0.    0.    5.    0.
    0.    0.   -0.    0.   -0.    0.    0.    0.   -0.   -0.    0.   -0.   -0.   -5.    0.    0.   -0.    0.   -0.   -0.
    0.   -0.    0.    0.    0.   -0.   -0.    2.   -0.    0.    3.    0.   -1.   -0.    0.    0.   -0.    0.   -0.    1.
   -0.    5.    0.   -5.    0.   -0.    0.   -0.   -0.    0.   -0.   -0.    0.    0.   -2.   -0.   -0.   -0.    0.    5.
   -0.   -3.   -0.   -0.   -0.    0.    0.   -0.   -0.   -0.   -0.   -0.   -0.   -0.   -0.    0.
 p2=
   -0.   -0.   -0.   -0.   -0.   -0.   -0.   -1.  157.   -0.    0.   -0.   -0.   12.   -0.   -0.   -0.   -4.    0.    0.
   -0.   -0.   -0.    0.   -0.   -0.    0.   -0.   -0.   -0.   -0.    0.   -0.   -7.   -6.   -0.   -1.   -4.    0.    0.
    0.   -0.    0.    0.    1.   -1.    0.   -0.   -0.   -0.   -3.   -0.    0.    2.   -0.   -0.   -0.   -0.   -0.   -0.
   -0.   -0.    4.   -0.    0.   -0.   -0.   -0.   -0.    4.   -0.    0.   -0.   -0.   -0.   -0.   -2.    0.   -0.    0.
    1.    7.   -0.   -0.   -0.   -0.    0.    0.    0.   -0.   -0.   -0.    0.   -0.    0.   -0.

 Displacement: in terms of nc of 1 THEN of nc of 2

   1     freq=    -0. Q=  0.000 lam=    -0.0     freq=    -0. Q=  0.000 lam=    -0.0
   2     freq=    -0. Q=  0.000 lam=    -0.0     freq=    -0. Q=  0.000 lam=    -0.0
   3     freq=     0. Q= -0.000 lam=     0.0     freq=     0. Q= -0.000 lam=     0.0
   4     freq=     0. Q= -0.000 lam=     0.0     freq=     0. Q= -0.000 lam=     0.0
   5     freq=     0. Q=  0.000 lam=     0.0     freq=     0. Q=  0.000 lam=     0.0
   6     freq=     0. Q=  0.000 lam=     0.0     freq=     0. Q=  0.000 lam=     0.0
   7     freq=    38. Q=  0.007 lam=     0.0     freq=    29. Q=  0.005 lam=     0.0
   8     freq=    47. Q=  0.005 lam=     0.0     freq=    37. Q=  0.014 lam=     0.0
   9     freq=    69. Q=  0.001 lam=     0.0     freq=    65. Q=  5.096 lam=   841.6
  10     freq=    81. Q=  5.627 lam=  1275.5     freq=    86. Q=  0.007 lam=     0.0
  11     freq=   112. Q=  0.013 lam=     0.0     freq=    96. Q=  0.004 lam=     0.0
  12     freq=   150. Q= -0.031 lam=     0.1     freq=   156. Q= -0.001 lam=     0.0
  13     freq=   214. Q= -0.502 lam=    27.0     freq=   187. Q= -0.001 lam=     0.0
  14     freq=   226. Q=  0.002 lam=     0.0     freq=   227. Q=  0.703 lam=    56.1
  15     freq=   337. Q=  0.000 lam=     0.0     freq=   260. Q=  0.011 lam=     0.0
  16     freq=   342. Q= -0.000 lam=     0.0     freq=   365. Q= -0.000 lam=     0.0
  17     freq=   406. Q=  0.000 lam=     0.0     freq=   400. Q=  0.000 lam=     0.0
  18     freq=   414. Q=  0.001 lam=     0.0     freq=   408. Q=  0.316 lam=    20.3
  19     freq=   417. Q=  0.424 lam=    37.5     freq=   408. Q=  0.002 lam=     0.0
  20     freq=   426. Q=  0.000 lam=     0.0     freq=   412. Q=  0.002 lam=     0.0
  21     freq=   459. Q=  0.001 lam=     0.0     freq=   432. Q=  0.001 lam=     0.0
  22     freq=   498. Q=  0.001 lam=     0.0     freq=   449. Q=  0.002 lam=     0.0
  23     freq=   543. Q= -0.001 lam=     0.0     freq=   477. Q= -0.000 lam=     0.0
  24     freq=   582. Q=  0.001 lam=     0.0     freq=   516. Q=  0.000 lam=     0.0
  25     freq=   628. Q= -0.029 lam=     0.3     freq=   604. Q= -0.049 lam=     0.7
  26     freq=   631. Q=  0.000 lam=     0.0     freq=   608. Q=  0.000 lam=     0.0
  27     freq=   636. Q=  0.000 lam=     0.0     freq=   620. Q=  0.000 lam=     0.0
  28     freq=   657. Q=  0.000 lam=     0.0     freq=   637. Q=  0.001 lam=     0.0
  29     freq=   713. Q= -0.001 lam=     0.0     freq=   660. Q= -0.000 lam=     0.0
  30     freq=   714. Q= -0.000 lam=     0.0     freq=   662. Q= -0.001 lam=     0.0
  31     freq=   714. Q=  0.000 lam=     0.0     freq=   695. Q=  0.001 lam=     0.0
  32     freq=   747. Q= -0.001 lam=     0.0     freq=   699. Q= -0.002 lam=     0.0
  33     freq=   770. Q= -0.001 lam=     0.0     freq=   746. Q= -0.001 lam=     0.0
  34     freq=   790. Q= -0.569 lam=   127.7     freq=   751. Q= -0.744 lam=   207.9
  35     freq=   793. Q=  0.005 lam=     0.0     freq=   765. Q=  0.620 lam=   146.9
  36     freq=   852. Q=  0.020 lam=     0.2     freq=   775. Q=  0.001 lam=     0.0
  37     freq=   857. Q= -0.002 lam=     0.0     freq=   794. Q= -0.078 lam=     2.4
  38     freq=   857. Q=  0.053 lam=     1.2     freq=   794. Q=  0.451 lam=    80.8
  39     freq=   862. Q= -0.001 lam=     0.0     freq=   808. Q= -0.001 lam=     0.0
  40     freq=   932. Q= -0.001 lam=     0.0     freq=   869. Q= -0.000 lam=     0.0
  41     freq=   934. Q=  0.000 lam=     0.0     freq=   870. Q=  0.000 lam=     0.0
  42     freq=   978. Q= -0.003 lam=     0.0     freq=   929. Q= -0.002 lam=     0.0
  43     freq=   980. Q=  0.000 lam=     0.0     freq=   934. Q=  0.001 lam=     0.0
  44     freq=   982. Q=  0.014 lam=     0.1     freq=   963. Q=  0.002 lam=     0.0
  45     freq=   983. Q=  0.000 lam=     0.0     freq=   964. Q=  0.133 lam=     8.5
  46     freq=  1002. Q= -0.000 lam=     0.0     freq=   964. Q= -0.102 lam=     5.1
  47     freq=  1002. Q= -0.000 lam=     0.0     freq=   967. Q= -0.001 lam=     0.0
  48     freq=  1013. Q=  0.286 lam=    41.5     freq=   978. Q=  0.000 lam=     0.0
  49     freq=  1016. Q= -0.001 lam=     0.0     freq=   979. Q= -0.000 lam=     0.0
  50     freq=  1022. Q=  0.000 lam=     0.0     freq=   982. Q=  0.000 lam=     0.0
  51     freq=  1025. Q=  0.356 lam=    65.0     freq=  1009. Q=  0.411 lam=    85.1
  52     freq=  1046. Q=  0.000 lam=     0.0     freq=  1019. Q=  0.000 lam=     0.0
  53     freq=  1060. Q= -0.092 lam=     4.5     freq=  1034. Q= -0.001 lam=     0.0
  54     freq=  1069. Q= -0.000 lam=     0.0     freq=  1036. Q= -0.242 lam=    30.3
  55     freq=  1103. Q=  0.000 lam=     0.0     freq=  1101. Q=  0.001 lam=     0.0
  56     freq=  1104. Q=  0.001 lam=     0.0     freq=  1109. Q=  0.000 lam=     0.0
  57     freq=  1140. Q= -0.000 lam=     0.0     freq=  1147. Q= -0.000 lam=     0.0
  58     freq=  1182. Q=  0.001 lam=     0.0     freq=  1162. Q=  0.000 lam=     0.0
  59     freq=  1183. Q= -0.000 lam=     0.0     freq=  1176. Q= -0.000 lam=     0.0
  60     freq=  1204. Q=  0.158 lam=    15.0     freq=  1203. Q=  0.054 lam=     1.7
  61     freq=  1205. Q= -0.000 lam=     0.0     freq=  1211. Q= -0.000 lam=     0.0
  62     freq=  1214. Q=  0.689 lam=   288.4     freq=  1237. Q=  0.002 lam=     0.0
  63     freq=  1287. Q=  0.000 lam=     0.0     freq=  1254. Q=  0.604 lam=   228.5
  64     freq=  1303. Q= -0.694 lam=   313.6     freq=  1287. Q= -0.000 lam=     0.0
  65     freq=  1305. Q=  0.003 lam=     0.0     freq=  1327. Q=  0.000 lam=     0.0
  66     freq=  1305. Q= -0.015 lam=     0.1     freq=  1340. Q= -0.000 lam=     0.0
  67     freq=  1325. Q=  0.000 lam=     0.0     freq=  1347. Q=  0.001 lam=     0.0
  68     freq=  1342. Q= -0.000 lam=     0.0     freq=  1360. Q= -0.001 lam=     0.0
  69     freq=  1354. Q= -0.001 lam=     0.0     freq=  1371. Q= -0.002 lam=     0.0
  70     freq=  1359. Q=  0.000 lam=     0.0     freq=  1371. Q=  0.653 lam=   292.4
  71     freq=  1431. Q= -0.000 lam=     0.0     freq=  1422. Q= -0.000 lam=     0.0
  72     freq=  1472. Q= -0.000 lam=     0.0     freq=  1458. Q= -0.000 lam=     0.0
  73     freq=  1484. Q=  0.000 lam=     0.0     freq=  1476. Q=  0.000 lam=     0.0
  74     freq=  1517. Q=  0.000 lam=     0.0     freq=  1482. Q=  0.000 lam=     0.0
  75     freq=  1528. Q= -0.281 lam=    60.2     freq=  1504. Q= -0.000 lam=     0.0
  76     freq=  1552. Q= -0.001 lam=     0.0     freq=  1511. Q= -0.000 lam=     0.0
  77     freq=  1587. Q= -0.000 lam=     0.0     freq=  1516. Q= -0.329 lam=    82.2
  78     freq=  1618. Q= -0.000 lam=     0.0     freq=  1541. Q= -0.000 lam=     0.0
  79     freq=  1623. Q=  0.000 lam=     0.0     freq=  1547. Q=  0.000 lam=     0.0
  80     freq=  1643. Q=  0.895 lam=   657.3     freq=  1608. Q=  0.000 lam=     0.0
  81     freq=  1644. Q= -0.000 lam=     0.0     freq=  1634. Q= -0.124 lam=    12.5
  82     freq=  1652. Q= -0.499 lam=   205.8     freq=  1682. Q= -1.163 lam=  1138.4
  83     freq=  3159. Q= -0.000 lam=     0.0     freq=  3160. Q= -0.000 lam=     0.0
  84     freq=  3159. Q= -0.017 lam=     0.5     freq=  3160. Q= -0.009 lam=     0.1
  85     freq=  3164. Q= -0.000 lam=     0.0     freq=  3165. Q= -0.000 lam=     0.0
  86     freq=  3165. Q=  0.000 lam=     0.0     freq=  3166. Q=  0.000 lam=     0.0
  87     freq=  3166. Q=  0.000 lam=     0.0     freq=  3180. Q=  0.000 lam=     0.0
  88     freq=  3168. Q= -0.000 lam=     0.0     freq=  3181. Q= -0.000 lam=     0.0
  89     freq=  3175. Q= -0.010 lam=     0.2     freq=  3185. Q= -0.010 lam=     0.2
  90     freq=  3176. Q= -0.000 lam=     0.0     freq=  3188. Q= -0.000 lam=     0.0
  91     freq=  3180. Q= -0.000 lam=     0.0     freq=  3191. Q= -0.000 lam=     0.0
  92     freq=  3182. Q= -0.000 lam=     0.0     freq=  3195. Q= -0.010 lam=     0.1
  93     freq=  3184. Q= -0.000 lam=     0.0     freq=  3200. Q= -0.000 lam=     0.0
  94     freq=  3185. Q= -0.033 lam=     1.8     freq=  3203. Q= -0.000 lam=     0.0
  95     freq=  3190. Q= -0.000 lam=     0.0     freq=  3208. Q= -0.000 lam=     0.0
  96     freq=  3190. Q=  0.031 lam=     1.6     freq=  3211. Q=  0.020 lam=     0.6

 total reorg energy (cm**-1, kcal/mol)=     3125.     3243.      8.93      9.27
 Nber of molecules processed=           2
