 Enter ifcurve (0=recti, 1=orth curvi, 2=apprx curvi, -1 = skip
 And atom ordering flag, 0= never changes, 1= use the first order thenceforth,
  2= deduce it (does read on fail), 3= always read it
 Reading file: 
 ./conjugated_carbonyls_4_C0S0.log                                              
                                          
  Entering Gaussian System, Link 0=g16                                          
  
 Gaussian format, type: g94, g98, g03= F F F
  #P Geom=AllCheck Guess=TCheck SCRF=Check GenChk RB3LYP/6-311G(d,p) Fre    
 energy type= B3LYP   
 Original G94 input coords:
  6  4.845709 -0.409136  0.043708
  7  3.532107 -0.257004  0.005899
  6  2.709920 -1.542863 -0.055812
  8  3.335712 -2.578603 -0.083239
  6  1.294280 -1.355811 -0.055652
  6  0.463068 -2.502343 -0.089361
  6 -0.901545 -2.391338 -0.088032
  6 -1.532211 -1.110651 -0.044160
  6 -2.908662 -0.967502  0.008120
  8 -3.786592 -2.017163  0.064358
  7 -3.532076  0.257053 -0.010005
  6 -4.845838  0.409337  0.021419
  6 -2.709722  1.542424 -0.072665
  8 -3.335218  2.578221 -0.106403
  6 -1.294029  1.355478 -0.065959
  6 -0.462733  2.501917 -0.100185
  6  0.901866  2.390951 -0.092601
  6  1.532387  1.110458 -0.041617
  6  2.908657  0.967595  0.016884
  8  3.786161  2.017674  0.072395
  6  0.699342 -0.068747 -0.047748
  6 -0.699091  0.068508 -0.050944
  1  5.470958  0.465304  0.078760
  1  5.214039 -1.420814  0.029282
  1  3.394664  2.721827  0.600799
  1  0.937931 -3.474727 -0.127658
  1 -1.505512 -3.288434 -0.157719
  1 -5.471171 -0.465016  0.055800
  1 -5.213965  1.421056  0.002368
  1 -3.397058 -2.719576  0.596646
  1 -0.937486  3.474113 -0.143809
  1  1.506107  3.287812 -0.162870
 nber atoms=          32
  SCF Done:  E(RB3LYP) =  -1026.31177068     A.U. after    1 cycles             
  
          23          40 "  -1026.31177068"
After scan for Atom:   Atom  AN      X      Y      Z        X      Y      Z        X      Y      Z   
After scan for Atom:   Atom  AN      X      Y      Z        X      Y      Z        X      Y      Z   
After scan for Atom:   Atom  AN      X      Y      Z        X      Y      Z        X      Y      Z   
After scan for Atom:   Atom  AN      X      Y      Z        X      Y      Z        X      Y      Z   
After scan for Atom:   Atom  AN      X      Y      Z        X      Y      Z        X      Y      Z   
After scan for Atom:   Atom  AN      X      Y      Z        X      Y      Z        X      Y      Z   
After scan for Atom:   Atom  AN      X      Y      Z        X      Y      Z        X      Y      Z   
After scan for Atom:   Atom  AN      X      Y      Z        X      Y      Z        X      Y      Z   
After scan for Atom:   Atom  AN      X      Y      Z        X      Y      Z        X      Y      Z   
After scan for Atom:   Atom  AN      X      Y      Z        X      Y      Z        X      Y      Z   
After scan for Atom:   Atom  AN      X      Y      Z        X      Y      Z        X      Y      Z   
After scan for Atom:   Atom  AN      X      Y      Z        X      Y      Z        X      Y      Z   
After scan for Atom:   Atom  AN      X      Y      Z        X      Y      Z        X      Y      Z   
After scan for Atom:   Atom  AN      X      Y      Z        X      Y      Z        X      Y      Z   
After scan for Atom:   Atom  AN      X      Y      Z        X      Y      Z        X      Y      Z   
After scan for Atom:   Atom  AN      X      Y      Z        X      Y      Z        X      Y      Z   
After scan for Atom:   Atom  AN      X      Y      Z        X      Y      Z        X      Y      Z   
After scan for Atom:   Atom  AN      X      Y      Z        X      Y      Z        X      Y      Z   
After scan for Atom:   Atom  AN      X      Y      Z        X      Y      Z        X      Y      Z   
After scan for Atom:   Atom  AN      X      Y      Z        X      Y      Z        X      Y      Z   
After scan for Atom:   Atom  AN      X      Y      Z        X      Y      Z        X      Y      Z   
After scan for Atom:   Atom  AN      X      Y      Z        X      Y      Z        X      Y      Z   
After scan for Atom:   Atom  AN      X      Y      Z        X      Y      Z        X      Y      Z   
After scan for Atom:   Atom  AN      X      Y      Z        X      Y      Z        X      Y      Z   
After scan for Atom:   Atom  AN      X      Y      Z        X      Y      Z        X      Y      Z   
After scan for Atom:   Atom  AN      X      Y      Z        X      Y      Z        X      Y      Z   
After scan for Atom:   Atom  AN      X      Y      Z        X      Y      Z        X      Y      Z   
After scan for Atom:   Atom  AN      X      Y      Z        X      Y      Z        X      Y      Z   
After scan for Atom:   Atom  AN      X      Y      Z        X      Y      Z        X      Y      Z   
After scan for Atom:   Atom  AN      X      Y      Z        X      Y      Z        X      Y      Z   
 g94    frequencies=
     0.0    0.0    0.0    0.0    0.0    0.0   54.3   64.7   92.1  120.5
   121.2  183.1  184.3  191.3  202.5  207.3  274.9  299.3  325.8  335.7
   357.5  384.0  385.1  408.0  418.7  427.1  432.7  433.0  461.4  484.2
   512.6  517.3  556.2  561.2  590.5  610.5  619.9  645.1  650.6  661.1
   661.8  709.2  733.5  735.3  747.0  785.3  787.5  803.4  805.5  805.7
   811.4  865.4  890.6  973.4  974.9  988.2 1003.1 1082.7 1125.4 1144.4
  1181.7 1183.8 1202.4 1263.0 1264.0 1270.8 1297.3 1300.8 1336.6 1361.0
  1375.4 1427.2 1432.6 1437.7 1460.5 1473.3 1490.8 1511.4 1527.4 1550.9
  1590.7 1591.3 1600.8 1630.8 1772.8 1777.3 3169.7 3169.9 3201.2 3201.4
  3204.7 3205.0 3340.2 3340.2 3812.5 3813.4
 g94    symmetries=
                                                 A      A      A      A
       A      A      A      A      A      A      A      A      A      A
       A      A      A      A      A      A      A      A      A      A
       A      A      A      A      A      A      A      A      A      A
       A      A      A      A      A      A      A      A      A      A
       A      A      A      A      A      A      A      A      A      A
       A      A      A      A      A      A      A      A      A      A
       A      A      A      A      A      A      A      A      A      A
       A      A      A      A      A      A      A      A      A      A
       A      A      A      A      A      A
 atomic masses:
 12.0000 14.0031 12.0000 15.9949 12.0000 12.0000 12.0000 12.0000 12.0000 15.9949
 14.0031 12.0000 12.0000 15.9949 12.0000 12.0000 12.0000 12.0000 12.0000 15.9949
 12.0000 12.0000  1.0078  1.0078  1.0078  1.0078  1.0078  1.0078  1.0078  1.0078
  1.0078  1.0078
 looking for force constants in 
 ./conjugated_carbonyls_4_C0S0.fchk                                             
  
 Cartesian Force Constants                  R   N=        4656                  
  
 n3=          96        4656
 g94-fc frequencies=
    -2.7   -0.9   -0.0    0.0    0.0    1.5   54.3   64.7   92.1  120.5
   121.2  183.1  184.4  191.3  202.5  207.3  274.9  299.4  325.8  335.7
   357.5  384.0  385.1  408.0  418.7  427.1  432.7  433.0  461.4  484.2
   512.6  517.3  556.2  561.2  590.5  610.6  620.0  645.1  650.6  661.1
   661.8  709.2  733.5  735.3  747.0  785.3  787.5  803.4  805.6  805.7
   811.4  865.4  890.6  973.4  974.9  988.3 1003.1 1082.8 1125.5 1144.4
  1181.7 1183.9 1202.4 1263.1 1264.0 1270.8 1297.4 1300.9 1336.6 1361.0
  1375.4 1427.2 1432.6 1437.7 1460.5 1473.4 1490.9 1511.4 1527.4 1550.9
  1590.7 1591.3 1600.9 1630.8 1772.8 1777.4 3169.8 3169.9 3201.3 3201.5
  3204.8 3205.1 3340.2 3340.3 3812.6 3813.5
 at 99999: n3=          96
 symm operator            1 :  F  nop=           0
 symm operator            2 :  F  nop=           0
 symm operator            3 :  F  nop=           0
 symm operator            4 :  F  nop=           0
 symm operator            5 :  F  nop=           0
 symm operator            6 :  F  nop=           0
 symm operator            7 :  F  nop=           0
 The point group of the molecule is  C1
 Symmetry rotation matrix:
   1.00000   0.00000   0.00000
   0.00000   1.00000   0.00000
   0.00000   0.00000   1.00000

 Projecting out zero-frequency components
 generating redundant internal coords
         300        3600          32
 search for int coords
   1 str   2   1   1.323
   2 str   3   2   1.527
   3 str   4   3   1.210
   4 str   5   3   1.428
   5 str   6   5   1.417
   6 str   7   6   1.369
   7 str   8   7   1.428
   8 str   9   8   1.385
   9 str  10   9   1.370
  10 str  11   9   1.374
  11 str  12  11   1.323
  12 str  13  11   1.527
  13 str  14  13   1.210
  14 str  15  13   1.428
  15 str  16  15   1.417
  16 str  17  16   1.369
  17 str  18  17   1.428
  18 str  19   2   1.374
  19 str  19  18   1.385
  20 str  20  19   1.370
  21 str  21   5   1.418
  22 str  21  18   1.444
  23 str  22   8   1.444
  24 str  22  15   1.418
  25 str  22  21   1.405
  26 str  23   1   1.076
  27 str  24   1   1.077
  28 str  25  20   0.963
  29 str  26   6   1.083
  30 str  27   7   1.084
  31 str  28  12   1.076
  32 str  29  12   1.077
  33 str  30  10   0.964
  34 str  31  16   1.083
  35 str  32  17   1.084
 nber stretches=          35
  36 ben   1   2   3
  37 prop tor   1   2   3   4
  38 prop tor   1   2   3   5
  39 ben   1   2  19
  40 prop tor   1   2  19  18
  41 prop tor   1   2  19  20
  42 ben   2   1  23
  43 ben   2   1  24
  44 ben   2   3   4
  45 ben   2   3   5
  46 prop tor   2   3   5   6
  47 prop tor   2   3   5  21
  48 ben   2  19  18
  49 ben   2  19  20
  50 prop tor   2  19  20  25
  51 ben   3   2  19
  52 prop tor   3   2  19  18
  53 prop tor   3   2  19  20
  54 ben   3   5   6
  55 prop tor   3   5   6   7
  56 prop tor   3   5   6  26
  57 ben   3   5  21
  58 prop tor   3   5  21  18
  59 prop tor   3   5  21  22
  60 ben   4   3   5
  61 prop tor   4   3   5   6
  62 prop tor   4   3   5  21
  63 ben   5   6   7
  64 prop tor   5   6   7   8
  65 prop tor   5   6   7  27
  66 ben   5   6  26
  67 ben   5  21  18
  68 ben   5  21  22
  69 prop tor   5  21  22   8
  70 prop tor   5  21  22  15
  71 ben   6   5  21
  72 prop tor   6   5  21  18
  73 prop tor   6   5  21  22
  74 ben   6   7   8
  75 prop tor   6   7   8   9
  76 prop tor   6   7   8  22
  77 ben   6   7  27
  78 ben   7   6  26
  79 ben   7   8   9
  80 prop tor   7   8   9  10
  81 prop tor   7   8   9  11
  82 ben   7   8  22
  83 prop tor   7   8  22  15
  84 prop tor   7   8  22  21
  85 ben   8   7  27
  86 ben   8   9  10
  87 prop tor   8   9  10  30
  88 ben   8   9  11
  89 prop tor   8   9  11  12
  90 prop tor   8   9  11  13
  91 ben   8  22  15
  92 ben   8  22  21
  93 ben   9   8  22
  94 prop tor   9   8  22  15
  95 prop tor   9   8  22  21
  96 ben   9  10  30
  97 ben   9  11  12
  98 prop tor   9  11  12  28
  99 prop tor   9  11  12  29
 100 ben   9  11  13
 101 prop tor   9  11  13  14
 102 prop tor   9  11  13  15
 103 ben  10   9  11
 104 prop tor  10   9  11  12
 105 prop tor  10   9  11  13
 106 prop tor  11   9  10  30
 107 ben  11  12  28
 108 ben  11  12  29
 109 ben  11  13  14
 110 ben  11  13  15
 111 prop tor  11  13  15  16
 112 prop tor  11  13  15  22
 113 ben  12  11  13
 114 prop tor  12  11  13  14
 115 prop tor  12  11  13  15
 116 prop tor  13  11  12  28
 117 prop tor  13  11  12  29
 118 ben  13  15  16
 119 prop tor  13  15  16  17
 120 prop tor  13  15  16  31
 121 ben  13  15  22
 122 prop tor  13  15  22   8
 123 prop tor  13  15  22  21
 124 ben  14  13  15
 125 prop tor  14  13  15  16
 126 prop tor  14  13  15  22
 127 ben  15  16  17
 128 prop tor  15  16  17  18
 129 prop tor  15  16  17  32
 130 ben  15  16  31
 131 ben  15  22  21
 132 ben  16  15  22
 133 prop tor  16  15  22   8
 134 prop tor  16  15  22  21
 135 ben  16  17  18
 136 prop tor  16  17  18  19
 137 prop tor  16  17  18  21
 138 ben  16  17  32
 139 ben  17  16  31
 140 ben  17  18  19
 141 prop tor  17  18  19   2
 142 prop tor  17  18  19  20
 143 ben  17  18  21
 144 prop tor  17  18  21   5
 145 prop tor  17  18  21  22
 146 ben  18  17  32
 147 ben  18  19  20
 148 prop tor  18  19  20  25
 149 ben  18  21  22
 150 prop tor  18  21  22   8
 151 prop tor  18  21  22  15
 152 prop tor  19   2   3   4
 153 prop tor  19   2   3   5
 154 ben  19  18  21
 155 prop tor  19  18  21   5
 156 prop tor  19  18  21  22
 157 ben  19  20  25
 158 prop tor  21   5   6   7
 159 prop tor  21   5   6  26
 160 prop tor  21  18  19   2
 161 prop tor  21  18  19  20
 162 prop tor  22   8   9  10
 163 prop tor  22   8   9  11
 164 prop tor  22  15  16  17
 165 prop tor  22  15  16  31
 166 prop tor  23   1   2   3
 167 prop tor  23   1   2  19
 168 ben  23   1  24
 169 prop tor  24   1   2   3
 170 prop tor  24   1   2  19
 171 prop tor  26   6   7   8
 172 prop tor  26   6   7  27
 173 prop tor  27   7   8   9
 174 prop tor  27   7   8  22
 175 ben  28  12  29
 176 prop tor  31  16  17  18
 177 prop tor  31  16  17  32
 178 prop tor  32  17  18  19
 179 prop tor  32  17  18  21
 nber bend=              56
 nber lin bend=           0
 nber prop tor=          88
 nber impr tor=           0
 nber tot redund int=         179
 Eigenvalues of G in red int coords
    Gval -0.00000000 -0.00000000 -0.00000000 -0.00000000 -0.00000000 -0.00000000 -0.00000000 -0.00000000
    Gval -0.00000000 -0.00000000 -0.00000000 -0.00000000 -0.00000000 -0.00000000 -0.00000000 -0.00000000
    Gval -0.00000000 -0.00000000 -0.00000000 -0.00000000 -0.00000000 -0.00000000 -0.00000000 -0.00000000
    Gval -0.00000000 -0.00000000 -0.00000000 -0.00000000 -0.00000000 -0.00000000 -0.00000000 -0.00000000
    Gval -0.00000000 -0.00000000 -0.00000000 -0.00000000 -0.00000000 -0.00000000 -0.00000000 -0.00000000
    Gval -0.00000000 -0.00000000 -0.00000000  0.00000000  0.00000000  0.00000000  0.00000000  0.00000000
    Gval  0.00000000  0.00000000  0.00000000  0.00000000  0.00000000  0.00000000  0.00000000  0.00000000
    Gval  0.00000000  0.00000000  0.00000000  0.00000000  0.00000000  0.00000000  0.00000000  0.00000000
    Gval  0.00000000  0.00000000  0.00000000  0.00000000  0.00000000  0.00000000  0.00000000  0.00000000
    Gval  0.00000000  0.00000000  0.00000000  0.00000000  0.00000000  0.00000000  0.00000000  0.00000000
    Gval  0.00000000  0.00000000  0.00000000  0.00000000  0.00000000  0.00000000  0.00000000  0.00000000
    Gval  0.00000000  0.00000470  0.00000639  0.00001224  0.00001468  0.00001651  0.00001776  0.00001791
    Gval  0.00002065  0.00002237  0.00002314  0.00002535  0.00002596  0.00002699  0.00002806  0.00003238
    Gval  0.00005346  0.00005684  0.00006071  0.00006961  0.00007750  0.00007877  0.00008278  0.00008464
    Gval  0.00009237  0.00009586  0.00009642  0.00009991  0.00011197  0.00011856  0.00012378  0.00015100
    Gval  0.00015895  0.00016146  0.00016449  0.00020033  0.00022356  0.00023826  0.00026923  0.00028021
    Gval  0.00031598  0.00033061  0.00034768  0.00039068  0.00040623  0.00041649  0.00041963  0.00043016
    Gval  0.00044634  0.00046656  0.00049213  0.00050354  0.00054266  0.00054506  0.00054558  0.00056197
    Gval  0.00056198  0.00057528  0.00057542  0.00059901  0.00059948  0.00064271  0.00064505  0.00068501
    Gval  0.00071004  0.00077653  0.00077658  0.00080467  0.00086199  0.00107676  0.00109039  0.00109443
    Gval  0.00113263  0.00116381  0.00116446  0.00128044  0.00134073  0.00140508  0.00141327  0.00160431
    Gval  0.00160460  0.00162163  0.00172344  0.00178384  0.00192292  0.00203065  0.00243570  0.00254788
    Gval  0.00266745  0.00369075  0.00369307
  4.702751336402247E-006  4.702751336402247E-006
  6.389363743277827E-006  4.702751336402247E-006
  1.224077573857854E-005  4.702751336402247E-006
  1.468318942094331E-005  4.702751336402247E-006
  1.650606300297723E-005  4.702751336402247E-006
  1.776306924061874E-005  4.702751336402247E-006
  1.791141100107917E-005  4.702751336402247E-006
  2.064590284238761E-005  4.702751336402247E-006
  2.237478509806812E-005  4.702751336402247E-006
  2.313883549992632E-005  4.702751336402247E-006
  2.534865390261223E-005  4.702751336402247E-006
  2.596259310829117E-005  4.702751336402247E-006
  2.699420508822202E-005  4.702751336402247E-006
  2.806035343446653E-005  4.702751336402247E-006
  3.238201223318013E-005  4.702751336402247E-006
  5.345977075645304E-005  4.702751336402247E-006
  5.683831996184453E-005  4.702751336402247E-006
  6.071021268383784E-005  4.702751336402247E-006
  6.960684517532590E-005  4.702751336402247E-006
  7.750116791171074E-005  4.702751336402247E-006
  7.877268861767799E-005  4.702751336402247E-006
  8.278457537760758E-005  4.702751336402247E-006
  8.464216679941847E-005  4.702751336402247E-006
  9.236784712075904E-005  4.702751336402247E-006
  9.586303072461751E-005  4.702751336402247E-006
  9.641856774708652E-005  4.702751336402247E-006
  9.990670947884066E-005  4.702751336402247E-006
  1.119700950597134E-004  4.702751336402247E-006
  1.185587927346114E-004  4.702751336402247E-006
  1.237800197101210E-004  4.702751336402247E-006
  1.509960278215071E-004  4.702751336402247E-006
  1.589492344447612E-004  4.702751336402247E-006
  1.614586441756027E-004  4.702751336402247E-006
  1.644939590866999E-004  4.702751336402247E-006
  2.003258314722307E-004  4.702751336402247E-006
  2.235569280774410E-004  4.702751336402247E-006
  2.382649764640834E-004  4.702751336402247E-006
  2.692344158738224E-004  4.702751336402247E-006
  2.802144663979926E-004  4.702751336402247E-006
  3.159799037791685E-004  4.702751336402247E-006
  3.306120411201220E-004  4.702751336402247E-006
  3.476829060878390E-004  4.702751336402247E-006
  3.906826641889320E-004  4.702751336402247E-006
  4.062285669474773E-004  4.702751336402247E-006
  4.164903128418853E-004  4.702751336402247E-006
  4.196296206213303E-004  4.702751336402247E-006
  4.301585570822317E-004  4.702751336402247E-006
  4.463436666168887E-004  4.702751336402247E-006
  4.665559336930278E-004  4.702751336402247E-006
  4.921282572529879E-004  4.702751336402247E-006
  5.035390620882346E-004  4.702751336402247E-006
  5.426602616318999E-004  4.702751336402247E-006
  5.450599726542875E-004  4.702751336402247E-006
  5.455804224039383E-004  4.702751336402247E-006
  5.619701353430299E-004  4.702751336402247E-006
  5.619772628026871E-004  4.702751336402247E-006
  5.752772044963380E-004  4.702751336402247E-006
  5.754217360920658E-004  4.702751336402247E-006
  5.990073315441861E-004  4.702751336402247E-006
  5.994753738454840E-004  4.702751336402247E-006
  6.427136209291624E-004  4.702751336402247E-006
  6.450458496591632E-004  4.702751336402247E-006
  6.850131160926314E-004  4.702751336402247E-006
  7.100371395571372E-004  4.702751336402247E-006
  7.765328914683087E-004  4.702751336402247E-006
  7.765776526366182E-004  4.702751336402247E-006
  8.046711272599334E-004  4.702751336402247E-006
  8.619900376544147E-004  4.702751336402247E-006
  1.076763675628364E-003  4.702751336402247E-006
  1.090389190426212E-003  4.702751336402247E-006
  1.094433160940077E-003  4.702751336402247E-006
  1.132626808835298E-003  4.702751336402247E-006
  1.163813209407829E-003  4.702751336402247E-006
  1.164463573887439E-003  4.702751336402247E-006
  1.280443543874147E-003  4.702751336402247E-006
  1.340734553748857E-003  4.702751336402247E-006
  1.405082513022378E-003  4.702751336402247E-006
  1.413266010106671E-003  4.702751336402247E-006
  1.604312394013085E-003  4.702751336402247E-006
  1.604600982272846E-003  4.702751336402247E-006
  1.621630720709541E-003  4.702751336402247E-006
  1.723436644038481E-003  4.702751336402247E-006
  1.783836308670593E-003  4.702751336402247E-006
  1.922920603639341E-003  4.702751336402247E-006
  2.030649617102594E-003  4.702751336402247E-006
  2.435700844401557E-003  4.702751336402247E-006
  2.547882123808731E-003  4.702751336402247E-006
  2.667452311125242E-003  4.702751336402247E-006
  3.690746461521958E-003  4.702751336402247E-006
  3.693069342446931E-003  4.702751336402247E-006
 cut=1d-8, nber non-redundant internal coords=          90
 Check on Eigenvals of non-red overlap matrix:
  0.00000470  0.00000639  0.00001224  0.00001468  0.00001651  0.00001776  0.00001791  0.00002065
  0.00002237  0.00002314  0.00002535  0.00002596  0.00002699  0.00002806  0.00003238  0.00005346
  0.00005684  0.00006071  0.00006961  0.00007750  0.00007877  0.00008278  0.00008464  0.00009237
  0.00009586  0.00009642  0.00009991  0.00011197  0.00011856  0.00012378  0.00015100  0.00015895
  0.00016146  0.00016449  0.00020033  0.00022356  0.00023826  0.00026923  0.00028021  0.00031598
  0.00033061  0.00034768  0.00039068  0.00040623  0.00041649  0.00041963  0.00043016  0.00044634
  0.00046656  0.00049213  0.00050354  0.00054266  0.00054506  0.00054558  0.00056197  0.00056198
  0.00057528  0.00057542  0.00059901  0.00059948  0.00064271  0.00064505  0.00068501  0.00071004
  0.00077653  0.00077658  0.00080467  0.00086199  0.00107676  0.00109039  0.00109443  0.00113263
  0.00116381  0.00116446  0.00128044  0.00134073  0.00140508  0.00141327  0.00160431  0.00160460
  0.00162163  0.00172344  0.00178384  0.00192292  0.00203065  0.00243570  0.00254788  0.00266745
  0.00369075  0.00369307
 Checking for correct frequencies
 recalc frequencies=
    -0.0   -0.0   -0.0    0.0    0.0    0.0   54.3   64.7   92.1  120.5
   121.2  183.1  184.4  191.3  202.5  207.3  274.9  299.4  325.8  335.7
   357.5  384.0  385.1  408.0  418.7  427.1  432.7  433.0  461.4  484.2
   512.6  517.3  556.2  561.2  590.5  610.6  620.0  645.1  650.6  661.1
   661.8  709.2  733.5  735.3  747.0  785.3  787.5  803.4  805.6  805.7
   811.4  865.4  890.6  973.4  974.9  988.3 1003.1 1082.8 1125.5 1144.4
  1181.7 1183.9 1202.4 1263.1 1264.0 1270.8 1297.4 1300.9 1336.6 1361.0
  1375.4 1427.2 1432.6 1437.7 1460.5 1473.4 1490.9 1511.4 1527.4 1550.9
  1590.7 1591.3 1600.9 1630.8 1772.8 1777.4 3169.8 3169.9 3201.3 3201.5
  3204.8 3205.1 3340.2 3340.3 3812.6 3813.5
 recalc symmetries=
                                                                       
                                                                       
                                                                       
                                                                       
                                                                       
                                                                       
                                                                       
                                                                       
                                                                       
                                           
 recalc freqs check OK
 Zero-point lengths:
 10.0000 10.0000 10.0000 10.0000 10.0000 10.0000 33.6358 30.8213 25.8334 22.5845
 22.5165 18.3225 18.2587 17.9244 17.4213 17.2200 14.9516 14.3285 13.7345 13.5315
 13.1123 12.6517 12.6324 12.2730 12.1159 11.9957 11.9182 11.9137 11.5413 11.2660
 10.9497 10.8995 10.5115 10.4650 10.2016 10.0330  9.9567  9.7607  9.7195  9.6418
  9.6365  9.3089  9.1537  9.1422  9.0704  8.8465  8.8344  8.7464  8.7347  8.7339
  8.7031  8.4272  8.3071  7.9460  7.9399  7.8861  7.8274  7.5341  7.3897  7.3283
  7.2118  7.2052  7.1493  6.9756  6.9731  6.9542  6.8828  6.8736  6.7809  6.7200
  6.6847  6.5622  6.5499  6.5383  6.4869  6.4586  6.4206  6.3768  6.3433  6.2951
  6.2158  6.2146  6.1961  6.1390  5.8879  5.8804  4.4033  4.4032  4.3816  4.3815
  4.3792  4.3790  4.2895  4.2895  4.0150  4.0145
 highest evec of mol 1
 -0.0005 -0.0002 -0.0000
  0.0009  0.0024 -0.0006
 -0.0002 -0.0001  0.0002
  0.0000  0.0001 -0.0000
  0.0002  0.0002 -0.0001
  0.0000 -0.0001  0.0000
  0.0000  0.0001 -0.0000
 -0.0002 -0.0001 -0.0000
  0.0001 -0.0002  0.0000
  0.0018 -0.0034  0.0025
 -0.0002  0.0000 -0.0001
  0.0002 -0.0001 -0.0000
  0.0001  0.0002  0.0002
  0.0000 -0.0001 -0.0000
 -0.0002 -0.0006  0.0003
  0.0010 -0.0001 -0.0006
 -0.0010  0.0007 -0.0008
  0.0005  0.0015  0.0005
  0.0022 -0.0042 -0.0009
  0.0934 -0.1805 -0.1312
  0.0002 -0.0003  0.0000
 -0.0003  0.0007 -0.0000
 -0.0001  0.0002  0.0005
  0.0001  0.0004 -0.0007
 -0.3833  0.7191  0.5264
 -0.0000  0.0001  0.0000
  0.0000 -0.0000 -0.0000
 -0.0001 -0.0002  0.0000
 -0.0001  0.0003 -0.0000
 -0.0073  0.0135 -0.0100
  0.0002  0.0000 -0.0003
  0.0010 -0.0007  0.0035
 generating redundant internal coords
         300        3600          32
 Adding extra bonds for z output only
           6           7           6           8           6           6
           6           6           6           8           7           6
           6           8           6           6           6           6
           6           8           6           6           1           1
           1           1           1           1           1           1
           1           1
 search for int coords
   1 str   2   1   1.323
   2 str   3   2   1.527
   3 str   4   3   1.210
   4 str   5   3   1.428
   5 str   6   5   1.417
   6 str   7   6   1.369
   7 str   8   7   1.428
   8 str   9   8   1.385
   9 str  10   9   1.370
  10 str  11   9   1.374
  11 str  12  11   1.323
  12 str  13  11   1.527
  13 str  14  13   1.210
  14 str  15  13   1.428
  15 str  16  15   1.417
  16 str  17  16   1.369
  17 str  18  17   1.428
  18 str  19   2   1.374
  19 str  19  18   1.385
  20 str  20  19   1.370
  21 str  21   5   1.418
  22 str  21  18   1.444
  23 str  22   8   1.444
  24 str  22  15   1.418
  25 str  22  21   1.405
  26 str  23   1   1.076
  27 str  24   1   1.077
  28 str  25  20   0.963
  29 str  26   6   1.083
  30 str  27   7   1.084
  31 str  28  12   1.076
  32 str  29  12   1.077
  33 str  30  10   0.964
  34 str  31  16   1.083
  35 str  32  17   1.084
 nber stretches=          35
  36 ben   1   2   3
  37 prop tor   1   2   3   4
  38 prop tor   1   2   3   5
  39 ben   1   2  19
  40 prop tor   1   2  19  18
  41 prop tor   1   2  19  20
  42 ben   2   1  23
  43 ben   2   1  24
  44 ben   2   3   4
  45 ben   2   3   5
  46 prop tor   2   3   5   6
  47 prop tor   2   3   5  21
  48 ben   2  19  18
  49 ben   2  19  20
  50 prop tor   2  19  20  25
  51 ben   3   2  19
  52 prop tor   3   2  19  18
  53 prop tor   3   2  19  20
  54 ben   3   5   6
  55 prop tor   3   5   6   7
  56 prop tor   3   5   6  26
  57 ben   3   5  21
  58 prop tor   3   5  21  18
  59 prop tor   3   5  21  22
  60 ben   4   3   5
  61 prop tor   4   3   5   6
  62 prop tor   4   3   5  21
  63 ben   5   6   7
  64 prop tor   5   6   7   8
  65 prop tor   5   6   7  27
  66 ben   5   6  26
  67 ben   5  21  18
  68 ben   5  21  22
  69 prop tor   5  21  22   8
  70 prop tor   5  21  22  15
  71 ben   6   5  21
  72 prop tor   6   5  21  18
  73 prop tor   6   5  21  22
  74 ben   6   7   8
  75 prop tor   6   7   8   9
  76 prop tor   6   7   8  22
  77 ben   6   7  27
  78 ben   7   6  26
  79 ben   7   8   9
  80 prop tor   7   8   9  10
  81 prop tor   7   8   9  11
  82 ben   7   8  22
  83 prop tor   7   8  22  15
  84 prop tor   7   8  22  21
  85 ben   8   7  27
  86 ben   8   9  10
  87 prop tor   8   9  10  30
  88 ben   8   9  11
  89 prop tor   8   9  11  12
  90 prop tor   8   9  11  13
  91 ben   8  22  15
  92 ben   8  22  21
  93 ben   9   8  22
  94 prop tor   9   8  22  15
  95 prop tor   9   8  22  21
  96 ben   9  10  30
  97 ben   9  11  12
  98 prop tor   9  11  12  28
  99 prop tor   9  11  12  29
 100 ben   9  11  13
 101 prop tor   9  11  13  14
 102 prop tor   9  11  13  15
 103 ben  10   9  11
 104 prop tor  10   9  11  12
 105 prop tor  10   9  11  13
 106 prop tor  11   9  10  30
 107 ben  11  12  28
 108 ben  11  12  29
 109 ben  11  13  14
 110 ben  11  13  15
 111 prop tor  11  13  15  16
 112 prop tor  11  13  15  22
 113 ben  12  11  13
 114 prop tor  12  11  13  14
 115 prop tor  12  11  13  15
 116 prop tor  13  11  12  28
 117 prop tor  13  11  12  29
 118 ben  13  15  16
 119 prop tor  13  15  16  17
 120 prop tor  13  15  16  31
 121 ben  13  15  22
 122 prop tor  13  15  22   8
 123 prop tor  13  15  22  21
 124 ben  14  13  15
 125 prop tor  14  13  15  16
 126 prop tor  14  13  15  22
 127 ben  15  16  17
 128 prop tor  15  16  17  18
 129 prop tor  15  16  17  32
 130 ben  15  16  31
 131 ben  15  22  21
 132 ben  16  15  22
 133 prop tor  16  15  22   8
 134 prop tor  16  15  22  21
 135 ben  16  17  18
 136 prop tor  16  17  18  19
 137 prop tor  16  17  18  21
 138 ben  16  17  32
 139 ben  17  16  31
 140 ben  17  18  19
 141 prop tor  17  18  19   2
 142 prop tor  17  18  19  20
 143 ben  17  18  21
 144 prop tor  17  18  21   5
 145 prop tor  17  18  21  22
 146 ben  18  17  32
 147 ben  18  19  20
 148 prop tor  18  19  20  25
 149 ben  18  21  22
 150 prop tor  18  21  22   8
 151 prop tor  18  21  22  15
 152 prop tor  19   2   3   4
 153 prop tor  19   2   3   5
 154 ben  19  18  21
 155 prop tor  19  18  21   5
 156 prop tor  19  18  21  22
 157 ben  19  20  25
 158 prop tor  21   5   6   7
 159 prop tor  21   5   6  26
 160 prop tor  21  18  19   2
 161 prop tor  21  18  19  20
 162 prop tor  22   8   9  10
 163 prop tor  22   8   9  11
 164 prop tor  22  15  16  17
 165 prop tor  22  15  16  31
 166 prop tor  23   1   2   3
 167 prop tor  23   1   2  19
 168 ben  23   1  24
 169 prop tor  24   1   2   3
 170 prop tor  24   1   2  19
 171 prop tor  26   6   7   8
 172 prop tor  26   6   7  27
 173 prop tor  27   7   8   9
 174 prop tor  27   7   8  22
 175 ben  28  12  29
 176 prop tor  31  16  17  18
 177 prop tor  31  16  17  32
 178 prop tor  32  17  18  19
 179 prop tor  32  17  18  21
 nber bend=              56
 nber lin bend=           0
 nber prop tor=          88
 nber impr tor=           0
 nber tot redund int=         179
 Reading file: 
 ./conjugated_carbonyls_4_C-1S0.log                                             
                                          
  Entering Gaussian System, Link 0=g16                                          
  
 Gaussian format, type: g94, g98, g03= F F F
  #P Geom=AllCheck Guess=TCheck SCRF=Check GenChk UB3LYP/6-311G(d,p) Fre    
 energy type= B3LYP   
 Original G94 input coords:
  6  4.967227 -0.001102  0.162487
  7  3.506392 -0.001166  0.112185
  6  2.866338 -1.256914  0.080160
  8  3.539412 -2.288729  0.087014
  6  1.408735 -1.235262  0.041354
  6  0.688980 -2.447083  0.020673
  6 -0.690699 -2.446629 -0.016068
  6 -1.409582 -1.234340 -0.039017
  6 -2.867193 -1.254944 -0.077755
  8 -3.541228 -2.286175 -0.082884
  7 -3.506400  0.001117 -0.112345
  6 -4.967202  0.001248 -0.162310
  6 -2.866327  1.256856 -0.080225
  8 -3.539461  2.288669 -0.087254
  6 -1.408722  1.235213 -0.041378
  6 -0.688972  2.447034 -0.020719
  6  0.690709  2.446580  0.016023
  6  1.409581  1.234289  0.038996
  6  2.867189  1.254853  0.077705
  8  3.541265  2.286004  0.082617
  6  0.716691 -0.000258  0.021556
  6 -0.716686  0.000208 -0.021546
  1  5.393442  0.004475 -0.846370
  1  5.293111 -0.905804  0.669824
  1  5.293351  0.898275  0.679215
  1  1.253405 -3.371222  0.036180
  1 -1.255783 -3.370395 -0.029820
  1 -5.393146 -0.001836  0.846701
  1 -5.293188  0.904801 -0.671607
  1 -5.293639 -0.899280 -0.676902
  1 -1.253398  3.371173 -0.036248
  1  1.255799  3.370344  0.029755
 nber atoms=          32
  SCF Done:  E(UB3LYP) =  -1026.56111392     A.U. after    1 cycles             
  
          23          40 "  -1026.56111392"
After scan for Atom:   Atom  AN      X      Y      Z        X      Y      Z        X      Y      Z   
After scan for Atom:   Atom  AN      X      Y      Z        X      Y      Z        X      Y      Z   
After scan for Atom:   Atom  AN      X      Y      Z        X      Y      Z        X      Y      Z   
After scan for Atom:   Atom  AN      X      Y      Z        X      Y      Z        X      Y      Z   
After scan for Atom:   Atom  AN      X      Y      Z        X      Y      Z        X      Y      Z   
After scan for Atom:   Atom  AN      X      Y      Z        X      Y      Z        X      Y      Z   
After scan for Atom:   Atom  AN      X      Y      Z        X      Y      Z        X      Y      Z   
After scan for Atom:   Atom  AN      X      Y      Z        X      Y      Z        X      Y      Z   
After scan for Atom:   Atom  AN      X      Y      Z        X      Y      Z        X      Y      Z   
After scan for Atom:   Atom  AN      X      Y      Z        X      Y      Z        X      Y      Z   
After scan for Atom:   Atom  AN      X      Y      Z        X      Y      Z        X      Y      Z   
After scan for Atom:   Atom  AN      X      Y      Z        X      Y      Z        X      Y      Z   
After scan for Atom:   Atom  AN      X      Y      Z        X      Y      Z        X      Y      Z   
After scan for Atom:   Atom  AN      X      Y      Z        X      Y      Z        X      Y      Z   
After scan for Atom:   Atom  AN      X      Y      Z        X      Y      Z        X      Y      Z   
After scan for Atom:   Atom  AN      X      Y      Z        X      Y      Z        X      Y      Z   
After scan for Atom:   Atom  AN      X      Y      Z        X      Y      Z        X      Y      Z   
After scan for Atom:   Atom  AN      X      Y      Z        X      Y      Z        X      Y      Z   
After scan for Atom:   Atom  AN      X      Y      Z        X      Y      Z        X      Y      Z   
After scan for Atom:   Atom  AN      X      Y      Z        X      Y      Z        X      Y      Z   
After scan for Atom:   Atom  AN      X      Y      Z        X      Y      Z        X      Y      Z   
After scan for Atom:   Atom  AN      X      Y      Z        X      Y      Z        X      Y      Z   
After scan for Atom:   Atom  AN      X      Y      Z        X      Y      Z        X      Y      Z   
After scan for Atom:   Atom  AN      X      Y      Z        X      Y      Z        X      Y      Z   
After scan for Atom:   Atom  AN      X      Y      Z        X      Y      Z        X      Y      Z   
After scan for Atom:   Atom  AN      X      Y      Z        X      Y      Z        X      Y      Z   
After scan for Atom:   Atom  AN      X      Y      Z        X      Y      Z        X      Y      Z   
After scan for Atom:   Atom  AN      X      Y      Z        X      Y      Z        X      Y      Z   
After scan for Atom:   Atom  AN      X      Y      Z        X      Y      Z        X      Y      Z   
After scan for Atom:   Atom  AN      X      Y      Z        X      Y      Z        X      Y      Z   
 g94    frequencies=
     0.0    0.0    0.0    0.0    0.0    0.0  -72.7  -72.0   58.9   59.5
   106.7  107.1  129.6  185.4  192.4  195.3  271.0  291.8  297.1  311.5
   319.7  384.6  396.5  403.9  412.7  416.0  416.5  457.4  480.6  516.0
   529.0  549.5  567.1  608.6  618.9  621.2  719.6  739.7  739.9  760.7
   764.8  773.6  794.1  824.2  849.4  849.5  854.5  938.4  956.7  975.4
   977.7 1006.1 1022.1 1039.5 1095.3 1149.9 1150.3 1154.8 1173.8 1193.1
  1205.5 1225.9 1251.1 1278.0 1280.2 1336.7 1354.9 1387.9 1406.0 1412.5
  1419.3 1448.9 1461.0 1468.9 1491.2 1491.5 1518.7 1520.1 1546.7 1550.4
  1577.9 1634.9 1655.8 1661.8 1689.3 1705.4 3026.1 3026.4 3113.5 3113.6
  3165.9 3166.0 3184.0 3184.2 3199.5 3199.7
 g94    symmetries=
                                                 A      A      A      A
       A      A      A      A      A      A      A      A      A      A
       A      A      A      A      A      A      A      A      A      A
       A      A      A      A      A      A      A      A      A      A
       A      A      A      A      A      A      A      A      A      A
       A      A      A      A      A      A      A      A      A      A
       A      A      A      A      A      A      A      A      A      A
       A      A      A      A      A      A      A      A      A      A
       A      A      A      A      A      A      A      A      A      A
       A      A      A      A      A      A
 atomic masses:
 12.0000 14.0031 12.0000 15.9949 12.0000 12.0000 12.0000 12.0000 12.0000 15.9949
 14.0031 12.0000 12.0000 15.9949 12.0000 12.0000 12.0000 12.0000 12.0000 15.9949
 12.0000 12.0000  1.0078  1.0078  1.0078  1.0078  1.0078  1.0078  1.0078  1.0078
  1.0078  1.0078
 looking for force constants in 
 ./conjugated_carbonyls_4_C-1S0.fchk                                            
  
 Cartesian Force Constants                  R   N=        4656                  
  
 n3=          96        4656
 g94-fc frequencies=
   -72.7  -72.0   -4.5   -2.5   -2.0   -0.0    0.0    0.0   58.9   59.5
   106.7  107.1  129.6  185.4  192.4  195.3  271.0  291.8  297.1  311.5
   319.7  384.6  396.5  403.9  412.7  416.0  416.5  457.4  480.6  516.0
   529.0  549.6  567.1  608.7  619.0  621.3  719.6  739.7  739.9  760.7
   764.8  773.7  794.1  824.2  849.4  849.5  854.5  938.5  956.7  975.4
   977.7 1006.1 1022.1 1039.5 1095.3 1149.9 1150.4 1154.8 1173.8 1193.1
  1205.5 1226.0 1251.1 1278.0 1280.2 1336.7 1354.9 1387.9 1406.0 1412.5
  1419.3 1448.9 1461.0 1469.0 1491.2 1491.6 1518.7 1520.1 1546.8 1550.4
  1577.9 1634.9 1655.8 1661.8 1689.4 1705.4 3026.2 3026.5 3113.5 3113.7
  3165.9 3166.0 3184.1 3184.2 3199.6 3199.8
 at 99999: n3=          96
 symm operator            1 :  F  nop=           0
 symm operator            2 :  F  nop=           0
 symm operator            3 :  F  nop=           0
 symm operator            4 :  F  nop=           0
 symm operator            5 :  F  nop=           0
 symm operator            6 :  F  nop=           0
 symm operator            7 :  F  nop=           0
 The point group of the molecule is  C1
 Symmetry rotation matrix:
   1.00000   0.00000   0.00000
   0.00000   1.00000   0.00000
   0.00000   0.00000   1.00000

 Projecting out zero-frequency components
 generating redundant internal coords
         300        3600          32
 search for int coords
   1 str   2   1   1.462
   2 str   3   2   1.410
   3 str   4   3   1.232
   4 str   5   3   1.458
   5 str   6   5   1.410
   6 str   7   6   1.380
   7 str   8   7   1.410
   8 str   9   8   1.458
   9 str  10   9   1.232
  10 str  11   9   1.410
  11 str  12  11   1.462
  12 str  13  11   1.410
  13 str  14  13   1.232
  14 str  15  13   1.458
  15 str  16  15   1.410
  16 str  17  16   1.380
  17 str  18  17   1.410
  18 str  19   2   1.410
  19 str  19  18   1.458
  20 str  20  19   1.232
  21 str  21   5   1.416
  22 str  21  18   1.416
  23 str  22   8   1.416
  24 str  22  15   1.416
  25 str  22  21   1.434
  26 str  23   1   1.095
  27 str  24   1   1.087
  28 str  25   1   1.087
  29 str  26   6   1.083
  30 str  27   7   1.083
  31 str  28  12   1.095
  32 str  29  12   1.087
  33 str  30  12   1.087
  34 str  31  16   1.083
  35 str  32  17   1.083
 nber stretches=          35
  36 ben   1   2   3
  37 prop tor   1   2   3   4
  38 prop tor   1   2   3   5
  39 ben   1   2  19
  40 prop tor   1   2  19  18
  41 prop tor   1   2  19  20
  42 ben   2   1  23
  43 ben   2   1  24
  44 ben   2   1  25
  45 ben   2   3   4
  46 ben   2   3   5
  47 prop tor   2   3   5   6
  48 prop tor   2   3   5  21
  49 ben   2  19  18
  50 ben   2  19  20
  51 ben   3   2  19
  52 prop tor   3   2  19  18
  53 prop tor   3   2  19  20
  54 ben   3   5   6
  55 prop tor   3   5   6   7
  56 prop tor   3   5   6  26
  57 ben   3   5  21
  58 prop tor   3   5  21  18
  59 prop tor   3   5  21  22
  60 ben   4   3   5
  61 prop tor   4   3   5   6
  62 prop tor   4   3   5  21
  63 ben   5   6   7
  64 prop tor   5   6   7   8
  65 prop tor   5   6   7  27
  66 ben   5   6  26
  67 ben   5  21  18
  68 ben   5  21  22
  69 prop tor   5  21  22   8
  70 prop tor   5  21  22  15
  71 ben   6   5  21
  72 prop tor   6   5  21  18
  73 prop tor   6   5  21  22
  74 ben   6   7   8
  75 prop tor   6   7   8   9
  76 prop tor   6   7   8  22
  77 ben   6   7  27
  78 ben   7   6  26
  79 ben   7   8   9
  80 prop tor   7   8   9  10
  81 prop tor   7   8   9  11
  82 ben   7   8  22
  83 prop tor   7   8  22  15
  84 prop tor   7   8  22  21
  85 ben   8   7  27
  86 ben   8   9  10
  87 ben   8   9  11
  88 prop tor   8   9  11  12
  89 prop tor   8   9  11  13
  90 ben   8  22  15
  91 ben   8  22  21
  92 ben   9   8  22
  93 prop tor   9   8  22  15
  94 prop tor   9   8  22  21
  95 ben   9  11  12
  96 prop tor   9  11  12  28
  97 prop tor   9  11  12  29
  98 prop tor   9  11  12  30
  99 ben   9  11  13
 100 prop tor   9  11  13  14
 101 prop tor   9  11  13  15
 102 ben  10   9  11
 103 prop tor  10   9  11  12
 104 prop tor  10   9  11  13
 105 ben  11  12  28
 106 ben  11  12  29
 107 ben  11  12  30
 108 ben  11  13  14
 109 ben  11  13  15
 110 prop tor  11  13  15  16
 111 prop tor  11  13  15  22
 112 ben  12  11  13
 113 prop tor  12  11  13  14
 114 prop tor  12  11  13  15
 115 prop tor  13  11  12  28
 116 prop tor  13  11  12  29
 117 prop tor  13  11  12  30
 118 ben  13  15  16
 119 prop tor  13  15  16  17
 120 prop tor  13  15  16  31
 121 ben  13  15  22
 122 prop tor  13  15  22   8
 123 prop tor  13  15  22  21
 124 ben  14  13  15
 125 prop tor  14  13  15  16
 126 prop tor  14  13  15  22
 127 ben  15  16  17
 128 prop tor  15  16  17  18
 129 prop tor  15  16  17  32
 130 ben  15  16  31
 131 ben  15  22  21
 132 ben  16  15  22
 133 prop tor  16  15  22   8
 134 prop tor  16  15  22  21
 135 ben  16  17  18
 136 prop tor  16  17  18  19
 137 prop tor  16  17  18  21
 138 ben  16  17  32
 139 ben  17  16  31
 140 ben  17  18  19
 141 prop tor  17  18  19   2
 142 prop tor  17  18  19  20
 143 ben  17  18  21
 144 prop tor  17  18  21   5
 145 prop tor  17  18  21  22
 146 ben  18  17  32
 147 ben  18  19  20
 148 ben  18  21  22
 149 prop tor  18  21  22   8
 150 prop tor  18  21  22  15
 151 prop tor  19   2   3   4
 152 prop tor  19   2   3   5
 153 ben  19  18  21
 154 prop tor  19  18  21   5
 155 prop tor  19  18  21  22
 156 prop tor  21   5   6   7
 157 prop tor  21   5   6  26
 158 prop tor  21  18  19   2
 159 prop tor  21  18  19  20
 160 prop tor  22   8   9  10
 161 prop tor  22   8   9  11
 162 prop tor  22  15  16  17
 163 prop tor  22  15  16  31
 164 prop tor  23   1   2   3
 165 prop tor  23   1   2  19
 166 ben  23   1  24
 167 ben  23   1  25
 168 prop tor  24   1   2   3
 169 prop tor  24   1   2  19
 170 ben  24   1  25
 171 prop tor  25   1   2   3
 172 prop tor  25   1   2  19
 173 prop tor  26   6   7   8
 174 prop tor  26   6   7  27
 175 prop tor  27   7   8   9
 176 prop tor  27   7   8  22
 177 ben  28  12  29
 178 ben  28  12  30
 179 ben  29  12  30
 180 prop tor  31  16  17  18
 181 prop tor  31  16  17  32
 182 prop tor  32  17  18  19
 183 prop tor  32  17  18  21
 nber bend=              60
 nber lin bend=           0
 nber prop tor=          88
 nber impr tor=           0
 nber tot redund int=         183
 Eigenvalues of G in red int coords
    Gval -0.00000000 -0.00000000 -0.00000000 -0.00000000 -0.00000000 -0.00000000 -0.00000000 -0.00000000
    Gval -0.00000000 -0.00000000 -0.00000000 -0.00000000 -0.00000000 -0.00000000 -0.00000000 -0.00000000
    Gval -0.00000000 -0.00000000 -0.00000000 -0.00000000 -0.00000000 -0.00000000 -0.00000000 -0.00000000
    Gval -0.00000000 -0.00000000 -0.00000000 -0.00000000 -0.00000000 -0.00000000 -0.00000000 -0.00000000
    Gval -0.00000000 -0.00000000 -0.00000000 -0.00000000 -0.00000000 -0.00000000 -0.00000000 -0.00000000
    Gval -0.00000000 -0.00000000 -0.00000000 -0.00000000 -0.00000000 -0.00000000  0.00000000  0.00000000
    Gval  0.00000000  0.00000000  0.00000000  0.00000000  0.00000000  0.00000000  0.00000000  0.00000000
    Gval  0.00000000  0.00000000  0.00000000  0.00000000  0.00000000  0.00000000  0.00000000  0.00000000
    Gval  0.00000000  0.00000000  0.00000000  0.00000000  0.00000000  0.00000000  0.00000000  0.00000000
    Gval  0.00000000  0.00000000  0.00000000  0.00000000  0.00000000  0.00000000  0.00000000  0.00000000
    Gval  0.00000000  0.00000000  0.00000000  0.00000000  0.00000000  0.00000000  0.00000000  0.00000000
    Gval  0.00000000  0.00000000  0.00000000  0.00000000  0.00000000  0.00000468  0.00000645  0.00001261
    Gval  0.00001476  0.00001621  0.00001698  0.00001702  0.00002208  0.00002217  0.00002255  0.00002499
    Gval  0.00002650  0.00002658  0.00002780  0.00003232  0.00005375  0.00005694  0.00006168  0.00006991
    Gval  0.00007003  0.00007946  0.00008126  0.00008185  0.00009061  0.00009692  0.00009732  0.00010532
    Gval  0.00010941  0.00012014  0.00012266  0.00015059  0.00015317  0.00016949  0.00017245  0.00020267
    Gval  0.00023023  0.00025656  0.00026754  0.00029108  0.00032745  0.00034078  0.00037056  0.00037447
    Gval  0.00039258  0.00039633  0.00042649  0.00043446  0.00043454  0.00044067  0.00046715  0.00047907
    Gval  0.00052702  0.00053783  0.00054712  0.00054730  0.00055232  0.00055444  0.00055468  0.00059931
    Gval  0.00059988  0.00064207  0.00064501  0.00067375  0.00069670  0.00070675  0.00071167  0.00071301
    Gval  0.00089163  0.00098795  0.00108962  0.00109108  0.00112810  0.00112815  0.00116527  0.00116579
    Gval  0.00119492  0.00134681  0.00137125  0.00164091  0.00166961  0.00191970  0.00239158  0.00243374
    Gval  0.00244692  0.00244708  0.00246918  0.00250977  0.00262250  0.00373251  0.00373517
  4.678382101155282E-006  4.678382101155282E-006
  6.452952454290407E-006  4.678382101155282E-006
  1.260728921276432E-005  4.678382101155282E-006
  1.475749370341477E-005  4.678382101155282E-006
  1.620714538481248E-005  4.678382101155282E-006
  1.698202509133934E-005  4.678382101155282E-006
  1.701816470817565E-005  4.678382101155282E-006
  2.207899667044877E-005  4.678382101155282E-006
  2.217489814078172E-005  4.678382101155282E-006
  2.254978077657611E-005  4.678382101155282E-006
  2.499278439999397E-005  4.678382101155282E-006
  2.650325826089243E-005  4.678382101155282E-006
  2.658177762336746E-005  4.678382101155282E-006
  2.779630170805651E-005  4.678382101155282E-006
  3.231685802886652E-005  4.678382101155282E-006
  5.374896418352743E-005  4.678382101155282E-006
  5.694093324838366E-005  4.678382101155282E-006
  6.168296513263025E-005  4.678382101155282E-006
  6.991227530323018E-005  4.678382101155282E-006
  7.002941375987879E-005  4.678382101155282E-006
  7.945941164500655E-005  4.678382101155282E-006
  8.125611221188110E-005  4.678382101155282E-006
  8.184843771901264E-005  4.678382101155282E-006
  9.061196388334756E-005  4.678382101155282E-006
  9.691683654057217E-005  4.678382101155282E-006
  9.732209732663318E-005  4.678382101155282E-006
  1.053221544480876E-004  4.678382101155282E-006
  1.094080528416002E-004  4.678382101155282E-006
  1.201445276262619E-004  4.678382101155282E-006
  1.226603661764494E-004  4.678382101155282E-006
  1.505913187346562E-004  4.678382101155282E-006
  1.531729278002286E-004  4.678382101155282E-006
  1.694898701253085E-004  4.678382101155282E-006
  1.724547173176824E-004  4.678382101155282E-006
  2.026681820156806E-004  4.678382101155282E-006
  2.302332911767906E-004  4.678382101155282E-006
  2.565568641205566E-004  4.678382101155282E-006
  2.675417087314299E-004  4.678382101155282E-006
  2.910802274098962E-004  4.678382101155282E-006
  3.274462632778104E-004  4.678382101155282E-006
  3.407761840439574E-004  4.678382101155282E-006
  3.705580345396547E-004  4.678382101155282E-006
  3.744659197652687E-004  4.678382101155282E-006
  3.925752866875165E-004  4.678382101155282E-006
  3.963292698336155E-004  4.678382101155282E-006
  4.264885343200700E-004  4.678382101155282E-006
  4.344593999284157E-004  4.678382101155282E-006
  4.345377513686947E-004  4.678382101155282E-006
  4.406652601834458E-004  4.678382101155282E-006
  4.671475726646912E-004  4.678382101155282E-006
  4.790678493827274E-004  4.678382101155282E-006
  5.270159898886806E-004  4.678382101155282E-006
  5.378289254189438E-004  4.678382101155282E-006
  5.471205169243383E-004  4.678382101155282E-006
  5.472984032707691E-004  4.678382101155282E-006
  5.523222553463416E-004  4.678382101155282E-006
  5.544403239288306E-004  4.678382101155282E-006
  5.546792767885981E-004  4.678382101155282E-006
  5.993083717034288E-004  4.678382101155282E-006
  5.998829978930920E-004  4.678382101155282E-006
  6.420658519753602E-004  4.678382101155282E-006
  6.450149307523717E-004  4.678382101155282E-006
  6.737495017671852E-004  4.678382101155282E-006
  6.966972384704783E-004  4.678382101155282E-006
  7.067520870366776E-004  4.678382101155282E-006
  7.116678416450465E-004  4.678382101155282E-006
  7.130089108490317E-004  4.678382101155282E-006
  8.916276722564691E-004  4.678382101155282E-006
  9.879533418536168E-004  4.678382101155282E-006
  1.089624319557336E-003  4.678382101155282E-006
  1.091083965222647E-003  4.678382101155282E-006
  1.128096558715931E-003  4.678382101155282E-006
  1.128152847056952E-003  4.678382101155282E-006
  1.165266282933278E-003  4.678382101155282E-006
  1.165789613547576E-003  4.678382101155282E-006
  1.194921185108051E-003  4.678382101155282E-006
  1.346806927784075E-003  4.678382101155282E-006
  1.371246961446959E-003  4.678382101155282E-006
  1.640912161193789E-003  4.678382101155282E-006
  1.669610240502672E-003  4.678382101155282E-006
  1.919704830367764E-003  4.678382101155282E-006
  2.391582043958936E-003  4.678382101155282E-006
  2.433744858318630E-003  4.678382101155282E-006
  2.446919753237262E-003  4.678382101155282E-006
  2.447080091073152E-003  4.678382101155282E-006
  2.469183379972696E-003  4.678382101155282E-006
  2.509767630998980E-003  4.678382101155282E-006
  2.622501871273010E-003  4.678382101155282E-006
  3.732505579295914E-003  4.678382101155282E-006
  3.735169418793985E-003  4.678382101155282E-006
 cut=1d-8, nber non-redundant internal coords=          90
 Check on Eigenvals of non-red overlap matrix:
  0.00000468  0.00000645  0.00001261  0.00001476  0.00001621  0.00001698  0.00001702  0.00002208
  0.00002217  0.00002255  0.00002499  0.00002650  0.00002658  0.00002780  0.00003232  0.00005375
  0.00005694  0.00006168  0.00006991  0.00007003  0.00007946  0.00008126  0.00008185  0.00009061
  0.00009692  0.00009732  0.00010532  0.00010941  0.00012014  0.00012266  0.00015059  0.00015317
  0.00016949  0.00017245  0.00020267  0.00023023  0.00025656  0.00026754  0.00029108  0.00032745
  0.00034078  0.00037056  0.00037447  0.00039258  0.00039633  0.00042649  0.00043446  0.00043454
  0.00044067  0.00046715  0.00047907  0.00052702  0.00053783  0.00054712  0.00054730  0.00055232
  0.00055444  0.00055468  0.00059931  0.00059988  0.00064207  0.00064501  0.00067375  0.00069670
  0.00070675  0.00071167  0.00071301  0.00089163  0.00098795  0.00108962  0.00109108  0.00112810
  0.00112815  0.00116527  0.00116579  0.00119492  0.00134681  0.00137125  0.00164091  0.00166961
  0.00191970  0.00239158  0.00243374  0.00244692  0.00244708  0.00246918  0.00250977  0.00262250
  0.00373251  0.00373517
 Checking for correct frequencies
 recalc frequencies=
   -72.7  -72.0   -0.0   -0.0   -0.0    0.0    0.0    0.0   58.9   59.5
   106.7  107.1  129.6  185.4  192.4  195.3  271.0  291.8  297.1  311.5
   319.7  384.6  396.5  403.9  412.7  416.0  416.5  457.4  480.6  516.0
   529.0  549.6  567.1  608.7  619.0  621.3  719.6  739.7  739.9  760.7
   764.8  773.7  794.1  824.2  849.4  849.5  854.5  938.5  956.7  975.4
   977.7 1006.1 1022.1 1039.5 1095.3 1149.9 1150.4 1154.8 1173.8 1193.1
  1205.5 1226.0 1251.1 1278.0 1280.2 1336.7 1354.9 1387.9 1406.0 1412.5
  1419.3 1448.9 1461.0 1469.0 1491.2 1491.6 1518.7 1520.1 1546.8 1550.4
  1577.9 1634.9 1655.8 1661.8 1689.4 1705.4 3026.2 3026.5 3113.5 3113.7
  3165.9 3166.0 3184.1 3184.2 3199.6 3199.8
 recalc symmetries=
                                                                       
                                                                       
                                                                       
                                                                       
                                                                       
                                                                       
                                                                       
                                                                       
                                                                       
                                           
 recalc freqs check OK
 Zero-point lengths:
 29.0758 29.2079 10.0000 10.0000 10.0000 10.0000 10.0000 10.0000 32.2903 32.1335
 24.0008 23.9568 21.7771 18.2069 17.8741 17.7394 15.0599 14.5120 14.3836 14.0466
 13.8656 12.6413 12.4502 12.3351 12.2026 12.1543 12.1481 11.5917 11.3081 10.9136
 10.7788 10.5752 10.4102 10.0487  9.9647  9.9463  9.2417  9.1152  9.1141  8.9884
  8.9646  8.9129  8.7974  8.6354  8.5064  8.5057  8.4809  8.0926  8.0150  7.9378
  7.9285  7.8158  7.7542  7.6892  7.4907  7.3109  7.3094  7.2952  7.2361  7.1773
  7.1402  7.0804  7.0089  6.9347  6.9287  6.7807  6.7350  6.6544  6.6116  6.5963
  6.5805  6.5130  6.4858  6.4683  6.4198  6.4191  6.3614  6.3585  6.3035  6.2961
  6.2410  6.1312  6.0925  6.0815  6.0316  6.0032  4.5066  4.5064  4.4429  4.4428
  4.4060  4.4059  4.3934  4.3933  4.3828  4.3826
 highest evec of mol 2
 -0.0004  0.0000 -0.0001
  0.0009 -0.0000  0.0000
 -0.0013  0.0020 -0.0000
  0.0001 -0.0013 -0.0000
 -0.0034 -0.0038 -0.0001
 -0.0811  0.1237 -0.0022
  0.0811  0.1236  0.0020
  0.0034 -0.0038  0.0001
  0.0013  0.0020  0.0000
 -0.0001 -0.0013  0.0000
 -0.0009  0.0000 -0.0000
  0.0004 -0.0000  0.0001
  0.0013 -0.0019  0.0000
 -0.0001  0.0012  0.0000
  0.0034  0.0037  0.0001
  0.0796 -0.1215  0.0022
 -0.0795 -0.1212 -0.0019
 -0.0034  0.0037 -0.0001
 -0.0013 -0.0019 -0.0000
  0.0001  0.0012 -0.0000
  0.0006 -0.0000  0.0000
 -0.0006 -0.0000 -0.0000
  0.0005  0.0000 -0.0007
  0.0005 -0.0010  0.0005
  0.0005  0.0009  0.0005
  0.2487 -0.4137  0.0068
 -0.2487 -0.4131 -0.0060
 -0.0005 -0.0000  0.0007
 -0.0005  0.0009 -0.0005
 -0.0005 -0.0009 -0.0005
 -0.2442  0.4062 -0.0067
  0.2440  0.4053  0.0059
 Enter nber and list of atoms to keep of mol #2
 keep list:          32           1           2           3           4
           5           6           7           8           9          10
          11          12          13          14          15          16
          17          18          19          20          21          22
          23          24          25          26          27          28
          29          30          31          32
 reordering atoms
           1   4.96983983828700     
           2   3.50816462332267     
           3   2.86783322741860     
           4   3.54113748597211     
           5   1.40970996754386     
           6  0.690020270002310     
           7 -0.690145458105054     
           8  -1.40975293410174     
           9  -2.86786961826877     
          10  -3.54146849464395     
          11  -3.50817847048571     
          12  -4.96981114898119     
          13  -2.86782537107628     
          14  -3.54119459405240     
          15  -1.40969894575697     
          16 -0.690014873423271     
          17  0.690152882381905     
          18   1.40975004771130     
          19   2.86786291823999     
          20   3.54149661499059     
          21  0.717013626404332     
          22 -0.717009631694005     
          23   5.36711642617931     
          24   5.31032648813522     
          25   5.31029475272349     
          26   1.25493421350510     
          27  -1.25511560980313     
          28  -5.36681320172557     
          29  -5.31045529527302     
          30  -5.31051769266989     
          31  -1.25493044376017     
          32   1.25512846201976     
           1           1
           2           2
           3           3
           4           4
           5           5
           6           6
           7           7
           8           8
           9           9
          10          10
          11          11
          12          12
          13          13
          14          14
          15          15
          16          16
          17          17
          18          18
          19          19
          20          20
          21          21
          22          22
          23          23
          24          24
          25          25
          26          26
          27          27
          28          28
          29          29
          30          30
          31          31
          32          32
 initial cartes coords mol 1
   6   0.06617  -0.08471   4.86230
   7   0.03140  -0.02058   3.54140
   6  -0.03090  -1.35836   2.80677
   8  -0.06151  -2.34996   3.50026
   6  -0.02743  -1.26626   1.38180
   6  -0.06146  -2.46568   0.62893
   6  -0.05706  -2.44605  -0.74004
   6  -0.00956  -1.21041  -1.45472
   6   0.04587  -1.15958  -2.83754
   8   0.10206  -2.26562  -3.64329
   7   0.03125   0.02064  -3.54137
   6   0.06571   0.08480  -4.86229
   6  -0.03082   1.35816  -2.80681
   8  -0.06138   2.34993  -3.50015
   6  -0.02742   1.26615  -1.38179
   6  -0.06133   2.46560  -0.62897
   6  -0.05682   2.44599   0.74000
   6  -0.00946   1.21038   1.45473
   6   0.04589   1.15964   2.83759
   8   0.10145   2.26588   3.64314
   6  -0.01596  -0.02181   0.70227
   6  -0.01597   0.02176  -0.70221
   1   0.10148   0.82947   5.42785
   1   0.04915  -1.06951   5.29733
   1   0.63194   2.94144   3.20667
   1  -0.10250  -3.40412   1.16757
   1  -0.12710  -3.38136  -1.28292
   1   0.09983  -0.82941  -5.42777
   1   0.04925   1.06971  -5.29719
   1   0.63226  -2.94133  -3.20655
   1  -0.10221   3.40399  -1.16768
   1  -0.12674   3.38131   1.28285
 initial cartes coords mol 2
   6   0.02084   0.00039   4.96984
   7   0.01221  -0.00010   3.50816
   6  -0.00277  -1.25603   2.86783
   8  -0.01610  -2.28763   3.54114
   6   0.00002  -1.23482   1.40971
   6  -0.00130  -2.44685   0.69002
   6   0.00131  -2.44681  -0.69015
   6   0.00003  -1.23474  -1.40975
   6   0.00285  -1.25578  -2.86787
   8   0.01594  -2.28722  -3.54147
   7  -0.01229   0.00011  -3.50818
   6  -0.02059  -0.00019  -4.96981
   6   0.00278   1.25602  -2.86783
   8   0.01594   2.28762  -3.54119
   6   0.00004   1.23482  -1.40970
   6   0.00134   2.44685  -0.69001
   6  -0.00127   2.44681   0.69015
   6   0.00002   1.23474   1.40975
   6  -0.00282   1.25574   2.86786
   8  -0.01613   2.28711   3.54150
   6   0.00115  -0.00002   0.71701
   6  -0.00106   0.00002  -0.71701
   1  -0.99975   0.00707   5.36712
   1   0.51781  -0.90469   5.31033
   1   0.52893   0.89938   5.31029
   1  -0.00279  -3.37082   1.25493
   1   0.00278  -3.37075  -1.25512
   1   1.00016  -0.00438  -5.36681
   1  -0.51951   0.90374  -5.31046
   1  -0.52653  -0.90033  -5.31052
   1   0.00280   3.37082  -1.25493
   1  -0.00277   3.37075   1.25513
 loop 1 0
 mod cartes coords mol 2
   6   0.02084   0.00039   4.96984
   7   0.01221  -0.00010   3.50816
   6  -0.00277  -1.25603   2.86783
   8  -0.01610  -2.28763   3.54114
   6   0.00002  -1.23482   1.40971
   6  -0.00130  -2.44685   0.69002
   6   0.00131  -2.44681  -0.69015
   6   0.00003  -1.23474  -1.40975
   6   0.00285  -1.25578  -2.86787
   8   0.01594  -2.28722  -3.54147
   7  -0.01229   0.00011  -3.50818
   6  -0.02059  -0.00019  -4.96981
   6   0.00278   1.25602  -2.86783
   8   0.01594   2.28762  -3.54119
   6   0.00004   1.23482  -1.40970
   6   0.00134   2.44685  -0.69001
   6  -0.00127   2.44681   0.69015
   6   0.00002   1.23474   1.40975
   6  -0.00282   1.25574   2.86786
   8  -0.01613   2.28711   3.54150
   6   0.00115  -0.00002   0.71701
   6  -0.00106   0.00002  -0.71701
   1  -0.99975   0.00707   5.36712
   1   0.51781  -0.90469   5.31033
   1   0.52893   0.89938   5.31029
   1  -0.00279  -3.37082   1.25493
   1   0.00278  -3.37075  -1.25512
   1   1.00016  -0.00438  -5.36681
   1  -0.51951   0.90374  -5.31046
   1  -0.52653  -0.90033  -5.31052
   1   0.00280   3.37082  -1.25493
   1  -0.00277   3.37075   1.25513
 read in order, maxerr=  3.15 for atom  30
 loop 1 1
 mod cartes coords mol 2
   6  -0.02084   0.00039   4.96984
   7  -0.01221  -0.00010   3.50816
   6   0.00277  -1.25603   2.86783
   8   0.01610  -2.28763   3.54114
   6  -0.00002  -1.23482   1.40971
   6   0.00130  -2.44685   0.69002
   6  -0.00131  -2.44681  -0.69015
   6  -0.00003  -1.23474  -1.40975
   6  -0.00285  -1.25578  -2.86787
   8  -0.01594  -2.28722  -3.54147
   7   0.01229   0.00011  -3.50818
   6   0.02059  -0.00019  -4.96981
   6  -0.00278   1.25602  -2.86783
   8  -0.01594   2.28762  -3.54119
   6  -0.00004   1.23482  -1.40970
   6  -0.00134   2.44685  -0.69001
   6   0.00127   2.44681   0.69015
   6  -0.00002   1.23474   1.40975
   6   0.00282   1.25574   2.86786
   8   0.01613   2.28711   3.54150
   6  -0.00115  -0.00002   0.71701
   6   0.00106   0.00002  -0.71701
   1   0.99975   0.00707   5.36712
   1  -0.51781  -0.90469   5.31033
   1  -0.52893   0.89938   5.31029
   1   0.00279  -3.37082   1.25493
   1  -0.00278  -3.37075  -1.25512
   1  -1.00016  -0.00438  -5.36681
   1   0.51951   0.90374  -5.31046
   1   0.52653  -0.90033  -5.31052
   1  -0.00280   3.37082  -1.25493
   1   0.00277   3.37075   1.25513
 read in order, maxerr=  3.15 for atom  25
 loop 1 2
 mod cartes coords mol 2
   6   0.02084  -0.00039   4.96984
   7   0.01221   0.00010   3.50816
   6  -0.00277   1.25603   2.86783
   8  -0.01610   2.28763   3.54114
   6   0.00002   1.23482   1.40971
   6  -0.00130   2.44685   0.69002
   6   0.00131   2.44681  -0.69015
   6   0.00003   1.23474  -1.40975
   6   0.00285   1.25578  -2.86787
   8   0.01594   2.28722  -3.54147
   7  -0.01229  -0.00011  -3.50818
   6  -0.02059   0.00019  -4.96981
   6   0.00278  -1.25602  -2.86783
   8   0.01594  -2.28762  -3.54119
   6   0.00004  -1.23482  -1.40970
   6   0.00134  -2.44685  -0.69001
   6  -0.00127  -2.44681   0.69015
   6   0.00002  -1.23474   1.40975
   6  -0.00282  -1.25574   2.86786
   8  -0.01613  -2.28711   3.54150
   6   0.00115   0.00002   0.71701
   6  -0.00106  -0.00002  -0.71701
   1  -0.99975  -0.00707   5.36712
   1   0.51781   0.90469   5.31033
   1   0.52893  -0.89938   5.31029
   1  -0.00279   3.37082   1.25493
   1   0.00278   3.37075  -1.25512
   1   1.00016   0.00438  -5.36681
   1  -0.51951  -0.90374  -5.31046
   1  -0.52653   0.90033  -5.31052
   1   0.00280  -3.37082  -1.25493
   1  -0.00277  -3.37075   1.25513
 read in order, maxerr=  6.78 for atom  26
 loop 1 3
 mod cartes coords mol 2
   6  -0.02084  -0.00039   4.96984
   7  -0.01221   0.00010   3.50816
   6   0.00277   1.25603   2.86783
   8   0.01610   2.28763   3.54114
   6  -0.00002   1.23482   1.40971
   6   0.00130   2.44685   0.69002
   6  -0.00131   2.44681  -0.69015
   6  -0.00003   1.23474  -1.40975
   6  -0.00285   1.25578  -2.86787
   8  -0.01594   2.28722  -3.54147
   7   0.01229  -0.00011  -3.50818
   6   0.02059   0.00019  -4.96981
   6  -0.00278  -1.25602  -2.86783
   8  -0.01594  -2.28762  -3.54119
   6  -0.00004  -1.23482  -1.40970
   6  -0.00134  -2.44685  -0.69001
   6   0.00127  -2.44681   0.69015
   6  -0.00002  -1.23474   1.40975
   6   0.00282  -1.25574   2.86786
   8   0.01613  -2.28711   3.54150
   6  -0.00115   0.00002   0.71701
   6   0.00106  -0.00002  -0.71701
   1   0.99975  -0.00707   5.36712
   1  -0.51781   0.90469   5.31033
   1  -0.52893  -0.89938   5.31029
   1   0.00279   3.37082   1.25493
   1  -0.00278   3.37075  -1.25512
   1  -1.00016   0.00438  -5.36681
   1   0.51951  -0.90374  -5.31046
   1   0.52653   0.90033  -5.31052
   1  -0.00280  -3.37082  -1.25493
   1   0.00277  -3.37075   1.25513
 read in order, maxerr=  6.78 for atom  26
 loop 1 4
 mod cartes coords mol 2
   6   0.02084   0.00039  -4.96984
   7   0.01221  -0.00010  -3.50816
   6  -0.00277  -1.25603  -2.86783
   8  -0.01610  -2.28763  -3.54114
   6   0.00002  -1.23482  -1.40971
   6  -0.00130  -2.44685  -0.69002
   6   0.00131  -2.44681   0.69015
   6   0.00003  -1.23474   1.40975
   6   0.00285  -1.25578   2.86787
   8   0.01594  -2.28722   3.54147
   7  -0.01229   0.00011   3.50818
   6  -0.02059  -0.00019   4.96981
   6   0.00278   1.25602   2.86783
   8   0.01594   2.28762   3.54119
   6   0.00004   1.23482   1.40970
   6   0.00134   2.44685   0.69001
   6  -0.00127   2.44681  -0.69015
   6   0.00002   1.23474  -1.40975
   6  -0.00282   1.25574  -2.86786
   8  -0.01613   2.28711  -3.54150
   6   0.00115  -0.00002  -0.71701
   6  -0.00106   0.00002   0.71701
   1  -0.99975   0.00707  -5.36712
   1   0.51781  -0.90469  -5.31033
   1   0.52893   0.89938  -5.31029
   1  -0.00279  -3.37082  -1.25493
   1   0.00278  -3.37075   1.25512
   1   1.00016  -0.00438   5.36681
   1  -0.51951   0.90374   5.31046
   1  -0.52653  -0.90033   5.31052
   1   0.00280   3.37082   1.25493
   1  -0.00277   3.37075  -1.25513
 read in order, maxerr= 10.88 for atom  23
 loop 1 5
 mod cartes coords mol 2
   6  -0.02084   0.00039  -4.96984
   7  -0.01221  -0.00010  -3.50816
   6   0.00277  -1.25603  -2.86783
   8   0.01610  -2.28763  -3.54114
   6  -0.00002  -1.23482  -1.40971
   6   0.00130  -2.44685  -0.69002
   6  -0.00131  -2.44681   0.69015
   6  -0.00003  -1.23474   1.40975
   6  -0.00285  -1.25578   2.86787
   8  -0.01594  -2.28722   3.54147
   7   0.01229   0.00011   3.50818
   6   0.02059  -0.00019   4.96981
   6  -0.00278   1.25602   2.86783
   8  -0.01594   2.28762   3.54119
   6  -0.00004   1.23482   1.40970
   6  -0.00134   2.44685   0.69001
   6   0.00127   2.44681  -0.69015
   6  -0.00002   1.23474  -1.40975
   6   0.00282   1.25574  -2.86786
   8   0.01613   2.28711  -3.54150
   6  -0.00115  -0.00002  -0.71701
   6   0.00106   0.00002   0.71701
   1   0.99975   0.00707  -5.36712
   1  -0.51781  -0.90469  -5.31033
   1  -0.52893   0.89938  -5.31029
   1   0.00279  -3.37082  -1.25493
   1  -0.00278  -3.37075   1.25512
   1  -1.00016  -0.00438   5.36681
   1   0.51951   0.90374   5.31046
   1   0.52653  -0.90033   5.31052
   1  -0.00280   3.37082   1.25493
   1   0.00277   3.37075  -1.25513
 read in order, maxerr= 10.88 for atom  28
 loop 1 6
 mod cartes coords mol 2
   6   0.02084  -0.00039  -4.96984
   7   0.01221   0.00010  -3.50816
   6  -0.00277   1.25603  -2.86783
   8  -0.01610   2.28763  -3.54114
   6   0.00002   1.23482  -1.40971
   6  -0.00130   2.44685  -0.69002
   6   0.00131   2.44681   0.69015
   6   0.00003   1.23474   1.40975
   6   0.00285   1.25578   2.86787
   8   0.01594   2.28722   3.54147
   7  -0.01229  -0.00011   3.50818
   6  -0.02059   0.00019   4.96981
   6   0.00278  -1.25602   2.86783
   8   0.01594  -2.28762   3.54119
   6   0.00004  -1.23482   1.40970
   6   0.00134  -2.44685   0.69001
   6  -0.00127  -2.44681  -0.69015
   6   0.00002  -1.23474  -1.40975
   6  -0.00282  -1.25574  -2.86786
   8  -0.01613  -2.28711  -3.54150
   6   0.00115   0.00002  -0.71701
   6  -0.00106  -0.00002   0.71701
   1  -0.99975  -0.00707  -5.36712
   1   0.51781   0.90469  -5.31033
   1   0.52893  -0.89938  -5.31029
   1  -0.00279   3.37082  -1.25493
   1   0.00278   3.37075   1.25512
   1   1.00016   0.00438   5.36681
   1  -0.51951  -0.90374   5.31046
   1  -0.52653   0.90033   5.31052
   1   0.00280  -3.37082   1.25493
   1  -0.00277  -3.37075  -1.25513
 read in order, maxerr= 10.88 for atom  23
 loop 1 7
 mod cartes coords mol 2
   6  -0.02084  -0.00039  -4.96984
   7  -0.01221   0.00010  -3.50816
   6   0.00277   1.25603  -2.86783
   8   0.01610   2.28763  -3.54114
   6  -0.00002   1.23482  -1.40971
   6   0.00130   2.44685  -0.69002
   6  -0.00131   2.44681   0.69015
   6  -0.00003   1.23474   1.40975
   6  -0.00285   1.25578   2.86787
   8  -0.01594   2.28722   3.54147
   7   0.01229  -0.00011   3.50818
   6   0.02059   0.00019   4.96981
   6  -0.00278  -1.25602   2.86783
   8  -0.01594  -2.28762   3.54119
   6  -0.00004  -1.23482   1.40970
   6  -0.00134  -2.44685   0.69001
   6   0.00127  -2.44681  -0.69015
   6  -0.00002  -1.23474  -1.40975
   6   0.00282  -1.25574  -2.86786
   8   0.01613  -2.28711  -3.54150
   6  -0.00115   0.00002  -0.71701
   6   0.00106  -0.00002   0.71701
   1   0.99975  -0.00707  -5.36712
   1  -0.51781   0.90469  -5.31033
   1  -0.52893  -0.89938  -5.31029
   1   0.00279   3.37082  -1.25493
   1  -0.00278   3.37075   1.25512
   1  -1.00016   0.00438   5.36681
   1   0.51951  -0.90374   5.31046
   1   0.52653   0.90033   5.31052
   1  -0.00280  -3.37082   1.25493
   1   0.00277  -3.37075  -1.25513
 read in order, maxerr= 10.88 for atom  28
 loop 2 0
 mod cartes coords mol 2
   6   0.02084   4.96984   0.00039
   7   0.01221   3.50816  -0.00010
   6  -0.00277   2.86783  -1.25603
   8  -0.01610   3.54114  -2.28763
   6   0.00002   1.40971  -1.23482
   6  -0.00130   0.69002  -2.44685
   6   0.00131  -0.69015  -2.44681
   6   0.00003  -1.40975  -1.23474
   6   0.00285  -2.86787  -1.25578
   8   0.01594  -3.54147  -2.28722
   7  -0.01229  -3.50818   0.00011
   6  -0.02059  -4.96981  -0.00019
   6   0.00278  -2.86783   1.25602
   8   0.01594  -3.54119   2.28762
   6   0.00004  -1.40970   1.23482
   6   0.00134  -0.69001   2.44685
   6  -0.00127   0.69015   2.44681
   6   0.00002   1.40975   1.23474
   6  -0.00282   2.86786   1.25574
   8  -0.01613   3.54150   2.28711
   6   0.00115   0.71701  -0.00002
   6  -0.00106  -0.71701   0.00002
   1  -0.99975   5.36712   0.00707
   1   0.51781   5.31033  -0.90469
   1   0.52893   5.31029   0.89938
   1  -0.00279   1.25493  -3.37082
   1   0.00278  -1.25512  -3.37075
   1   1.00016  -5.36681  -0.00438
   1  -0.51951  -5.31046   0.90374
   1  -0.52653  -5.31052  -0.90033
   1   0.00280  -1.25493   3.37082
   1  -0.00277   1.25513   3.37075
 read in order, maxerr=  8.92 for atom  29
 loop 2 1
 mod cartes coords mol 2
   6  -0.02084   4.96984   0.00039
   7  -0.01221   3.50816  -0.00010
   6   0.00277   2.86783  -1.25603
   8   0.01610   3.54114  -2.28763
   6  -0.00002   1.40971  -1.23482
   6   0.00130   0.69002  -2.44685
   6  -0.00131  -0.69015  -2.44681
   6  -0.00003  -1.40975  -1.23474
   6  -0.00285  -2.86787  -1.25578
   8  -0.01594  -3.54147  -2.28722
   7   0.01229  -3.50818   0.00011
   6   0.02059  -4.96981  -0.00019
   6  -0.00278  -2.86783   1.25602
   8  -0.01594  -3.54119   2.28762
   6  -0.00004  -1.40970   1.23482
   6  -0.00134  -0.69001   2.44685
   6   0.00127   0.69015   2.44681
   6  -0.00002   1.40975   1.23474
   6   0.00282   2.86786   1.25574
   8   0.01613   3.54150   2.28711
   6  -0.00115   0.71701  -0.00002
   6   0.00106  -0.71701   0.00002
   1   0.99975   5.36712   0.00707
   1  -0.51781   5.31033  -0.90469
   1  -0.52893   5.31029   0.89938
   1   0.00279   1.25493  -3.37082
   1  -0.00278  -1.25512  -3.37075
   1  -1.00016  -5.36681  -0.00438
   1   0.51951  -5.31046   0.90374
   1   0.52653  -5.31052  -0.90033
   1  -0.00280  -1.25493   3.37082
   1   0.00277   1.25513   3.37075
 read in order, maxerr=  8.92 for atom  24
 loop 2 2
 mod cartes coords mol 2
   6   0.02084   4.96984  -0.00039
   7   0.01221   3.50816   0.00010
   6  -0.00277   2.86783   1.25603
   8  -0.01610   3.54114   2.28763
   6   0.00002   1.40971   1.23482
   6  -0.00130   0.69002   2.44685
   6   0.00131  -0.69015   2.44681
   6   0.00003  -1.40975   1.23474
   6   0.00285  -2.86787   1.25578
   8   0.01594  -3.54147   2.28722
   7  -0.01229  -3.50818  -0.00011
   6  -0.02059  -4.96981   0.00019
   6   0.00278  -2.86783  -1.25602
   8   0.01594  -3.54119  -2.28762
   6   0.00004  -1.40970  -1.23482
   6   0.00134  -0.69001  -2.44685
   6  -0.00127   0.69015  -2.44681
   6   0.00002   1.40975  -1.23474
   6  -0.00282   2.86786  -1.25574
   8  -0.01613   3.54150  -2.28711
   6   0.00115   0.71701   0.00002
   6  -0.00106  -0.71701  -0.00002
   1  -0.99975   5.36712  -0.00707
   1   0.51781   5.31033   0.90469
   1   0.52893   5.31029  -0.89938
   1  -0.00279   1.25493   3.37082
   1   0.00278  -1.25512   3.37075
   1   1.00016  -5.36681   0.00438
   1  -0.51951  -5.31046  -0.90374
   1  -0.52653  -5.31052   0.90033
   1   0.00280  -1.25493  -3.37082
   1  -0.00277   1.25513  -3.37075
 read in order, maxerr=  7.77 for atom  29
 loop 2 3
 mod cartes coords mol 2
   6  -0.02084   4.96984  -0.00039
   7  -0.01221   3.50816   0.00010
   6   0.00277   2.86783   1.25603
   8   0.01610   3.54114   2.28763
   6  -0.00002   1.40971   1.23482
   6   0.00130   0.69002   2.44685
   6  -0.00131  -0.69015   2.44681
   6  -0.00003  -1.40975   1.23474
   6  -0.00285  -2.86787   1.25578
   8  -0.01594  -3.54147   2.28722
   7   0.01229  -3.50818  -0.00011
   6   0.02059  -4.96981   0.00019
   6  -0.00278  -2.86783  -1.25602
   8  -0.01594  -3.54119  -2.28762
   6  -0.00004  -1.40970  -1.23482
   6  -0.00134  -0.69001  -2.44685
   6   0.00127   0.69015  -2.44681
   6  -0.00002   1.40975  -1.23474
   6   0.00282   2.86786  -1.25574
   8   0.01613   3.54150  -2.28711
   6  -0.00115   0.71701   0.00002
   6   0.00106  -0.71701  -0.00002
   1   0.99975   5.36712  -0.00707
   1  -0.51781   5.31033   0.90469
   1  -0.52893   5.31029  -0.89938
   1   0.00279   1.25493   3.37082
   1  -0.00278  -1.25512   3.37075
   1  -1.00016  -5.36681   0.00438
   1   0.51951  -5.31046  -0.90374
   1   0.52653  -5.31052   0.90033
   1  -0.00280  -1.25493  -3.37082
   1   0.00277   1.25513  -3.37075
 read in order, maxerr=  7.77 for atom  24
 loop 2 4
 mod cartes coords mol 2
   6   0.02084  -4.96984   0.00039
   7   0.01221  -3.50816  -0.00010
   6  -0.00277  -2.86783  -1.25603
   8  -0.01610  -3.54114  -2.28763
   6   0.00002  -1.40971  -1.23482
   6  -0.00130  -0.69002  -2.44685
   6   0.00131   0.69015  -2.44681
   6   0.00003   1.40975  -1.23474
   6   0.00285   2.86787  -1.25578
   8   0.01594   3.54147  -2.28722
   7  -0.01229   3.50818   0.00011
   6  -0.02059   4.96981  -0.00019
   6   0.00278   2.86783   1.25602
   8   0.01594   3.54119   2.28762
   6   0.00004   1.40970   1.23482
   6   0.00134   0.69001   2.44685
   6  -0.00127  -0.69015   2.44681
   6   0.00002  -1.40975   1.23474
   6  -0.00282  -2.86786   1.25574
   8  -0.01613  -3.54150   2.28711
   6   0.00115  -0.71701  -0.00002
   6  -0.00106   0.71701   0.00002
   1  -0.99975  -5.36712   0.00707
   1   0.51781  -5.31033  -0.90469
   1   0.52893  -5.31029   0.89938
   1  -0.00279  -1.25493  -3.37082
   1   0.00278   1.25512  -3.37075
   1   1.00016   5.36681  -0.00438
   1  -0.51951   5.31046   0.90374
   1  -0.52653   5.31052  -0.90033
   1   0.00280   1.25493   3.37082
   1  -0.00277  -1.25513   3.37075
 read in order, maxerr=  8.65 for atom  30
 loop 2 5
 mod cartes coords mol 2
   6  -0.02084  -4.96984   0.00039
   7  -0.01221  -3.50816  -0.00010
   6   0.00277  -2.86783  -1.25603
   8   0.01610  -3.54114  -2.28763
   6  -0.00002  -1.40971  -1.23482
   6   0.00130  -0.69002  -2.44685
   6  -0.00131   0.69015  -2.44681
   6  -0.00003   1.40975  -1.23474
   6  -0.00285   2.86787  -1.25578
   8  -0.01594   3.54147  -2.28722
   7   0.01229   3.50818   0.00011
   6   0.02059   4.96981  -0.00019
   6  -0.00278   2.86783   1.25602
   8  -0.01594   3.54119   2.28762
   6  -0.00004   1.40970   1.23482
   6  -0.00134   0.69001   2.44685
   6   0.00127  -0.69015   2.44681
   6  -0.00002  -1.40975   1.23474
   6   0.00282  -2.86786   1.25574
   8   0.01613  -3.54150   2.28711
   6  -0.00115  -0.71701  -0.00002
   6   0.00106   0.71701   0.00002
   1   0.99975  -5.36712   0.00707
   1  -0.51781  -5.31033  -0.90469
   1  -0.52893  -5.31029   0.89938
   1   0.00279  -1.25493  -3.37082
   1  -0.00278   1.25512  -3.37075
   1  -1.00016   5.36681  -0.00438
   1   0.51951   5.31046   0.90374
   1   0.52653   5.31052  -0.90033
   1  -0.00280   1.25493   3.37082
   1   0.00277  -1.25513   3.37075
 read in order, maxerr=  8.65 for atom  25
 loop 2 6
 mod cartes coords mol 2
   6   0.02084  -4.96984  -0.00039
   7   0.01221  -3.50816   0.00010
   6  -0.00277  -2.86783   1.25603
   8  -0.01610  -3.54114   2.28763
   6   0.00002  -1.40971   1.23482
   6  -0.00130  -0.69002   2.44685
   6   0.00131   0.69015   2.44681
   6   0.00003   1.40975   1.23474
   6   0.00285   2.86787   1.25578
   8   0.01594   3.54147   2.28722
   7  -0.01229   3.50818  -0.00011
   6  -0.02059   4.96981   0.00019
   6   0.00278   2.86783  -1.25602
   8   0.01594   3.54119  -2.28762
   6   0.00004   1.40970  -1.23482
   6   0.00134   0.69001  -2.44685
   6  -0.00127  -0.69015  -2.44681
   6   0.00002  -1.40975  -1.23474
   6  -0.00282  -2.86786  -1.25574
   8  -0.01613  -3.54150  -2.28711
   6   0.00115  -0.71701   0.00002
   6  -0.00106   0.71701  -0.00002
   1  -0.99975  -5.36712  -0.00707
   1   0.51781  -5.31033   0.90469
   1   0.52893  -5.31029  -0.89938
   1  -0.00279  -1.25493   3.37082
   1   0.00278   1.25512   3.37075
   1   1.00016   5.36681   0.00438
   1  -0.51951   5.31046  -0.90374
   1  -0.52653   5.31052   0.90033
   1   0.00280   1.25493  -3.37082
   1  -0.00277  -1.25513  -3.37075
 read in order, maxerr=  9.29 for atom  30
 loop 2 7
 mod cartes coords mol 2
   6  -0.02084  -4.96984  -0.00039
   7  -0.01221  -3.50816   0.00010
   6   0.00277  -2.86783   1.25603
   8   0.01610  -3.54114   2.28763
   6  -0.00002  -1.40971   1.23482
   6   0.00130  -0.69002   2.44685
   6  -0.00131   0.69015   2.44681
   6  -0.00003   1.40975   1.23474
   6  -0.00285   2.86787   1.25578
   8  -0.01594   3.54147   2.28722
   7   0.01229   3.50818  -0.00011
   6   0.02059   4.96981   0.00019
   6  -0.00278   2.86783  -1.25602
   8  -0.01594   3.54119  -2.28762
   6  -0.00004   1.40970  -1.23482
   6  -0.00134   0.69001  -2.44685
   6   0.00127  -0.69015  -2.44681
   6  -0.00002  -1.40975  -1.23474
   6   0.00282  -2.86786  -1.25574
   8   0.01613  -3.54150  -2.28711
   6  -0.00115  -0.71701   0.00002
   6   0.00106   0.71701  -0.00002
   1   0.99975  -5.36712  -0.00707
   1  -0.51781  -5.31033   0.90469
   1  -0.52893  -5.31029  -0.89938
   1   0.00279  -1.25493   3.37082
   1  -0.00278   1.25512   3.37075
   1  -1.00016   5.36681   0.00438
   1   0.51951   5.31046  -0.90374
   1   0.52653   5.31052   0.90033
   1  -0.00280   1.25493  -3.37082
   1   0.00277  -1.25513  -3.37075
 read in order, maxerr=  9.29 for atom  25
 loop 3 0
 mod cartes coords mol 2
   6   0.00039   0.02084   4.96984
   7  -0.00010   0.01221   3.50816
   6  -1.25603  -0.00277   2.86783
   8  -2.28763  -0.01610   3.54114
   6  -1.23482   0.00002   1.40971
   6  -2.44685  -0.00130   0.69002
   6  -2.44681   0.00131  -0.69015
   6  -1.23474   0.00003  -1.40975
   6  -1.25578   0.00285  -2.86787
   8  -2.28722   0.01594  -3.54147
   7   0.00011  -0.01229  -3.50818
   6  -0.00019  -0.02059  -4.96981
   6   1.25602   0.00278  -2.86783
   8   2.28762   0.01594  -3.54119
   6   1.23482   0.00004  -1.40970
   6   2.44685   0.00134  -0.69001
   6   2.44681  -0.00127   0.69015
   6   1.23474   0.00002   1.40975
   6   1.25574  -0.00282   2.86786
   8   2.28711  -0.01613   3.54150
   6  -0.00002   0.00115   0.71701
   6   0.00002  -0.00106  -0.71701
   1   0.00707  -0.99975   5.36712
   1  -0.90469   0.51781   5.31033
   1   0.89938   0.52893   5.31029
   1  -3.37082  -0.00279   1.25493
   1  -3.37075   0.00278  -1.25512
   1  -0.00438   1.00016  -5.36681
   1   0.90374  -0.51951  -5.31046
   1  -0.90033  -0.52653  -5.31052
   1   3.37082   0.00280  -1.25493
   1   3.37075  -0.00277   1.25513
 read in order, maxerr=  4.87 for atom  32
 loop 3 1
 mod cartes coords mol 2
   6   0.00039  -0.02084   4.96984
   7  -0.00010  -0.01221   3.50816
   6  -1.25603   0.00277   2.86783
   8  -2.28763   0.01610   3.54114
   6  -1.23482  -0.00002   1.40971
   6  -2.44685   0.00130   0.69002
   6  -2.44681  -0.00131  -0.69015
   6  -1.23474  -0.00003  -1.40975
   6  -1.25578  -0.00285  -2.86787
   8  -2.28722  -0.01594  -3.54147
   7   0.00011   0.01229  -3.50818
   6  -0.00019   0.02059  -4.96981
   6   1.25602  -0.00278  -2.86783
   8   2.28762  -0.01594  -3.54119
   6   1.23482  -0.00004  -1.40970
   6   2.44685  -0.00134  -0.69001
   6   2.44681   0.00127   0.69015
   6   1.23474  -0.00002   1.40975
   6   1.25574   0.00282   2.86786
   8   2.28711   0.01613   3.54150
   6  -0.00002  -0.00115   0.71701
   6   0.00002   0.00106  -0.71701
   1   0.00707   0.99975   5.36712
   1  -0.90469  -0.51781   5.31033
   1   0.89938  -0.52893   5.31029
   1  -3.37082   0.00279   1.25493
   1  -3.37075  -0.00278  -1.25512
   1  -0.00438  -1.00016  -5.36681
   1   0.90374   0.51951  -5.31046
   1  -0.90033   0.52653  -5.31052
   1   3.37082  -0.00280  -1.25493
   1   3.37075   0.00277   1.25513
[...]
    Gval  0.00002065  0.00002237  0.00002314  0.00002535  0.00002596  0.00002699  0.00002806  0.00003238
    Gval  0.00005346  0.00005684  0.00006071  0.00006961  0.00007750  0.00007877  0.00008278  0.00008464
    Gval  0.00009237  0.00009586  0.00009642  0.00009991  0.00011197  0.00011856  0.00012378  0.00015100
    Gval  0.00015895  0.00016146  0.00016449  0.00020033  0.00022356  0.00023826  0.00026923  0.00028021
    Gval  0.00031598  0.00033061  0.00034768  0.00039068  0.00040623  0.00041649  0.00041963  0.00043016
    Gval  0.00044634  0.00046656  0.00049213  0.00050354  0.00054266  0.00054506  0.00054558  0.00056197
    Gval  0.00056198  0.00057528  0.00057542  0.00059901  0.00059948  0.00064271  0.00064505  0.00068501
    Gval  0.00071004  0.00077653  0.00077658  0.00080467  0.00086199  0.00107676  0.00109039  0.00109443
    Gval  0.00113263  0.00116381  0.00116446  0.00128044  0.00134073  0.00140508  0.00141327  0.00160431
    Gval  0.00160460  0.00162163  0.00172344  0.00178384  0.00192292  0.00203065  0.00243570  0.00254788
    Gval  0.00266745  0.00369075  0.00369307
  4.702751336402250E-006  4.702751336402250E-006
  6.389363743277943E-006  4.702751336402250E-006
  1.224077573857855E-005  4.702751336402250E-006
  1.468318942094323E-005  4.702751336402250E-006
  1.650606300297719E-005  4.702751336402250E-006
  1.776306924061872E-005  4.702751336402250E-006
  1.791141100107914E-005  4.702751336402250E-006
  2.064590284238765E-005  4.702751336402250E-006
  2.237478509806800E-005  4.702751336402250E-006
  2.313883549992631E-005  4.702751336402250E-006
  2.534865390261223E-005  4.702751336402250E-006
  2.596259310829123E-005  4.702751336402250E-006
  2.699420508822190E-005  4.702751336402250E-006
  2.806035343446653E-005  4.702751336402250E-006
  3.238201223318007E-005  4.702751336402250E-006
  5.345977075645297E-005  4.702751336402250E-006
  5.683831996184446E-005  4.702751336402250E-006
  6.071021268383785E-005  4.702751336402250E-006
  6.960684517532581E-005  4.702751336402250E-006
  7.750116791171070E-005  4.702751336402250E-006
  7.877268861767796E-005  4.702751336402250E-006
  8.278457537760779E-005  4.702751336402250E-006
  8.464216679941852E-005  4.702751336402250E-006
  9.236784712075908E-005  4.702751336402250E-006
  9.586303072461747E-005  4.702751336402250E-006
  9.641856774708662E-005  4.702751336402250E-006
  9.990670947884057E-005  4.702751336402250E-006
  1.119700950597129E-004  4.702751336402250E-006
  1.185587927346115E-004  4.702751336402250E-006
  1.237800197101206E-004  4.702751336402250E-006
  1.509960278215074E-004  4.702751336402250E-006
  1.589492344447619E-004  4.702751336402250E-006
  1.614586441756030E-004  4.702751336402250E-006
  1.644939590866999E-004  4.702751336402250E-006
  2.003258314722310E-004  4.702751336402250E-006
  2.235569280774410E-004  4.702751336402250E-006
  2.382649764640833E-004  4.702751336402250E-006
  2.692344158738223E-004  4.702751336402250E-006
  2.802144663979923E-004  4.702751336402250E-006
  3.159799037791681E-004  4.702751336402250E-006
  3.306120411201215E-004  4.702751336402250E-006
  3.476829060878384E-004  4.702751336402250E-006
  3.906826641889321E-004  4.702751336402250E-006
  4.062285669474768E-004  4.702751336402250E-006
  4.164903128418846E-004  4.702751336402250E-006
  4.196296206213308E-004  4.702751336402250E-006
  4.301585570822312E-004  4.702751336402250E-006
  4.463436666168885E-004  4.702751336402250E-006
  4.665559336930280E-004  4.702751336402250E-006
  4.921282572529875E-004  4.702751336402250E-006
  5.035390620882349E-004  4.702751336402250E-006
  5.426602616319010E-004  4.702751336402250E-006
  5.450599726542869E-004  4.702751336402250E-006
  5.455804224039362E-004  4.702751336402250E-006
  5.619701353430290E-004  4.702751336402250E-006
  5.619772628026851E-004  4.702751336402250E-006
  5.752772044963362E-004  4.702751336402250E-006
  5.754217360920652E-004  4.702751336402250E-006
  5.990073315441855E-004  4.702751336402250E-006
  5.994753738454825E-004  4.702751336402250E-006
  6.427136209291627E-004  4.702751336402250E-006
  6.450458496591627E-004  4.702751336402250E-006
  6.850131160926312E-004  4.702751336402250E-006
  7.100371395571363E-004  4.702751336402250E-006
  7.765328914683085E-004  4.702751336402250E-006
  7.765776526366177E-004  4.702751336402250E-006
  8.046711272599335E-004  4.702751336402250E-006
  8.619900376544157E-004  4.702751336402250E-006
  1.076763675628367E-003  4.702751336402250E-006
  1.090389190426213E-003  4.702751336402250E-006
  1.094433160940078E-003  4.702751336402250E-006
  1.132626808835302E-003  4.702751336402250E-006
  1.163813209407834E-003  4.702751336402250E-006
  1.164463573887443E-003  4.702751336402250E-006
  1.280443543874154E-003  4.702751336402250E-006
  1.340734553748861E-003  4.702751336402250E-006
  1.405082513022378E-003  4.702751336402250E-006
  1.413266010106672E-003  4.702751336402250E-006
  1.604312394013088E-003  4.702751336402250E-006
  1.604600982272845E-003  4.702751336402250E-006
  1.621630720709549E-003  4.702751336402250E-006
  1.723436644038482E-003  4.702751336402250E-006
  1.783836308670593E-003  4.702751336402250E-006
  1.922920603639346E-003  4.702751336402250E-006
  2.030649617102591E-003  4.702751336402250E-006
  2.435700844401566E-003  4.702751336402250E-006
  2.547882123808732E-003  4.702751336402250E-006
  2.667452311125247E-003  4.702751336402250E-006
  3.690746461521959E-003  4.702751336402250E-006
  3.693069342446933E-003  4.702751336402250E-006
 cut=1d-8, nber non-redundant internal coords=          90
 Check on Eigenvals of non-red overlap matrix:
  0.00000470  0.00000639  0.00001224  0.00001468  0.00001651  0.00001776  0.00001791  0.00002065
  0.00002237  0.00002314  0.00002535  0.00002596  0.00002699  0.00002806  0.00003238  0.00005346
  0.00005684  0.00006071  0.00006961  0.00007750  0.00007877  0.00008278  0.00008464  0.00009237
  0.00009586  0.00009642  0.00009991  0.00011197  0.00011856  0.00012378  0.00015100  0.00015895
  0.00016146  0.00016449  0.00020033  0.00022356  0.00023826  0.00026923  0.00028021  0.00031598
  0.00033061  0.00034768  0.00039068  0.00040623  0.00041649  0.00041963  0.00043016  0.00044634
  0.00046656  0.00049213  0.00050354  0.00054266  0.00054506  0.00054558  0.00056197  0.00056198
  0.00057528  0.00057542  0.00059901  0.00059948  0.00064271  0.00064505  0.00068501  0.00071004
  0.00077653  0.00077658  0.00080467  0.00086199  0.00107676  0.00109039  0.00109443  0.00113263
  0.00116381  0.00116446  0.00128044  0.00134073  0.00140508  0.00141327  0.00160431  0.00160460
  0.00162163  0.00172344  0.00178384  0.00192292  0.00203065  0.00243570  0.00254788  0.00266745
  0.00369075  0.00369307
 generating redundant internal coords
         300        3600          32
 search for int coords
   1 str   2   1   1.462
   2 str   3   2   1.410
   3 str   4   3   1.232
   4 str   5   3   1.458
   5 str   6   5   1.410
   6 str   7   6   1.380
   7 str   8   7   1.410
   8 str   9   8   1.458
   9 str  10   9   1.232
  10 str  11   9   1.410
  11 str  12  11   1.462
  12 str  13  11   1.410
  13 str  14  13   1.232
  14 str  15  13   1.458
  15 str  16  15   1.410
  16 str  17  16   1.380
  17 str  18  17   1.410
  18 str  19   2   1.410
  19 str  19  18   1.458
  20 str  20  19   1.232
  21 str  21   5   1.416
  22 str  21  18   1.416
  23 str  22   8   1.416
  24 str  22  15   1.416
  25 str  22  21   1.434
  26 str  23   1   1.095
  27 str  24   1   1.087
  28 str  25   1   1.087
  29 str  26   6   1.083
  30 str  27   7   1.083
  31 str  28  12   1.095
  32 str  29  12   1.087
  33 str  30  12   1.087
  34 str  31  16   1.083
  35 str  32  17   1.083
 nber stretches=          35
  36 ben   1   2   3
  37 prop tor   1   2   3   4
  38 prop tor   1   2   3   5
  39 ben   1   2  19
  40 prop tor   1   2  19  18
  41 prop tor   1   2  19  20
  42 ben   2   1  23
  43 ben   2   1  24
  44 ben   2   1  25
  45 ben   2   3   4
  46 ben   2   3   5
  47 prop tor   2   3   5   6
  48 prop tor   2   3   5  21
  49 ben   2  19  18
  50 ben   2  19  20
  51 ben   3   2  19
  52 prop tor   3   2  19  18
  53 prop tor   3   2  19  20
  54 ben   3   5   6
  55 prop tor   3   5   6   7
  56 prop tor   3   5   6  26
  57 ben   3   5  21
  58 prop tor   3   5  21  18
  59 prop tor   3   5  21  22
  60 ben   4   3   5
  61 prop tor   4   3   5   6
  62 prop tor   4   3   5  21
  63 ben   5   6   7
  64 prop tor   5   6   7   8
  65 prop tor   5   6   7  27
  66 ben   5   6  26
  67 ben   5  21  18
  68 ben   5  21  22
  69 prop tor   5  21  22   8
  70 prop tor   5  21  22  15
  71 ben   6   5  21
  72 prop tor   6   5  21  18
  73 prop tor   6   5  21  22
  74 ben   6   7   8
  75 prop tor   6   7   8   9
  76 prop tor   6   7   8  22
  77 ben   6   7  27
  78 ben   7   6  26
  79 ben   7   8   9
  80 prop tor   7   8   9  10
  81 prop tor   7   8   9  11
  82 ben   7   8  22
  83 prop tor   7   8  22  15
  84 prop tor   7   8  22  21
  85 ben   8   7  27
  86 ben   8   9  10
  87 ben   8   9  11
  88 prop tor   8   9  11  12
  89 prop tor   8   9  11  13
  90 ben   8  22  15
  91 ben   8  22  21
  92 ben   9   8  22
  93 prop tor   9   8  22  15
  94 prop tor   9   8  22  21
  95 ben   9  11  12
  96 prop tor   9  11  12  28
  97 prop tor   9  11  12  29
  98 prop tor   9  11  12  30
  99 ben   9  11  13
 100 prop tor   9  11  13  14
 101 prop tor   9  11  13  15
 102 ben  10   9  11
 103 prop tor  10   9  11  12
 104 prop tor  10   9  11  13
 105 ben  11  12  28
 106 ben  11  12  29
 107 ben  11  12  30
 108 ben  11  13  14
 109 ben  11  13  15
 110 prop tor  11  13  15  16
 111 prop tor  11  13  15  22
 112 ben  12  11  13
 113 prop tor  12  11  13  14
 114 prop tor  12  11  13  15
 115 prop tor  13  11  12  28
 116 prop tor  13  11  12  29
 117 prop tor  13  11  12  30
 118 ben  13  15  16
 119 prop tor  13  15  16  17
 120 prop tor  13  15  16  31
 121 ben  13  15  22
 122 prop tor  13  15  22   8
 123 prop tor  13  15  22  21
 124 ben  14  13  15
 125 prop tor  14  13  15  16
 126 prop tor  14  13  15  22
 127 ben  15  16  17
 128 prop tor  15  16  17  18
 129 prop tor  15  16  17  32
 130 ben  15  16  31
 131 ben  15  22  21
 132 ben  16  15  22
 133 prop tor  16  15  22   8
 134 prop tor  16  15  22  21
 135 ben  16  17  18
 136 prop tor  16  17  18  19
 137 prop tor  16  17  18  21
 138 ben  16  17  32
 139 ben  17  16  31
 140 ben  17  18  19
 141 prop tor  17  18  19   2
 142 prop tor  17  18  19  20
 143 ben  17  18  21
 144 prop tor  17  18  21   5
 145 prop tor  17  18  21  22
 146 ben  18  17  32
 147 ben  18  19  20
 148 ben  18  21  22
 149 prop tor  18  21  22   8
 150 prop tor  18  21  22  15
 151 prop tor  19   2   3   4
 152 prop tor  19   2   3   5
 153 ben  19  18  21
 154 prop tor  19  18  21   5
 155 prop tor  19  18  21  22
 156 prop tor  21   5   6   7
 157 prop tor  21   5   6  26
 158 prop tor  21  18  19   2
 159 prop tor  21  18  19  20
 160 prop tor  22   8   9  10
 161 prop tor  22   8   9  11
 162 prop tor  22  15  16  17
 163 prop tor  22  15  16  31
 164 prop tor  23   1   2   3
 165 prop tor  23   1   2  19
 166 ben  23   1  24
 167 ben  23   1  25
 168 prop tor  24   1   2   3
 169 prop tor  24   1   2  19
 170 ben  24   1  25
 171 prop tor  25   1   2   3
 172 prop tor  25   1   2  19
 173 prop tor  26   6   7   8
 174 prop tor  26   6   7  27
 175 prop tor  27   7   8   9
 176 prop tor  27   7   8  22
 177 ben  28  12  29
 178 ben  28  12  30
 179 ben  29  12  30
 180 prop tor  31  16  17  18
 181 prop tor  31  16  17  32
 182 prop tor  32  17  18  19
 183 prop tor  32  17  18  21
 nber bend=              60
 nber lin bend=           0
 nber prop tor=          88
 nber impr tor=           0
 nber tot redund int=         183
 Eigenvalues of G in red int coords
    Gval -0.00000000 -0.00000000 -0.00000000 -0.00000000 -0.00000000 -0.00000000 -0.00000000 -0.00000000
    Gval -0.00000000 -0.00000000 -0.00000000 -0.00000000 -0.00000000 -0.00000000 -0.00000000 -0.00000000
    Gval -0.00000000 -0.00000000 -0.00000000 -0.00000000 -0.00000000 -0.00000000 -0.00000000 -0.00000000
    Gval -0.00000000 -0.00000000 -0.00000000 -0.00000000 -0.00000000 -0.00000000 -0.00000000 -0.00000000
    Gval -0.00000000 -0.00000000 -0.00000000 -0.00000000 -0.00000000 -0.00000000 -0.00000000 -0.00000000
    Gval -0.00000000 -0.00000000 -0.00000000 -0.00000000  0.00000000  0.00000000  0.00000000  0.00000000
    Gval  0.00000000  0.00000000  0.00000000  0.00000000  0.00000000  0.00000000  0.00000000  0.00000000
    Gval  0.00000000  0.00000000  0.00000000  0.00000000  0.00000000  0.00000000  0.00000000  0.00000000
    Gval  0.00000000  0.00000000  0.00000000  0.00000000  0.00000000  0.00000000  0.00000000  0.00000000
    Gval  0.00000000  0.00000000  0.00000000  0.00000000  0.00000000  0.00000000  0.00000000  0.00000000
    Gval  0.00000000  0.00000000  0.00000000  0.00000000  0.00000000  0.00000000  0.00000000  0.00000000
    Gval  0.00000000  0.00000000  0.00000000  0.00000000  0.00000000  0.00000468  0.00000645  0.00001261
    Gval  0.00001476  0.00001621  0.00001698  0.00001702  0.00002208  0.00002217  0.00002255  0.00002499
    Gval  0.00002650  0.00002658  0.00002780  0.00003232  0.00005375  0.00005694  0.00006168  0.00006991
    Gval  0.00007003  0.00007946  0.00008126  0.00008185  0.00009061  0.00009692  0.00009732  0.00010532
    Gval  0.00010941  0.00012014  0.00012266  0.00015059  0.00015317  0.00016949  0.00017245  0.00020267
    Gval  0.00023023  0.00025656  0.00026754  0.00029108  0.00032745  0.00034078  0.00037056  0.00037447
    Gval  0.00039258  0.00039633  0.00042649  0.00043446  0.00043454  0.00044067  0.00046715  0.00047907
    Gval  0.00052702  0.00053783  0.00054712  0.00054730  0.00055232  0.00055444  0.00055468  0.00059931
    Gval  0.00059988  0.00064207  0.00064501  0.00067375  0.00069670  0.00070675  0.00071167  0.00071301
    Gval  0.00089163  0.00098795  0.00108962  0.00109108  0.00112810  0.00112815  0.00116527  0.00116579
    Gval  0.00119492  0.00134681  0.00137125  0.00164091  0.00166961  0.00191970  0.00239158  0.00243374
    Gval  0.00244692  0.00244708  0.00246918  0.00250977  0.00262250  0.00373251  0.00373517
  4.678382101155253E-006  4.678382101155253E-006
  6.452952454290295E-006  4.678382101155253E-006
  1.260728921276434E-005  4.678382101155253E-006
  1.475749370341474E-005  4.678382101155253E-006
  1.620714538481202E-005  4.678382101155253E-006
  1.698202509133935E-005  4.678382101155253E-006
  1.701816470817568E-005  4.678382101155253E-006
  2.207899667044875E-005  4.678382101155253E-006
  2.217489814078175E-005  4.678382101155253E-006
  2.254978077657615E-005  4.678382101155253E-006
  2.499278439999398E-005  4.678382101155253E-006
  2.650325826089226E-005  4.678382101155253E-006
  2.658177762336745E-005  4.678382101155253E-006
  2.779630170805653E-005  4.678382101155253E-006
  3.231685802886648E-005  4.678382101155253E-006
  5.374896418352742E-005  4.678382101155253E-006
  5.694093324838357E-005  4.678382101155253E-006
  6.168296513263024E-005  4.678382101155253E-006
  6.991227530323013E-005  4.678382101155253E-006
  7.002941375987849E-005  4.678382101155253E-006
  7.945941164500663E-005  4.678382101155253E-006
  8.125611221188071E-005  4.678382101155253E-006
  8.184843771901259E-005  4.678382101155253E-006
  9.061196388334761E-005  4.678382101155253E-006
  9.691683654057224E-005  4.678382101155253E-006
  9.732209732663308E-005  4.678382101155253E-006
  1.053221544480873E-004  4.678382101155253E-006
  1.094080528416003E-004  4.678382101155253E-006
  1.201445276262619E-004  4.678382101155253E-006
  1.226603661764492E-004  4.678382101155253E-006
  1.505913187346557E-004  4.678382101155253E-006
  1.531729278002283E-004  4.678382101155253E-006
  1.694898701253083E-004  4.678382101155253E-006
  1.724547173176819E-004  4.678382101155253E-006
  2.026681820156802E-004  4.678382101155253E-006
  2.302332911767906E-004  4.678382101155253E-006
  2.565568641205564E-004  4.678382101155253E-006
  2.675417087314298E-004  4.678382101155253E-006
  2.910802274098960E-004  4.678382101155253E-006
  3.274462632778098E-004  4.678382101155253E-006
  3.407761840439575E-004  4.678382101155253E-006
  3.705580345396544E-004  4.678382101155253E-006
  3.744659197652682E-004  4.678382101155253E-006
  3.925752866875164E-004  4.678382101155253E-006
  3.963292698336153E-004  4.678382101155253E-006
  4.264885343200698E-004  4.678382101155253E-006
  4.344593999284154E-004  4.678382101155253E-006
  4.345377513686953E-004  4.678382101155253E-006
  4.406652601834460E-004  4.678382101155253E-006
  4.671475726646912E-004  4.678382101155253E-006
  4.790678493827266E-004  4.678382101155253E-006
  5.270159898886802E-004  4.678382101155253E-006
  5.378289254189430E-004  4.678382101155253E-006
  5.471205169243385E-004  4.678382101155253E-006
  5.472984032707689E-004  4.678382101155253E-006
  5.523222553463425E-004  4.678382101155253E-006
  5.544403239288316E-004  4.678382101155253E-006
  5.546792767885982E-004  4.678382101155253E-006
  5.993083717034288E-004  4.678382101155253E-006
  5.998829978930918E-004  4.678382101155253E-006
  6.420658519753598E-004  4.678382101155253E-006
  6.450149307523716E-004  4.678382101155253E-006
  6.737495017671851E-004  4.678382101155253E-006
  6.966972384704782E-004  4.678382101155253E-006
  7.067520870366774E-004  4.678382101155253E-006
  7.116678416450456E-004  4.678382101155253E-006
  7.130089108490318E-004  4.678382101155253E-006
  8.916276722564681E-004  4.678382101155253E-006
  9.879533418536153E-004  4.678382101155253E-006
  1.089624319557332E-003  4.678382101155253E-006
  1.091083965222644E-003  4.678382101155253E-006
  1.128096558715930E-003  4.678382101155253E-006
  1.128152847056950E-003  4.678382101155253E-006
  1.165266282933276E-003  4.678382101155253E-006
  1.165789613547574E-003  4.678382101155253E-006
  1.194921185108048E-003  4.678382101155253E-006
  1.346806927784072E-003  4.678382101155253E-006
  1.371246961446955E-003  4.678382101155253E-006
  1.640912161193791E-003  4.678382101155253E-006
  1.669610240502676E-003  4.678382101155253E-006
  1.919704830367761E-003  4.678382101155253E-006
  2.391582043958930E-003  4.678382101155253E-006
  2.433744858318624E-003  4.678382101155253E-006
  2.446919753237261E-003  4.678382101155253E-006
  2.447080091073152E-003  4.678382101155253E-006
  2.469183379972693E-003  4.678382101155253E-006
  2.509767630998975E-003  4.678382101155253E-006
  2.622501871273005E-003  4.678382101155253E-006
  3.732505579295904E-003  4.678382101155253E-006
  3.735169418793975E-003  4.678382101155253E-006
 cut=1d-8, nber non-redundant internal coords=          90
 Check on Eigenvals of non-red overlap matrix:
  0.00000468  0.00000645  0.00001261  0.00001476  0.00001621  0.00001698  0.00001702  0.00002208
  0.00002217  0.00002255  0.00002499  0.00002650  0.00002658  0.00002780  0.00003232  0.00005375
  0.00005694  0.00006168  0.00006991  0.00007003  0.00007946  0.00008126  0.00008185  0.00009061
  0.00009692  0.00009732  0.00010532  0.00010941  0.00012014  0.00012266  0.00015059  0.00015317
  0.00016949  0.00017245  0.00020267  0.00023023  0.00025656  0.00026754  0.00029108  0.00032745
  0.00034078  0.00037056  0.00037447  0.00039258  0.00039633  0.00042649  0.00043446  0.00043454
  0.00044067  0.00046715  0.00047907  0.00052702  0.00053783  0.00054712  0.00054730  0.00055232
  0.00055444  0.00055468  0.00059931  0.00059988  0.00064207  0.00064501  0.00067375  0.00069670
  0.00070675  0.00071167  0.00071301  0.00089163  0.00098795  0.00108962  0.00109108  0.00112810
  0.00112815  0.00116527  0.00116579  0.00119492  0.00134681  0.00137125  0.00164091  0.00166961
  0.00191970  0.00239158  0.00243374  0.00244692  0.00244708  0.00246918  0.00250977  0.00262250
  0.00373251  0.00373517
 int defn changed for coord          28
          25          20           0           0
          25           1           0           0
