 Enter ifcurve (0=recti, 1=orth curvi, 2=apprx curvi, -1 = skip
 And atom ordering flag, 0= never changes, 1= use the first order thenceforth,
  2= deduce it (does read on fail), 3= always read it
 Reading file: 
 ./phenothiazine-pyrene_2_C0S1.log                                              
                                          
  Entering Gaussian System, Link 0=g16                                          
  
 Gaussian format, type: g94, g98, g03= F F F
  #P Geom=AllCheck Guess=TCheck SCRF=Check GenChk RB3LYP TD(FC,Read)/6-3    
 energy type= TD      
 Original G94 input coords:
  6 -6.183672  2.150002  2.932491
  6 -4.824751  1.855851  3.173707
  6 -4.054874  1.230366  2.218808
  6 -4.604787  0.854282  0.969075
  6 -5.981677  1.144996  0.744229
  6 -6.749097  1.797632  1.729527
 16 -6.791117  0.772608 -0.747937
  6 -5.590124 -0.106609 -1.645306
  6 -5.991866 -0.624112 -2.892921
  6 -5.100659 -1.315115 -3.679856
  6 -3.775968 -1.500560 -3.230209
  6 -3.360777 -0.991036 -2.020311
  6 -4.251868 -0.273923 -1.185445
  7 -3.799278  0.251128  0.015379
  6 -2.366709  0.159762  0.298723
  6 -1.890152 -0.988386  0.976053
  6 -0.493057 -1.043208  1.239331
  6  0.360842 -0.027625  0.849428
  6  1.813194 -0.104370  1.169936
  6  2.219376 -0.089954  2.508968
  6  3.560992 -0.170224  2.870162
  6  4.560482 -0.253828  1.896169
  6  5.955741 -0.324838  2.229723
  6  6.910797 -0.405857  1.268387
  6  6.563527 -0.429740 -0.125517
  6  7.533093 -0.517112 -1.135699
  6  7.164175 -0.544029 -2.476184
  6  5.821852 -0.485362 -2.839795
  6  4.817049 -0.396221 -1.865898
  6  3.422209 -0.346118 -2.199168
  6  2.462990 -0.255119 -1.240042
  6  2.798524 -0.193999  0.156994
  6  4.178733 -0.267508  0.520260
  6  5.184903 -0.364036 -0.488203
  6 -0.158548  1.121202  0.168574
  6 -1.543288  1.190074 -0.096116
  1 -6.779381  2.648063  3.687154
  1 -4.374348  2.124568  4.121052
  1 -3.016300  1.008294  2.407041
  1 -7.791365  2.015142  1.525352
  1 -7.013954 -0.471693 -3.220663
  1 -5.416301 -1.714045 -4.635707
  1 -3.070588 -2.050035 -3.840955
  1 -2.347444 -1.135585 -1.680260
  1 -2.556607 -1.789108  1.263063
  1 -0.084166 -1.911749  1.744020
  1  1.459634 -0.005558  3.277524
  1  3.841487 -0.157631  3.918568
  1  6.233114 -0.311358  3.278993
  1  7.960604 -0.456781  1.538695
  1  8.580977 -0.565105 -0.858099
  1  7.927455 -0.612508 -3.243563
  1  5.540109 -0.509837 -3.887416
  1  3.142914 -0.388770 -3.247215
  1  1.417042 -0.218928 -1.515098
  1  0.493902  1.940195 -0.098595
  1 -1.962994  2.053412 -0.601203
 nber atoms=          57
  Total Energy, E(TD-HF/TD-DFT) =  -1761.48019580                               
  
          32          49 "  -1761.48019580"
After scan for Atom:   Atom  AN      X      Y      Z        X      Y      Z        X      Y      Z   
After scan for Atom:   Atom  AN      X      Y      Z        X      Y      Z        X      Y      Z   
After scan for Atom:   Atom  AN      X      Y      Z        X      Y      Z        X      Y      Z   
After scan for Atom:   Atom  AN      X      Y      Z        X      Y      Z        X      Y      Z   
After scan for Atom:   Atom  AN      X      Y      Z        X      Y      Z        X      Y      Z   
After scan for Atom:   Atom  AN      X      Y      Z        X      Y      Z        X      Y      Z   
After scan for Atom:   Atom  AN      X      Y      Z        X      Y      Z        X      Y      Z   
After scan for Atom:   Atom  AN      X      Y      Z        X      Y      Z        X      Y      Z   
After scan for Atom:   Atom  AN      X      Y      Z        X      Y      Z        X      Y      Z   
After scan for Atom:   Atom  AN      X      Y      Z        X      Y      Z        X      Y      Z   
After scan for Atom:   Atom  AN      X      Y      Z        X      Y      Z        X      Y      Z   
After scan for Atom:   Atom  AN      X      Y      Z        X      Y      Z        X      Y      Z   
After scan for Atom:   Atom  AN      X      Y      Z        X      Y      Z        X      Y      Z   
After scan for Atom:   Atom  AN      X      Y      Z        X      Y      Z        X      Y      Z   
After scan for Atom:   Atom  AN      X      Y      Z        X      Y      Z        X      Y      Z   
After scan for Atom:   Atom  AN      X      Y      Z        X      Y      Z        X      Y      Z   
After scan for Atom:   Atom  AN      X      Y      Z        X      Y      Z        X      Y      Z   
After scan for Atom:   Atom  AN      X      Y      Z        X      Y      Z        X      Y      Z   
After scan for Atom:   Atom  AN      X      Y      Z        X      Y      Z        X      Y      Z   
After scan for Atom:   Atom  AN      X      Y      Z        X      Y      Z        X      Y      Z   
After scan for Atom:   Atom  AN      X      Y      Z        X      Y      Z        X      Y      Z   
After scan for Atom:   Atom  AN      X      Y      Z        X      Y      Z        X      Y      Z   
After scan for Atom:   Atom  AN      X      Y      Z        X      Y      Z        X      Y      Z   
After scan for Atom:   Atom  AN      X      Y      Z        X      Y      Z        X      Y      Z   
After scan for Atom:   Atom  AN      X      Y      Z        X      Y      Z        X      Y      Z   
After scan for Atom:   Atom  AN      X      Y      Z        X      Y      Z        X      Y      Z   
After scan for Atom:   Atom  AN      X      Y      Z        X      Y      Z        X      Y      Z   
After scan for Atom:   Atom  AN      X      Y      Z        X      Y      Z        X      Y      Z   
After scan for Atom:   Atom  AN      X      Y      Z        X      Y      Z        X      Y      Z   
After scan for Atom:   Atom  AN      X      Y      Z        X      Y      Z        X      Y      Z   
After scan for Atom:   Atom  AN      X      Y      Z        X      Y      Z        X      Y      Z   
After scan for Atom:   Atom  AN      X      Y      Z        X      Y      Z        X      Y      Z   
After scan for Atom:   Atom  AN      X      Y      Z        X      Y      Z        X      Y      Z   
After scan for Atom:   Atom  AN      X      Y      Z        X      Y      Z        X      Y      Z   
After scan for Atom:   Atom  AN      X      Y      Z        X      Y      Z        X      Y      Z   
After scan for Atom:   Atom  AN      X      Y      Z        X      Y      Z        X      Y      Z   
After scan for Atom:   Atom  AN      X      Y      Z        X      Y      Z        X      Y      Z   
After scan for Atom:   Atom  AN      X      Y      Z        X      Y      Z        X      Y      Z   
After scan for Atom:   Atom  AN      X      Y      Z        X      Y      Z        X      Y      Z   
After scan for Atom:   Atom  AN      X      Y      Z        X      Y      Z        X      Y      Z   
After scan for Atom:   Atom  AN      X      Y      Z        X      Y      Z        X      Y      Z   
After scan for Atom:   Atom  AN      X      Y      Z        X      Y      Z        X      Y      Z   
After scan for Atom:   Atom  AN      X      Y      Z        X      Y      Z        X      Y      Z   
After scan for Atom:   Atom  AN      X      Y      Z        X      Y      Z        X      Y      Z   
After scan for Atom:   Atom  AN      X      Y      Z        X      Y      Z        X      Y      Z   
After scan for Atom:   Atom  AN      X      Y      Z        X      Y      Z        X      Y      Z   
After scan for Atom:   Atom  AN      X      Y      Z        X      Y      Z        X      Y      Z   
After scan for Atom:   Atom  AN      X      Y      Z        X      Y      Z        X      Y      Z   
After scan for Atom:   Atom  AN      X      Y      Z        X      Y      Z        X      Y      Z   
After scan for Atom:   Atom  AN      X      Y      Z        X      Y      Z        X      Y      Z   
After scan for Atom:   Atom  AN      X      Y      Z        X      Y      Z        X      Y      Z   
After scan for Atom:   Atom  AN      X      Y      Z        X      Y      Z        X      Y      Z   
After scan for Atom:   Atom  AN      X      Y      Z        X      Y      Z        X      Y      Z   
After scan for Atom:   Atom  AN      X      Y      Z        X      Y      Z        X      Y      Z   
After scan for Atom:   Atom  AN      X      Y      Z        X      Y      Z        X      Y      Z   
 g94    frequencies=
     0.0    0.0    0.0    0.0    0.0    0.0   14.7   18.9   25.9   38.3
    57.2   69.1   80.8  102.3  117.6  124.5  142.1  158.8  197.9  213.4
   222.2  233.8  241.2  252.4  265.1  314.8  332.5  358.1  369.5  378.6
   401.9  415.2  423.6  430.3  432.3  440.2  457.3  458.5  480.0  499.0
   507.1  514.4  516.9  521.7  530.4  546.0  553.2  566.6  577.4  586.1
   606.4  618.0  624.1  645.8  652.5  669.5  689.1  690.7  691.9  700.9
   703.0  704.5  735.1  746.6  747.6  758.4  759.5  764.5  770.2  804.3
   828.1  831.7  839.2  844.4  848.6  850.3  856.2  860.7  870.2  877.9
   901.8  930.0  947.1  959.7  959.8  964.7  970.1  975.3  980.8  984.1
   986.8  988.3 1006.4 1023.5 1044.3 1047.1 1071.5 1078.6 1082.9 1094.7
  1123.6 1131.5 1142.2 1150.0 1165.0 1174.4 1186.4 1191.4 1195.3 1198.6
  1207.7 1240.0 1252.8 1262.4 1265.7 1269.1 1281.4 1286.0 1310.4 1317.5
  1327.1 1336.4 1343.1 1358.4 1366.0 1375.9 1378.4 1399.9 1407.7 1427.9
  1440.4 1441.7 1442.7 1459.0 1473.8 1476.3 1488.1 1505.0 1516.4 1525.9
  1550.0 1551.6 1567.8 1589.6 1614.3 1618.2 1627.5 1635.9 1643.3 1669.7
  3150.5 3153.2 3156.2 3156.2 3162.6 3164.0 3165.9 3170.6 3172.8 3173.0
  3179.3 3179.7 3188.6 3188.9 3199.0 3202.4 3202.6 3207.7 3208.8 3244.0
  3244.1
 g94    symmetries=
                                                 A      A      A      A
       A      A      A      A      A      A      A      A      A      A
       A      A      A      A      A      A      A      A      A      A
       A      A      A      A      A      A      A      A      A      A
       A      A      A      A      A      A      A      A      A      A
       A      A      A      A      A      A      A      A      A      A
       A      A      A      A      A      A      A      A      A      A
       A      A      A      A      A      A      A      A      A      A
       A      A      A      A      A      A      A      A      A      A
       A      A      A      A      A      A      A      A      A      A
       A      A      A      A      A      A      A      A      A      A
       A      A      A      A      A      A      A      A      A      A
       A      A      A      A      A      A      A      A      A      A
       A      A      A      A      A      A      A      A      A      A
       A      A      A      A      A      A      A      A      A      A
       A      A      A      A      A      A      A      A      A      A
       A      A      A      A      A      A      A      A      A      A
       A
 atomic masses:
 12.0000 12.0000 12.0000 12.0000 12.0000 12.0000 31.9721 12.0000 12.0000 12.0000
 12.0000 12.0000 12.0000 14.0031 12.0000 12.0000 12.0000 12.0000 12.0000 12.0000
 12.0000 12.0000 12.0000 12.0000 12.0000 12.0000 12.0000 12.0000 12.0000 12.0000
 12.0000 12.0000 12.0000 12.0000 12.0000 12.0000  1.0078  1.0078  1.0078  1.0078
  1.0078  1.0078  1.0078  1.0078  1.0078  1.0078  1.0078  1.0078  1.0078  1.0078
  1.0078  1.0078  1.0078  1.0078  1.0078  1.0078  1.0078
 looking for force constants in 
 ./phenothiazine-pyrene_2_C0S1.fchk                                             
  
 Cartesian Force Constants                  R   N=       14706                  
  
 n3=         171       14706
 g94-fc frequencies=
    -1.3   -0.0   -0.0    0.0    0.4    3.7   14.7   18.9   25.9   38.3
    57.2   69.1   80.8  102.3  117.6  124.5  142.1  158.8  197.9  213.4
   222.2  233.8  241.2  252.4  265.2  314.8  332.5  358.1  369.6  378.7
   401.9  415.2  423.6  430.4  432.4  440.2  457.4  458.6  480.0  499.0
   507.1  514.4  516.9  521.7  530.4  546.0  553.2  566.7  577.4  586.1
   606.5  618.0  624.1  645.8  652.5  669.5  689.1  690.8  691.9  700.9
   703.0  704.5  735.1  746.6  747.6  758.4  759.6  764.5  770.2  804.3
   828.1  831.8  839.2  844.4  848.6  850.3  856.2  860.7  870.3  877.9
   901.8  930.0  947.1  959.7  959.9  964.8  970.1  975.4  980.8  984.1
   986.8  988.3 1006.4 1023.5 1044.4 1047.2 1071.6 1078.6 1082.9 1094.7
  1123.6 1131.5 1142.2 1150.1 1165.0 1174.4 1186.4 1191.5 1195.3 1198.6
  1207.7 1240.0 1252.8 1262.5 1265.8 1269.1 1281.5 1286.0 1310.4 1317.6
  1327.1 1336.4 1343.2 1358.4 1366.1 1375.9 1378.4 1399.9 1407.7 1427.9
  1440.4 1441.8 1442.7 1459.0 1473.8 1476.3 1488.1 1505.0 1516.4 1525.9
  1550.1 1551.6 1567.8 1589.6 1614.3 1618.2 1627.5 1636.0 1643.3 1669.7
  3150.6 3153.2 3156.2 3156.3 3162.7 3164.0 3165.9 3170.7 3172.9 3173.0
  3179.4 3179.8 3188.7 3189.0 3199.1 3202.4 3202.6 3207.8 3208.9 3244.1
  3244.2
 at 99999: n3=         171
 symm operator            1 :  F  nop=           0
 symm operator            2 :  F  nop=           0
 symm operator            3 :  F  nop=           0
 symm operator            4 :  F  nop=           0
 symm operator            5 :  F  nop=           0
 symm operator            6 :  F  nop=           0
 symm operator            7 :  F  nop=           0
 The point group of the molecule is  C1
 Symmetry rotation matrix:
   1.00000   0.00000   0.00000
   0.00000   1.00000   0.00000
   0.00000   0.00000   1.00000

 Projecting out zero-frequency components
 generating redundant internal coords
         300        3600          57
 search for int coords
   1 str   2   1   1.411
   2 str   3   2   1.377
   3 str   4   3   1.416
   4 str   5   4   1.425
   5 str   6   1   1.375
   6 str   6   5   1.409
   7 str   7   5   1.738
   8 str   8   7   1.738
   9 str   9   8   1.409
  10 str  10   9   1.375
  11 str  11  10   1.411
  12 str  12  11   1.377
  13 str  13   8   1.425
  14 str  13  12   1.416
  15 str  14   4   1.386
  16 str  14  13   1.387
  17 str  15  14   1.463
  18 str  16  15   1.416
  19 str  17  16   1.423
  20 str  18  17   1.383
  21 str  19  18   1.489
  22 str  20  19   1.399
  23 str  21  20   1.392
  24 str  22  21   1.398
  25 str  23  22   1.436
  26 str  24  23   1.358
  27 str  25  24   1.437
  28 str  26  25   1.403
  29 str  27  26   1.391
  30 str  28  27   1.392
  31 str  29  28   1.402
  32 str  30  29   1.435
  33 str  31  30   1.360
  34 str  32  19   1.416
  35 str  32  31   1.438
  36 str  33  22   1.428
  37 str  33  32   1.429
  38 str  34  25   1.427
  39 str  34  29   1.426
  40 str  34  33   1.428
  41 str  35  18   1.433
  42 str  36  15   1.377
  43 str  36  35   1.411
  44 str  37   1   1.083
  45 str  38   2   1.083
  46 str  39   3   1.079
  47 str  40   6   1.084
  48 str  41   9   1.084
  49 str  42  10   1.083
  50 str  43  11   1.083
  51 str  44  12   1.079
  52 str  45  16   1.081
  53 str  46  17   1.085
  54 str  47  20   1.084
  55 str  48  21   1.085
  56 str  49  23   1.085
  57 str  50  24   1.085
  58 str  51  26   1.085
  59 str  52  27   1.085
  60 str  53  28   1.085
  61 str  54  30   1.085
  62 str  55  31   1.082
  63 str  56  35   1.081
  64 str  57  36   1.085
 nber stretches=          64
  65 ben   1   2   3
  66 prop tor   1   2   3   4
  67 prop tor   1   2   3  39
  68 ben   1   2  38
  69 ben   1   6   5
  70 ben   1   6  40
  71 ben   2   1   6
  72 prop tor   2   1   6   5
  73 prop tor   2   1   6  40
  74 ben   2   1  37
  75 ben   2   3   4
  76 prop tor   2   3   4   5
  77 prop tor   2   3   4  14
  78 ben   2   3  39
  79 ben   3   2  38
  80 ben   3   4   5
  81 prop tor   3   4   5   6
  82 prop tor   3   4   5   7
  83 ben   3   4  14
  84 prop tor   3   4  14  13
  85 prop tor   3   4  14  15
  86 ben   4   3  39
  87 ben   4   5   6
  88 prop tor   4   5   6   1
  89 prop tor   4   5   6  40
  90 ben   4   5   7
  91 prop tor   4   5   7   8
  92 ben   4  14  13
  93 ben   4  14  15
  94 prop tor   4  14  15  16
  95 prop tor   4  14  15  36
  96 ben   5   4  14
  97 prop tor   5   4  14  13
  98 prop tor   5   4  14  15
  99 ben   5   6  40
 100 ben   5   7   8
 101 prop tor   5   7   8   9
 102 prop tor   5   7   8  13
 103 prop tor   6   1   2   3
 104 prop tor   6   1   2  38
 105 ben   6   1  37
 106 ben   6   5   7
 107 prop tor   6   5   7   8
 108 prop tor   7   5   6   1
 109 prop tor   7   5   6  40
 110 ben   7   8   9
 111 prop tor   7   8   9  10
 112 prop tor   7   8   9  41
 113 ben   7   8  13
 114 prop tor   7   8  13  12
 115 prop tor   7   8  13  14
 116 ben   8   9  10
 117 prop tor   8   9  10  11
 118 prop tor   8   9  10  42
 119 ben   8   9  41
 120 ben   8  13  12
 121 ben   8  13  14
 122 prop tor   8  13  14   4
 123 prop tor   8  13  14  15
 124 ben   9   8  13
 125 prop tor   9   8  13  12
 126 prop tor   9   8  13  14
 127 ben   9  10  11
 128 prop tor   9  10  11  12
 129 prop tor   9  10  11  43
 130 ben   9  10  42
 131 ben  10   9  41
 132 ben  10  11  12
 133 prop tor  10  11  12  13
 134 prop tor  10  11  12  44
 135 ben  10  11  43
 136 ben  11  10  42
 137 ben  11  12  13
 138 prop tor  11  12  13   8
 139 prop tor  11  12  13  14
 140 ben  11  12  44
 141 ben  12  11  43
 142 ben  12  13  14
 143 prop tor  12  13  14   4
 144 prop tor  12  13  14  15
 145 prop tor  13   8   9  10
 146 prop tor  13   8   9  41
 147 ben  13  12  44
 148 ben  13  14  15
 149 prop tor  13  14  15  16
 150 prop tor  13  14  15  36
 151 prop tor  14   4   5   6
 152 prop tor  14   4   5   7
 153 ben  14  15  16
 154 prop tor  14  15  16  17
 155 prop tor  14  15  16  45
 156 ben  14  15  36
 157 prop tor  14  15  36  35
 158 prop tor  14  15  36  57
 159 ben  15  16  17
 160 prop tor  15  16  17  18
 161 prop tor  15  16  17  46
 162 ben  15  16  45
 163 ben  15  36  35
 164 ben  15  36  57
 165 ben  16  15  36
 166 prop tor  16  15  36  35
 167 prop tor  16  15  36  57
 168 ben  16  17  18
 169 prop tor  16  17  18  19
 170 prop tor  16  17  18  35
 171 ben  16  17  46
 172 ben  17  16  45
 173 ben  17  18  19
 174 prop tor  17  18  19  20
 175 prop tor  17  18  19  32
 176 ben  17  18  35
 177 prop tor  17  18  35  36
 178 prop tor  17  18  35  56
 179 ben  18  17  46
 180 ben  18  19  20
 181 prop tor  18  19  20  21
 182 prop tor  18  19  20  47
 183 ben  18  19  32
 184 prop tor  18  19  32  31
 185 prop tor  18  19  32  33
 186 ben  18  35  36
 187 prop tor  18  35  36  15
 188 prop tor  18  35  36  57
 189 ben  18  35  56
 190 ben  19  18  35
 191 prop tor  19  18  35  36
 192 prop tor  19  18  35  56
 193 ben  19  20  21
 194 prop tor  19  20  21  22
 195 prop tor  19  20  21  48
 196 ben  19  20  47
 197 ben  19  32  31
 198 ben  19  32  33
 199 prop tor  19  32  33  22
 200 prop tor  19  32  33  34
 201 ben  20  19  32
 202 prop tor  20  19  32  31
 203 prop tor  20  19  32  33
 204 ben  20  21  22
 205 prop tor  20  21  22  23
 206 prop tor  20  21  22  33
 207 ben  20  21  48
 208 ben  21  20  47
 209 ben  21  22  23
 210 prop tor  21  22  23  24
 211 prop tor  21  22  23  49
 212 ben  21  22  33
 213 prop tor  21  22  33  32
 214 prop tor  21  22  33  34
 215 ben  22  21  48
 216 ben  22  23  24
 217 prop tor  22  23  24  25
 218 prop tor  22  23  24  50
 219 ben  22  23  49
 220 ben  22  33  32
 221 ben  22  33  34
 222 prop tor  22  33  34  25
 223 prop tor  22  33  34  29
 224 ben  23  22  33
 225 prop tor  23  22  33  32
 226 prop tor  23  22  33  34
 227 ben  23  24  25
 228 prop tor  23  24  25  26
 229 prop tor  23  24  25  34
 230 ben  23  24  50
 231 ben  24  23  49
 232 ben  24  25  26
 233 prop tor  24  25  26  27
 234 prop tor  24  25  26  51
 235 ben  24  25  34
 236 prop tor  24  25  34  29
 237 prop tor  24  25  34  33
 238 ben  25  24  50
 239 ben  25  26  27
 240 prop tor  25  26  27  28
 241 prop tor  25  26  27  52
 242 ben  25  26  51
 243 ben  25  34  29
 244 ben  25  34  33
 245 ben  26  25  34
 246 prop tor  26  25  34  29
 247 prop tor  26  25  34  33
 248 ben  26  27  28
 249 prop tor  26  27  28  29
 250 prop tor  26  27  28  53
 251 ben  26  27  52
 252 ben  27  26  51
 253 ben  27  28  29
 254 prop tor  27  28  29  30
 255 prop tor  27  28  29  34
 256 ben  27  28  53
 257 ben  28  27  52
 258 ben  28  29  30
 259 prop tor  28  29  30  31
 260 prop tor  28  29  30  54
 261 ben  28  29  34
 262 prop tor  28  29  34  25
 263 prop tor  28  29  34  33
 264 ben  29  28  53
 265 ben  29  30  31
 266 prop tor  29  30  31  32
 267 prop tor  29  30  31  55
 268 ben  29  30  54
 269 ben  29  34  33
 270 ben  30  29  34
 271 prop tor  30  29  34  25
 272 prop tor  30  29  34  33
 273 ben  30  31  32
 274 prop tor  30  31  32  19
 275 prop tor  30  31  32  33
 276 ben  30  31  55
 277 ben  31  30  54
 278 ben  31  32  33
 279 prop tor  31  32  33  22
 280 prop tor  31  32  33  34
 281 prop tor  32  19  20  21
 282 prop tor  32  19  20  47
 283 ben  32  31  55
 284 ben  32  33  34
 285 prop tor  32  33  34  25
 286 prop tor  32  33  34  29
 287 prop tor  33  22  23  24
 288 prop tor  33  22  23  49
 289 prop tor  34  25  26  27
 290 prop tor  34  25  26  51
 291 prop tor  34  29  30  31
 292 prop tor  34  29  30  54
 293 prop tor  35  18  19  20
 294 prop tor  35  18  19  32
 295 ben  35  36  57
 296 prop tor  36  15  16  17
 297 prop tor  36  15  16  45
 298 ben  36  35  56
 299 prop tor  37   1   2   3
 300 prop tor  37   1   2  38
 301 prop tor  37   1   6   5
 302 prop tor  37   1   6  40
 303 prop tor  38   2   3   4
 304 prop tor  38   2   3  39
 305 prop tor  39   3   4   5
 306 prop tor  39   3   4  14
 307 prop tor  41   9  10  11
 308 prop tor  41   9  10  42
 309 prop tor  42  10  11  12
 310 prop tor  42  10  11  43
 311 prop tor  43  11  12  13
 312 prop tor  43  11  12  44
 313 prop tor  44  12  13   8
 314 prop tor  44  12  13  14
 315 prop tor  45  16  17  18
 316 prop tor  45  16  17  46
 317 prop tor  46  17  18  19
 318 prop tor  46  17  18  35
 319 prop tor  47  20  21  22
 320 prop tor  47  20  21  48
 321 prop tor  48  21  22  23
 322 prop tor  48  21  22  33
 323 prop tor  49  23  24  25
 324 prop tor  49  23  24  50
 325 prop tor  50  24  25  26
 326 prop tor  50  24  25  34
 327 prop tor  51  26  27  28
 328 prop tor  51  26  27  52
 329 prop tor  52  27  28  29
 330 prop tor  52  27  28  53
 331 prop tor  53  28  29  30
 332 prop tor  53  28  29  34
 333 prop tor  54  30  31  32
 334 prop tor  54  30  31  55
 335 prop tor  55  31  32  19
 336 prop tor  55  31  32  33
 337 prop tor  56  35  36  15
 338 prop tor  56  35  36  57
 nber bend=             106
 nber lin bend=           0
 nber prop tor=         168
 nber impr tor=           0
 nber tot redund int=         338
 Eigenvalues of G in red int coords
    Gval -0.00000000 -0.00000000 -0.00000000 -0.00000000 -0.00000000 -0.00000000 -0.00000000 -0.00000000
    Gval -0.00000000 -0.00000000 -0.00000000 -0.00000000 -0.00000000 -0.00000000 -0.00000000 -0.00000000
    Gval -0.00000000 -0.00000000 -0.00000000 -0.00000000 -0.00000000 -0.00000000 -0.00000000 -0.00000000
    Gval -0.00000000 -0.00000000 -0.00000000 -0.00000000 -0.00000000 -0.00000000 -0.00000000 -0.00000000
    Gval -0.00000000 -0.00000000 -0.00000000 -0.00000000 -0.00000000 -0.00000000 -0.00000000 -0.00000000
    Gval -0.00000000 -0.00000000 -0.00000000 -0.00000000 -0.00000000 -0.00000000 -0.00000000 -0.00000000
    Gval -0.00000000 -0.00000000 -0.00000000 -0.00000000 -0.00000000 -0.00000000 -0.00000000 -0.00000000
    Gval -0.00000000 -0.00000000 -0.00000000 -0.00000000 -0.00000000 -0.00000000 -0.00000000 -0.00000000
    Gval -0.00000000 -0.00000000 -0.00000000 -0.00000000 -0.00000000 -0.00000000 -0.00000000 -0.00000000
    Gval -0.00000000 -0.00000000 -0.00000000 -0.00000000 -0.00000000 -0.00000000 -0.00000000 -0.00000000
    Gval -0.00000000 -0.00000000 -0.00000000 -0.00000000 -0.00000000 -0.00000000 -0.00000000 -0.00000000
    Gval -0.00000000  0.00000000  0.00000000  0.00000000  0.00000000  0.00000000  0.00000000  0.00000000
    Gval  0.00000000  0.00000000  0.00000000  0.00000000  0.00000000  0.00000000  0.00000000  0.00000000
    Gval  0.00000000  0.00000000  0.00000000  0.00000000  0.00000000  0.00000000  0.00000000  0.00000000
    Gval  0.00000000  0.00000000  0.00000000  0.00000000  0.00000000  0.00000000  0.00000000  0.00000000
    Gval  0.00000000  0.00000000  0.00000000  0.00000000  0.00000000  0.00000000  0.00000000  0.00000000
    Gval  0.00000000  0.00000000  0.00000000  0.00000000  0.00000000  0.00000000  0.00000000  0.00000000
    Gval  0.00000000  0.00000000  0.00000000  0.00000000  0.00000000  0.00000000  0.00000000  0.00000000
    Gval  0.00000000  0.00000000  0.00000000  0.00000000  0.00000000  0.00000000  0.00000000  0.00000000
    Gval  0.00000000  0.00000000  0.00000000  0.00000000  0.00000000  0.00000000  0.00000000  0.00000000
    Gval  0.00000000  0.00000000  0.00000000  0.00000000  0.00000000  0.00000000  0.00000000  0.00000000
    Gval  0.00000000  0.00000000  0.00000000  0.00000000  0.00000000  0.00000035  0.00000074  0.00000121
    Gval  0.00000185  0.00000211  0.00000643  0.00000683  0.00000998  0.00001059  0.00001198  0.00001618
    Gval  0.00002074  0.00002145  0.00002305  0.00002387  0.00002482  0.00002820  0.00002903  0.00003076
    Gval  0.00003360  0.00003807  0.00004192  0.00004698  0.00004830  0.00005140  0.00005165  0.00005509
    Gval  0.00005874  0.00006065  0.00006600  0.00006876  0.00006938  0.00007055  0.00007280  0.00007502
    Gval  0.00007578  0.00007840  0.00008006  0.00008555  0.00009005  0.00009975  0.00010139  0.00010488
    Gval  0.00011232  0.00011726  0.00012194  0.00012366  0.00012575  0.00013217  0.00013929  0.00014264
    Gval  0.00014772  0.00015291  0.00016544  0.00017311  0.00017888  0.00018974  0.00019464  0.00020366
    Gval  0.00021116  0.00022746  0.00024361  0.00024921  0.00025905  0.00027129  0.00029482  0.00030141
    Gval  0.00031515  0.00031842  0.00032510  0.00033464  0.00034663  0.00036987  0.00037590  0.00038118
    Gval  0.00038872  0.00039942  0.00041102  0.00041934  0.00043664  0.00044688  0.00045138  0.00046208
    Gval  0.00051827  0.00052054  0.00052816  0.00059321  0.00059322  0.00059388  0.00059661  0.00059718
    Gval  0.00059724  0.00059737  0.00059869  0.00059994  0.00060048  0.00060834  0.00061784  0.00062007
    Gval  0.00062661  0.00063331  0.00064130  0.00064710  0.00064864  0.00065456  0.00065528  0.00065782
    Gval  0.00065916  0.00068519  0.00076761  0.00079327  0.00082263  0.00082742  0.00098186  0.00100065
    Gval  0.00105559  0.00105595  0.00106437  0.00107442  0.00108191  0.00108715  0.00109363  0.00111110
    Gval  0.00112198  0.00112199  0.00113847  0.00115198  0.00115820  0.00116140  0.00116335  0.00116513
    Gval  0.00116515  0.00116751  0.00117358  0.00117485  0.00117500  0.00118013  0.00124849  0.00149981
    Gval  0.00168781  0.00169902  0.00174835  0.00179733  0.00181555  0.00192571  0.00218987  0.00221584
    Gval  0.00237065  0.00240395  0.00249949  0.00250983  0.00260837  0.00264032  0.00270798  0.00310663
    Gval  0.00350733  0.00352078  0.00360318  0.00367016  0.00369083  0.00375100  0.00380231  0.00392492
    Gval  0.00402796  0.00402929
  3.522412157562276E-007  3.522412157562276E-007
  7.384102029400966E-007  3.522412157562276E-007
  1.213749139243450E-006  3.522412157562276E-007
  1.853534156897429E-006  3.522412157562276E-007
  2.110959077522106E-006  3.522412157562276E-007
  6.433216381052700E-006  3.522412157562276E-007
  6.832752498390217E-006  3.522412157562276E-007
  9.980335311682982E-006  3.522412157562276E-007
  1.058987214951999E-005  3.522412157562276E-007
  1.198251670453270E-005  3.522412157562276E-007
  1.617537405948328E-005  3.522412157562276E-007
  2.074334187192330E-005  3.522412157562276E-007
  2.144795085568750E-005  3.522412157562276E-007
  2.305195812602104E-005  3.522412157562276E-007
  2.386696166672670E-005  3.522412157562276E-007
  2.482485427917880E-005  3.522412157562276E-007
  2.820047929231895E-005  3.522412157562276E-007
  2.902828337719316E-005  3.522412157562276E-007
  3.075597469063972E-005  3.522412157562276E-007
  3.360025325031943E-005  3.522412157562276E-007
  3.806556686634543E-005  3.522412157562276E-007
  4.192048745347679E-005  3.522412157562276E-007
  4.697830588297338E-005  3.522412157562276E-007
  4.830394105634182E-005  3.522412157562276E-007
  5.140127555084509E-005  3.522412157562276E-007
  5.164975229908560E-005  3.522412157562276E-007
  5.509475298894139E-005  3.522412157562276E-007
  5.874203335195558E-005  3.522412157562276E-007
  6.065294877564881E-005  3.522412157562276E-007
  6.600108796378640E-005  3.522412157562276E-007
  6.875933968995428E-005  3.522412157562276E-007
  6.937641568644232E-005  3.522412157562276E-007
  7.055175983383287E-005  3.522412157562276E-007
  7.280422408093720E-005  3.522412157562276E-007
  7.501921685437591E-005  3.522412157562276E-007
  7.577590772980014E-005  3.522412157562276E-007
  7.840468435072425E-005  3.522412157562276E-007
  8.006402999652479E-005  3.522412157562276E-007
  8.554549265753090E-005  3.522412157562276E-007
  9.005092926464559E-005  3.522412157562276E-007
  9.975356223760797E-005  3.522412157562276E-007
  1.013932834949258E-004  3.522412157562276E-007
  1.048762118196458E-004  3.522412157562276E-007
  1.123245502999707E-004  3.522412157562276E-007
  1.172645722753009E-004  3.522412157562276E-007
  1.219369059171927E-004  3.522412157562276E-007
  1.236577213211482E-004  3.522412157562276E-007
  1.257503377845130E-004  3.522412157562276E-007
  1.321683661646605E-004  3.522412157562276E-007
  1.392934845245614E-004  3.522412157562276E-007
  1.426426972062760E-004  3.522412157562276E-007
  1.477191366603507E-004  3.522412157562276E-007
  1.529087100914183E-004  3.522412157562276E-007
  1.654406029361002E-004  3.522412157562276E-007
  1.731083722029368E-004  3.522412157562276E-007
  1.788796240926633E-004  3.522412157562276E-007
  1.897386316507427E-004  3.522412157562276E-007
  1.946377431664172E-004  3.522412157562276E-007
  2.036644700280116E-004  3.522412157562276E-007
  2.111598484509301E-004  3.522412157562276E-007
  2.274581231221379E-004  3.522412157562276E-007
  2.436138336496056E-004  3.522412157562276E-007
  2.492148916978769E-004  3.522412157562276E-007
  2.590510114585199E-004  3.522412157562276E-007
  2.712851000483313E-004  3.522412157562276E-007
  2.948152909705435E-004  3.522412157562276E-007
  3.014136276866626E-004  3.522412157562276E-007
  3.151453888742913E-004  3.522412157562276E-007
  3.184183098199724E-004  3.522412157562276E-007
  3.251014738897902E-004  3.522412157562276E-007
  3.346366739849199E-004  3.522412157562276E-007
  3.466254664040992E-004  3.522412157562276E-007
  3.698744150459766E-004  3.522412157562276E-007
  3.759000066947515E-004  3.522412157562276E-007
  3.811752896021852E-004  3.522412157562276E-007
  3.887237114832476E-004  3.522412157562276E-007
  3.994181936099290E-004  3.522412157562276E-007
  4.110249153298857E-004  3.522412157562276E-007
  4.193361186235772E-004  3.522412157562276E-007
  4.366399298790551E-004  3.522412157562276E-007
  4.468813449918985E-004  3.522412157562276E-007
  4.513774677145569E-004  3.522412157562276E-007
  4.620838452110965E-004  3.522412157562276E-007
  5.182719995112025E-004  3.522412157562276E-007
  5.205382202697105E-004  3.522412157562276E-007
  5.281603041952865E-004  3.522412157562276E-007
  5.932057126651236E-004  3.522412157562276E-007
  5.932221187173264E-004  3.522412157562276E-007
  5.938816884078017E-004  3.522412157562276E-007
  5.966141916867261E-004  3.522412157562276E-007
  5.971841051627091E-004  3.522412157562276E-007
  5.972356856349535E-004  3.522412157562276E-007
  5.973738679871048E-004  3.522412157562276E-007
  5.986902204901606E-004  3.522412157562276E-007
  5.999394901246055E-004  3.522412157562276E-007
  6.004795991282648E-004  3.522412157562276E-007
  6.083424435568534E-004  3.522412157562276E-007
  6.178444019912916E-004  3.522412157562276E-007
  6.200666323058997E-004  3.522412157562276E-007
  6.266147921857422E-004  3.522412157562276E-007
  6.333084763487959E-004  3.522412157562276E-007
  6.413016574464093E-004  3.522412157562276E-007
  6.471045622928889E-004  3.522412157562276E-007
  6.486391346619306E-004  3.522412157562276E-007
  6.545649647618156E-004  3.522412157562276E-007
  6.552792756416897E-004  3.522412157562276E-007
  6.578174278668309E-004  3.522412157562276E-007
  6.591599308696599E-004  3.522412157562276E-007
  6.851908362657450E-004  3.522412157562276E-007
  7.676053961789272E-004  3.522412157562276E-007
  7.932654661717874E-004  3.522412157562276E-007
  8.226294476823326E-004  3.522412157562276E-007
  8.274204261443463E-004  3.522412157562276E-007
  9.818638336193113E-004  3.522412157562276E-007
  1.000648174785520E-003  3.522412157562276E-007
  1.055592985965434E-003  3.522412157562276E-007
  1.055948288033953E-003  3.522412157562276E-007
  1.064372734435015E-003  3.522412157562276E-007
  1.074417567381148E-003  3.522412157562276E-007
  1.081913374733281E-003  3.522412157562276E-007
  1.087150328851414E-003  3.522412157562276E-007
  1.093634018881784E-003  3.522412157562276E-007
  1.111101502027451E-003  3.522412157562276E-007
  1.121977743127861E-003  3.522412157562276E-007
  1.121989988296500E-003  3.522412157562276E-007
  1.138474139783979E-003  3.522412157562276E-007
  1.151979299722644E-003  3.522412157562276E-007
  1.158203958964263E-003  3.522412157562276E-007
  1.161395765190982E-003  3.522412157562276E-007
  1.163351546872455E-003  3.522412157562276E-007
  1.165131025050106E-003  3.522412157562276E-007
  1.165149683809541E-003  3.522412157562276E-007
  1.167514326687817E-003  3.522412157562276E-007
  1.173576521513987E-003  3.522412157562276E-007
  1.174845028598860E-003  3.522412157562276E-007
  1.174998222935083E-003  3.522412157562276E-007
  1.180129290469816E-003  3.522412157562276E-007
  1.248494367602741E-003  3.522412157562276E-007
  1.499814302481470E-003  3.522412157562276E-007
  1.687805233512495E-003  3.522412157562276E-007
  1.699015950585718E-003  3.522412157562276E-007
  1.748349150580350E-003  3.522412157562276E-007
  1.797329752240479E-003  3.522412157562276E-007
  1.815549834055729E-003  3.522412157562276E-007
  1.925709976603150E-003  3.522412157562276E-007
  2.189866957610524E-003  3.522412157562276E-007
  2.215842997601677E-003  3.522412157562276E-007
  2.370646345385881E-003  3.522412157562276E-007
  2.403950063716527E-003  3.522412157562276E-007
  2.499487879393080E-003  3.522412157562276E-007
  2.509831883819777E-003  3.522412157562276E-007
  2.608374947506230E-003  3.522412157562276E-007
  2.640324951855271E-003  3.522412157562276E-007
  2.707975426668965E-003  3.522412157562276E-007
  3.106634563779214E-003  3.522412157562276E-007
  3.507328808253423E-003  3.522412157562276E-007
  3.520779387647101E-003  3.522412157562276E-007
  3.603180739956459E-003  3.522412157562276E-007
  3.670164894074241E-003  3.522412157562276E-007
  3.690834237488871E-003  3.522412157562276E-007
  3.750998949600528E-003  3.522412157562276E-007
  3.802309144306393E-003  3.522412157562276E-007
  3.924915017631370E-003  3.522412157562276E-007
  4.027963568394259E-003  3.522412157562276E-007
  4.029289803838975E-003  3.522412157562276E-007
 cut=1d-8, nber non-redundant internal coords=         165
 Check on Eigenvals of non-red overlap matrix:
  0.00000035  0.00000074  0.00000121  0.00000185  0.00000211  0.00000643  0.00000683  0.00000998
  0.00001059  0.00001198  0.00001618  0.00002074  0.00002145  0.00002305  0.00002387  0.00002482
  0.00002820  0.00002903  0.00003076  0.00003360  0.00003807  0.00004192  0.00004698  0.00004830
  0.00005140  0.00005165  0.00005509  0.00005874  0.00006065  0.00006600  0.00006876  0.00006938
  0.00007055  0.00007280  0.00007502  0.00007578  0.00007840  0.00008006  0.00008555  0.00009005
  0.00009975  0.00010139  0.00010488  0.00011232  0.00011726  0.00012194  0.00012366  0.00012575
  0.00013217  0.00013929  0.00014264  0.00014772  0.00015291  0.00016544  0.00017311  0.00017888
  0.00018974  0.00019464  0.00020366  0.00021116  0.00022746  0.00024361  0.00024921  0.00025905
  0.00027129  0.00029482  0.00030141  0.00031515  0.00031842  0.00032510  0.00033464  0.00034663
  0.00036987  0.00037590  0.00038118  0.00038872  0.00039942  0.00041102  0.00041934  0.00043664
  0.00044688  0.00045138  0.00046208  0.00051827  0.00052054  0.00052816  0.00059321  0.00059322
  0.00059388  0.00059661  0.00059718  0.00059724  0.00059737  0.00059869  0.00059994  0.00060048
  0.00060834  0.00061784  0.00062007  0.00062661  0.00063331  0.00064130  0.00064710  0.00064864
  0.00065456  0.00065528  0.00065782  0.00065916  0.00068519  0.00076761  0.00079327  0.00082263
  0.00082742  0.00098186  0.00100065  0.00105559  0.00105595  0.00106437  0.00107442  0.00108191
  0.00108715  0.00109363  0.00111110  0.00112198  0.00112199  0.00113847  0.00115198  0.00115820
  0.00116140  0.00116335  0.00116513  0.00116515  0.00116751  0.00117358  0.00117485  0.00117500
  0.00118013  0.00124849  0.00149981  0.00168781  0.00169902  0.00174835  0.00179733  0.00181555
  0.00192571  0.00218987  0.00221584  0.00237065  0.00240395  0.00249949  0.00250983  0.00260837
  0.00264032  0.00270798  0.00310663  0.00350733  0.00352078  0.00360318  0.00367016  0.00369083
  0.00375100  0.00380231  0.00392492  0.00402796  0.00402929
 Checking for correct frequencies
 recalc frequencies=
    -0.0   -0.0   -0.0   -0.0   -0.0    0.0   14.7   18.9   25.9   38.3
    57.2   69.1   80.8  102.3  117.6  124.5  142.1  158.8  197.9  213.4
   222.2  233.8  241.2  252.4  265.2  314.8  332.5  358.1  369.6  378.7
   401.9  415.2  423.6  430.4  432.4  440.2  457.4  458.6  480.0  499.0
   507.1  514.4  516.9  521.7  530.4  546.0  553.2  566.7  577.4  586.1
   606.5  618.0  624.1  645.8  652.5  669.5  689.1  690.8  691.9  700.9
   703.0  704.5  735.1  746.6  747.6  758.4  759.6  764.5  770.2  804.3
   828.1  831.8  839.2  844.4  848.6  850.3  856.2  860.7  870.3  877.9
   901.8  930.0  947.1  959.7  959.9  964.8  970.1  975.4  980.8  984.1
   986.8  988.3 1006.4 1023.5 1044.4 1047.2 1071.6 1078.6 1082.9 1094.7
  1123.6 1131.5 1142.2 1150.1 1165.0 1174.4 1186.4 1191.5 1195.3 1198.6
  1207.7 1240.0 1252.8 1262.5 1265.8 1269.1 1281.5 1286.0 1310.4 1317.6
  1327.1 1336.4 1343.2 1358.4 1366.1 1375.9 1378.4 1399.9 1407.7 1427.9
  1440.4 1441.8 1442.7 1459.0 1473.8 1476.3 1488.1 1505.0 1516.4 1525.9
  1550.1 1551.6 1567.8 1589.6 1614.3 1618.2 1627.5 1636.0 1643.3 1669.7
  3150.6 3153.2 3156.2 3156.3 3162.7 3164.0 3165.9 3170.7 3172.9 3173.0
  3179.4 3179.8 3188.7 3189.0 3199.1 3202.4 3202.6 3207.8 3208.9 3244.1
  3244.2
 recalc symmetries=
                                                                       
                                                                       
                                                                       
                                                                       
                                                                       
                                                                       
                                                                       
                                                                       
                                                                       
                                                                       
                                                                       
                                                                       
                                                                       
                                                                       
                                                                       
                                                                       
                                                                       
        
 recalc freqs check OK
 Zero-point lengths:
 10.0000 10.0000 10.0000 10.0000 10.0000 10.0000 64.7596 57.0442 48.7515 40.0684
 32.7674 29.8141 27.5829 24.5152 22.8628 22.2215 20.7940 19.6743 17.6225 16.9699
 16.6316 16.2125 15.9633 15.6044 15.2246 13.9723 13.5954 13.1010 12.8960 12.7402
 12.3663 12.1663 12.0454 11.9504 11.9227 11.8156 11.5923 11.5771 11.3157 11.0984
 11.0086 10.9302 10.9038 10.8534 10.7645 10.6092 10.5403 10.4145 10.3170 10.2402
 10.0669  9.9723  9.9236  9.7556  9.7050  9.5810  9.4439  9.4326  9.4248  9.3638
  9.3503  9.3399  9.1436  9.0731  9.0668  9.0021  8.9953  8.9660  8.9330  8.7414
  8.6151  8.5960  8.5578  8.5315  8.5104  8.5016  8.4723  8.4501  8.4037  8.3669
  8.2556  8.1293  8.0554  8.0026  8.0019  7.9816  7.9593  7.9381  7.9159  7.9028
  7.8918  7.8857  7.8146  7.7490  7.6714  7.6610  7.5733  7.5484  7.5336  7.4928
  7.3957  7.3700  7.3354  7.3103  7.2631  7.2342  7.1975  7.1822  7.1706  7.1608
  7.1337  7.0401  7.0042  6.9773  6.9682  6.9590  6.9254  6.9132  6.8485  6.8298
  6.8052  6.7815  6.7645  6.7264  6.7075  6.6834  6.6773  6.6258  6.6075  6.5606
  6.5320  6.5291  6.5269  6.4903  6.4577  6.4521  6.4266  6.3903  6.3663  6.3464
  6.2968  6.2937  6.2611  6.2179  6.1702  6.1628  6.1452  6.1292  6.1155  6.0670
  4.4167  4.4149  4.4128  4.4127  4.4083  4.4073  4.4060  4.4027  4.4012  4.4011
  4.3967  4.3964  4.3903  4.3900  4.3831  4.3808  4.3807  4.3772  4.3764  4.3526
  4.3526
 highest evec of mol 1
 -0.0049  0.0023  0.0022
  0.0055  0.0127  0.0341
  0.2545 -0.0540  0.0457
 -0.0033 -0.0013 -0.0054
 -0.0010  0.0002 -0.0004
 -0.0024  0.0005 -0.0006
  0.0001 -0.0001 -0.0002
 -0.0003  0.0001  0.0002
  0.0012 -0.0004  0.0000
  0.0012  0.0006  0.0017
 -0.0062  0.0083  0.0119
 -0.1076  0.0150 -0.0363
  0.0026 -0.0012 -0.0006
  0.0013 -0.0006 -0.0004
  0.0002 -0.0015 -0.0028
  0.0009  0.0005 -0.0008
 -0.0002 -0.0005 -0.0002
  0.0001  0.0005 -0.0002
  0.0001  0.0000  0.0001
  0.0002 -0.0000 -0.0002
 -0.0000  0.0000  0.0002
  0.0000  0.0000 -0.0001
  0.0000  0.0000  0.0001
  0.0001 -0.0000 -0.0000
 -0.0000  0.0000  0.0000
  0.0001 -0.0000  0.0000
  0.0000 -0.0000 -0.0000
 -0.0000 -0.0000 -0.0001
 -0.0000 -0.0000  0.0000
  0.0000 -0.0000 -0.0001
  0.0002  0.0000  0.0001
 -0.0000 -0.0000 -0.0001
 -0.0000 -0.0000  0.0001
  0.0000  0.0000 -0.0000
 -0.0010 -0.0013  0.0007
  0.0002  0.0001 -0.0008
  0.0064 -0.0052 -0.0074
 -0.0407 -0.0264 -0.0912
 -0.8396  0.1757 -0.1551
  0.0066 -0.0014  0.0014
 -0.0029  0.0005 -0.0009
 -0.0014 -0.0015 -0.0037
  0.0281 -0.0228 -0.0256
  0.3556 -0.0506  0.1170
 -0.0014 -0.0009  0.0013
 -0.0002  0.0004 -0.0003
 -0.0004  0.0000  0.0006
 -0.0001 -0.0000 -0.0005
 -0.0001 -0.0000 -0.0004
 -0.0002  0.0000 -0.0000
 -0.0003  0.0000 -0.0001
 -0.0002  0.0000  0.0002
  0.0001  0.0000  0.0003
  0.0000  0.0000  0.0002
 -0.0009 -0.0001 -0.0003
  0.0031  0.0036 -0.0014
  0.0004 -0.0012  0.0016
 generating redundant internal coords
         300        3600          57
 Adding extra bonds for z output only
           6           6           6           6           6           6
          16           6           6           6           6           6
           6           7           6           6           6           6
           6           6           6           6           6           6
           6           6           6           6           6           6
           6           6           6           6           6           6
           1           1           1           1           1           1
           1           1           1           1           1           1
           1           1           1           1           1           1
           1           1           1
 search for int coords
   1 str   2   1   1.411
   2 str   3   2   1.377
   3 str   4   3   1.416
   4 str   5   4   1.425
   5 str   6   1   1.375
   6 str   6   5   1.409
   7 str   7   5   1.738
   8 str   8   7   1.738
   9 str   9   8   1.409
  10 str  10   9   1.375
  11 str  11  10   1.411
  12 str  12  11   1.377
  13 str  13   8   1.425
  14 str  13  12   1.416
  15 str  14   4   1.386
  16 str  14  13   1.387
  17 str  15  14   1.463
  18 str  16  15   1.416
  19 str  17  16   1.423
  20 str  18  17   1.383
  21 str  19  18   1.489
  22 str  20  19   1.399
  23 str  21  20   1.392
  24 str  22  21   1.398
  25 str  23  22   1.436
  26 str  24  23   1.358
  27 str  25  24   1.437
  28 str  26  25   1.403
  29 str  27  26   1.391
  30 str  28  27   1.392
  31 str  29  28   1.402
  32 str  30  29   1.435
  33 str  31  30   1.360
  34 str  32  19   1.416
  35 str  32  31   1.438
  36 str  33  22   1.428
  37 str  33  32   1.429
  38 str  34  25   1.427
  39 str  34  29   1.426
  40 str  34  33   1.428
  41 str  35  18   1.433
  42 str  36  15   1.377
  43 str  36  35   1.411
  44 str  37   1   1.083
  45 str  38   2   1.083
  46 str  39   3   1.079
  47 str  40   6   1.084
  48 str  41   9   1.084
  49 str  42  10   1.083
  50 str  43  11   1.083
  51 str  44  12   1.079
  52 str  45  16   1.081
  53 str  46  17   1.085
  54 str  47  20   1.084
  55 str  48  21   1.085
  56 str  49  23   1.085
  57 str  50  24   1.085
  58 str  51  26   1.085
  59 str  52  27   1.085
  60 str  53  28   1.085
  61 str  54  30   1.085
  62 str  55  31   1.082
  63 str  56  35   1.081
  64 str  57  36   1.085
 nber stretches=          64
  65 ben   1   2   3
  66 prop tor   1   2   3   4
  67 prop tor   1   2   3  39
  68 ben   1   2  38
  69 ben   1   6   5
  70 ben   1   6  40
  71 ben   2   1   6
  72 prop tor   2   1   6   5
  73 prop tor   2   1   6  40
  74 ben   2   1  37
  75 ben   2   3   4
  76 prop tor   2   3   4   5
  77 prop tor   2   3   4  14
  78 ben   2   3  39
  79 ben   3   2  38
  80 ben   3   4   5
  81 prop tor   3   4   5   6
  82 prop tor   3   4   5   7
  83 ben   3   4  14
  84 prop tor   3   4  14  13
  85 prop tor   3   4  14  15
  86 ben   4   3  39
  87 ben   4   5   6
  88 prop tor   4   5   6   1
  89 prop tor   4   5   6  40
  90 ben   4   5   7
  91 prop tor   4   5   7   8
  92 ben   4  14  13
  93 ben   4  14  15
  94 prop tor   4  14  15  16
  95 prop tor   4  14  15  36
  96 ben   5   4  14
  97 prop tor   5   4  14  13
  98 prop tor   5   4  14  15
  99 ben   5   6  40
 100 ben   5   7   8
 101 prop tor   5   7   8   9
 102 prop tor   5   7   8  13
 103 prop tor   6   1   2   3
 104 prop tor   6   1   2  38
 105 ben   6   1  37
 106 ben   6   5   7
 107 prop tor   6   5   7   8
 108 prop tor   7   5   6   1
 109 prop tor   7   5   6  40
 110 ben   7   8   9
 111 prop tor   7   8   9  10
 112 prop tor   7   8   9  41
 113 ben   7   8  13
 114 prop tor   7   8  13  12
 115 prop tor   7   8  13  14
 116 ben   8   9  10
 117 prop tor   8   9  10  11
 118 prop tor   8   9  10  42
 119 ben   8   9  41
 120 ben   8  13  12
 121 ben   8  13  14
 122 prop tor   8  13  14   4
 123 prop tor   8  13  14  15
 124 ben   9   8  13
 125 prop tor   9   8  13  12
 126 prop tor   9   8  13  14
 127 ben   9  10  11
 128 prop tor   9  10  11  12
 129 prop tor   9  10  11  43
 130 ben   9  10  42
 131 ben  10   9  41
 132 ben  10  11  12
 133 prop tor  10  11  12  13
 134 prop tor  10  11  12  44
 135 ben  10  11  43
 136 ben  11  10  42
 137 ben  11  12  13
 138 prop tor  11  12  13   8
 139 prop tor  11  12  13  14
 140 ben  11  12  44
 141 ben  12  11  43
 142 ben  12  13  14
 143 prop tor  12  13  14   4
 144 prop tor  12  13  14  15
 145 prop tor  13   8   9  10
 146 prop tor  13   8   9  41
 147 ben  13  12  44
 148 ben  13  14  15
 149 prop tor  13  14  15  16
 150 prop tor  13  14  15  36
 151 prop tor  14   4   5   6
 152 prop tor  14   4   5   7
 153 ben  14  15  16
 154 prop tor  14  15  16  17
 155 prop tor  14  15  16  45
 156 ben  14  15  36
 157 prop tor  14  15  36  35
 158 prop tor  14  15  36  57
 159 ben  15  16  17
 160 prop tor  15  16  17  18
 161 prop tor  15  16  17  46
 162 ben  15  16  45
 163 ben  15  36  35
 164 ben  15  36  57
 165 ben  16  15  36
 166 prop tor  16  15  36  35
 167 prop tor  16  15  36  57
 168 ben  16  17  18
 169 prop tor  16  17  18  19
 170 prop tor  16  17  18  35
 171 ben  16  17  46
 172 ben  17  16  45
 173 ben  17  18  19
 174 prop tor  17  18  19  20
 175 prop tor  17  18  19  32
 176 ben  17  18  35
 177 prop tor  17  18  35  36
 178 prop tor  17  18  35  56
 179 ben  18  17  46
 180 ben  18  19  20
 181 prop tor  18  19  20  21
 182 prop tor  18  19  20  47
 183 ben  18  19  32
 184 prop tor  18  19  32  31
 185 prop tor  18  19  32  33
 186 ben  18  35  36
 187 prop tor  18  35  36  15
 188 prop tor  18  35  36  57
 189 ben  18  35  56
 190 ben  19  18  35
 191 prop tor  19  18  35  36
 192 prop tor  19  18  35  56
 193 ben  19  20  21
 194 prop tor  19  20  21  22
 195 prop tor  19  20  21  48
 196 ben  19  20  47
 197 ben  19  32  31
 198 ben  19  32  33
 199 prop tor  19  32  33  22
 200 prop tor  19  32  33  34
 201 ben  20  19  32
 202 prop tor  20  19  32  31
 203 prop tor  20  19  32  33
 204 ben  20  21  22
 205 prop tor  20  21  22  23
 206 prop tor  20  21  22  33
 207 ben  20  21  48
 208 ben  21  20  47
 209 ben  21  22  23
 210 prop tor  21  22  23  24
 211 prop tor  21  22  23  49
 212 ben  21  22  33
 213 prop tor  21  22  33  32
 214 prop tor  21  22  33  34
 215 ben  22  21  48
 216 ben  22  23  24
 217 prop tor  22  23  24  25
 218 prop tor  22  23  24  50
 219 ben  22  23  49
 220 ben  22  33  32
 221 ben  22  33  34
 222 prop tor  22  33  34  25
 223 prop tor  22  33  34  29
 224 ben  23  22  33
 225 prop tor  23  22  33  32
 226 prop tor  23  22  33  34
 227 ben  23  24  25
 228 prop tor  23  24  25  26
 229 prop tor  23  24  25  34
 230 ben  23  24  50
 231 ben  24  23  49
 232 ben  24  25  26
 233 prop tor  24  25  26  27
 234 prop tor  24  25  26  51
 235 ben  24  25  34
 236 prop tor  24  25  34  29
 237 prop tor  24  25  34  33
 238 ben  25  24  50
 239 ben  25  26  27
 240 prop tor  25  26  27  28
 241 prop tor  25  26  27  52
 242 ben  25  26  51
 243 ben  25  34  29
 244 ben  25  34  33
 245 ben  26  25  34
 246 prop tor  26  25  34  29
 247 prop tor  26  25  34  33
 248 ben  26  27  28
 249 prop tor  26  27  28  29
 250 prop tor  26  27  28  53
 251 ben  26  27  52
 252 ben  27  26  51
 253 ben  27  28  29
 254 prop tor  27  28  29  30
 255 prop tor  27  28  29  34
 256 ben  27  28  53
 257 ben  28  27  52
 258 ben  28  29  30
 259 prop tor  28  29  30  31
 260 prop tor  28  29  30  54
 261 ben  28  29  34
 262 prop tor  28  29  34  25
 263 prop tor  28  29  34  33
 264 ben  29  28  53
 265 ben  29  30  31
 266 prop tor  29  30  31  32
 267 prop tor  29  30  31  55
 268 ben  29  30  54
 269 ben  29  34  33
 270 ben  30  29  34
 271 prop tor  30  29  34  25
 272 prop tor  30  29  34  33
 273 ben  30  31  32
 274 prop tor  30  31  32  19
 275 prop tor  30  31  32  33
 276 ben  30  31  55
 277 ben  31  30  54
 278 ben  31  32  33
 279 prop tor  31  32  33  22
 280 prop tor  31  32  33  34
 281 prop tor  32  19  20  21
 282 prop tor  32  19  20  47
 283 ben  32  31  55
 284 ben  32  33  34
 285 prop tor  32  33  34  25
 286 prop tor  32  33  34  29
 287 prop tor  33  22  23  24
 288 prop tor  33  22  23  49
 289 prop tor  34  25  26  27
 290 prop tor  34  25  26  51
 291 prop tor  34  29  30  31
 292 prop tor  34  29  30  54
 293 prop tor  35  18  19  20
 294 prop tor  35  18  19  32
 295 ben  35  36  57
 296 prop tor  36  15  16  17
 297 prop tor  36  15  16  45
 298 ben  36  35  56
 299 prop tor  37   1   2   3
 300 prop tor  37   1   2  38
 301 prop tor  37   1   6   5
 302 prop tor  37   1   6  40
 303 prop tor  38   2   3   4
 304 prop tor  38   2   3  39
 305 prop tor  39   3   4   5
 306 prop tor  39   3   4  14
 307 prop tor  41   9  10  11
 308 prop tor  41   9  10  42
 309 prop tor  42  10  11  12
 310 prop tor  42  10  11  43
 311 prop tor  43  11  12  13
 312 prop tor  43  11  12  44
 313 prop tor  44  12  13   8
 314 prop tor  44  12  13  14
 315 prop tor  45  16  17  18
 316 prop tor  45  16  17  46
 317 prop tor  46  17  18  19
 318 prop tor  46  17  18  35
 319 prop tor  47  20  21  22
 320 prop tor  47  20  21  48
 321 prop tor  48  21  22  23
 322 prop tor  48  21  22  33
 323 prop tor  49  23  24  25
 324 prop tor  49  23  24  50
 325 prop tor  50  24  25  26
 326 prop tor  50  24  25  34
 327 prop tor  51  26  27  28
 328 prop tor  51  26  27  52
 329 prop tor  52  27  28  29
 330 prop tor  52  27  28  53
 331 prop tor  53  28  29  30
 332 prop tor  53  28  29  34
 333 prop tor  54  30  31  32
 334 prop tor  54  30  31  55
 335 prop tor  55  31  32  19
 336 prop tor  55  31  32  33
 337 prop tor  56  35  36  15
 338 prop tor  56  35  36  57
 nber bend=             106
 nber lin bend=           0
 nber prop tor=         168
 nber impr tor=           0
 nber tot redund int=         338
 Reading file: 
 ./phenothiazine-pyrene_2_C0S2.log                                              
                                          
  Entering Gaussian System, Link 0=g16                                          
  
 Gaussian format, type: g94, g98, g03= F F F
  #P Geom=AllCheck Guess=TCheck SCRF=Check GenChk RB3LYP TD(FC,Read)/6-3    
 energy type= TD      
 Original G94 input coords:
  6 -4.859891  4.120505 -0.888645
  6 -3.539551  3.655347 -1.066689
  6 -3.205254  2.348925 -0.788573
  6 -4.177110  1.429363 -0.324654
  6 -5.509228  1.908814 -0.163205
  6 -5.828262  3.253058 -0.440473
 16 -6.805084  0.909622  0.422488
  6 -6.075154 -0.663171  0.540417
  6 -6.923017 -1.722434  0.920952
  6 -6.425951 -2.997161  1.058843
  6 -5.056281 -3.238101  0.819422
  6 -4.209062 -2.214117  0.459602
  6 -4.687304 -0.889608  0.309247
  7 -3.806495  0.127034 -0.026505
  6 -2.381229 -0.200285 -0.073469
  6 -1.838866 -0.651904 -1.300547
  6 -0.451747 -0.967916 -1.310482
  6  0.332165 -0.836414 -0.178681
  6  1.773527 -1.209040 -0.217908
  6  2.128218 -2.541620 -0.456274
  6  3.457861 -2.948073 -0.516293
  6  4.495676 -2.031425 -0.323072
  6  5.879040 -2.415681 -0.364355
  6  6.871945 -1.509731 -0.174036
  6  6.578802 -0.124846  0.071322
  6  7.588451  0.829383  0.266842
  6  7.272004  2.163790  0.496869
  6  5.943446  2.577301  0.535643
  6  4.899876  1.660039  0.346840
  6  3.518574  2.048428  0.366981
  6  2.520820  1.142832  0.186251
  6  2.799093 -0.252336 -0.023470
  6  4.166694 -0.664397 -0.074068
  6  5.213425  0.288130  0.114626
  6 -0.252593 -0.378210  1.046470
  6 -1.628660 -0.064532  1.071279
  1 -5.111905  5.151286 -1.103876
  1 -2.773285  4.330644 -1.426299
  1 -2.194922  1.997356 -0.926610
  1 -6.848337  3.591313 -0.297971
  1 -7.972295 -1.517303  1.100408
  1 -7.083050 -3.807744  1.347875
  1 -4.659084 -4.240441  0.919782
  1 -3.162537 -2.402541  0.278805
  1 -2.449626 -0.736395 -2.187995
  1  0.006728 -1.305226 -2.233695
  1  1.336713 -3.270317 -0.588673
  1  3.698045 -3.989588 -0.704611
  1  6.115959 -3.458131 -0.552246
  1  7.911914 -1.818215 -0.206748
  1  8.626009  0.513247  0.235456
  1  8.065825  2.887652  0.645340
  1  5.702976  3.620604  0.712208
  1  3.282038  3.095886  0.525428
  1  1.486111  1.459014  0.204909
  1  0.341688 -0.316565  1.946934
  1 -2.097843  0.273898  1.988881
 nber atoms=          57
  Total Energy, E(TD-HF/TD-DFT) =  -1761.48018873                               
  
          32          49 "  -1761.48018873"
After scan for Atom:   Atom  AN      X      Y      Z        X      Y      Z        X      Y      Z   
After scan for Atom:   Atom  AN      X      Y      Z        X      Y      Z        X      Y      Z   
After scan for Atom:   Atom  AN      X      Y      Z        X      Y      Z        X      Y      Z   
After scan for Atom:   Atom  AN      X      Y      Z        X      Y      Z        X      Y      Z   
After scan for Atom:   Atom  AN      X      Y      Z        X      Y      Z        X      Y      Z   
After scan for Atom:   Atom  AN      X      Y      Z        X      Y      Z        X      Y      Z   
After scan for Atom:   Atom  AN      X      Y      Z        X      Y      Z        X      Y      Z   
After scan for Atom:   Atom  AN      X      Y      Z        X      Y      Z        X      Y      Z   
After scan for Atom:   Atom  AN      X      Y      Z        X      Y      Z        X      Y      Z   
After scan for Atom:   Atom  AN      X      Y      Z        X      Y      Z        X      Y      Z   
After scan for Atom:   Atom  AN      X      Y      Z        X      Y      Z        X      Y      Z   
After scan for Atom:   Atom  AN      X      Y      Z        X      Y      Z        X      Y      Z   
After scan for Atom:   Atom  AN      X      Y      Z        X      Y      Z        X      Y      Z   
After scan for Atom:   Atom  AN      X      Y      Z        X      Y      Z        X      Y      Z   
After scan for Atom:   Atom  AN      X      Y      Z        X      Y      Z        X      Y      Z   
After scan for Atom:   Atom  AN      X      Y      Z        X      Y      Z        X      Y      Z   
After scan for Atom:   Atom  AN      X      Y      Z        X      Y      Z        X      Y      Z   
After scan for Atom:   Atom  AN      X      Y      Z        X      Y      Z        X      Y      Z   
After scan for Atom:   Atom  AN      X      Y      Z        X      Y      Z        X      Y      Z   
After scan for Atom:   Atom  AN      X      Y      Z        X      Y      Z        X      Y      Z   
After scan for Atom:   Atom  AN      X      Y      Z        X      Y      Z        X      Y      Z   
After scan for Atom:   Atom  AN      X      Y      Z        X      Y      Z        X      Y      Z   
After scan for Atom:   Atom  AN      X      Y      Z        X      Y      Z        X      Y      Z   
After scan for Atom:   Atom  AN      X      Y      Z        X      Y      Z        X      Y      Z   
After scan for Atom:   Atom  AN      X      Y      Z        X      Y      Z        X      Y      Z   
After scan for Atom:   Atom  AN      X      Y      Z        X      Y      Z        X      Y      Z   
After scan for Atom:   Atom  AN      X      Y      Z        X      Y      Z        X      Y      Z   
After scan for Atom:   Atom  AN      X      Y      Z        X      Y      Z        X      Y      Z   
After scan for Atom:   Atom  AN      X      Y      Z        X      Y      Z        X      Y      Z   
After scan for Atom:   Atom  AN      X      Y      Z        X      Y      Z        X      Y      Z   
After scan for Atom:   Atom  AN      X      Y      Z        X      Y      Z        X      Y      Z   
After scan for Atom:   Atom  AN      X      Y      Z        X      Y      Z        X      Y      Z   
After scan for Atom:   Atom  AN      X      Y      Z        X      Y      Z        X      Y      Z   
After scan for Atom:   Atom  AN      X      Y      Z        X      Y      Z        X      Y      Z   
After scan for Atom:   Atom  AN      X      Y      Z        X      Y      Z        X      Y      Z   
After scan for Atom:   Atom  AN      X      Y      Z        X      Y      Z        X      Y      Z   
After scan for Atom:   Atom  AN      X      Y      Z        X      Y      Z        X      Y      Z   
After scan for Atom:   Atom  AN      X      Y      Z        X      Y      Z        X      Y      Z   
After scan for Atom:   Atom  AN      X      Y      Z        X      Y      Z        X      Y      Z   
After scan for Atom:   Atom  AN      X      Y      Z        X      Y      Z        X      Y      Z   
After scan for Atom:   Atom  AN      X      Y      Z        X      Y      Z        X      Y      Z   
After scan for Atom:   Atom  AN      X      Y      Z        X      Y      Z        X      Y      Z   
After scan for Atom:   Atom  AN      X      Y      Z        X      Y      Z        X      Y      Z   
After scan for Atom:   Atom  AN      X      Y      Z        X      Y      Z        X      Y      Z   
After scan for Atom:   Atom  AN      X      Y      Z        X      Y      Z        X      Y      Z   
After scan for Atom:   Atom  AN      X      Y      Z        X      Y      Z        X      Y      Z   
After scan for Atom:   Atom  AN      X      Y      Z        X      Y      Z        X      Y      Z   
After scan for Atom:   Atom  AN      X      Y      Z        X      Y      Z        X      Y      Z   
After scan for Atom:   Atom  AN      X      Y      Z        X      Y      Z        X      Y      Z   
After scan for Atom:   Atom  AN      X      Y      Z        X      Y      Z        X      Y      Z   
After scan for Atom:   Atom  AN      X      Y      Z        X      Y      Z        X      Y      Z   
After scan for Atom:   Atom  AN      X      Y      Z        X      Y      Z        X      Y      Z   
After scan for Atom:   Atom  AN      X      Y      Z        X      Y      Z        X      Y      Z   
After scan for Atom:   Atom  AN      X      Y      Z        X      Y      Z        X      Y      Z   
After scan for Atom:   Atom  AN      X      Y      Z        X      Y      Z        X      Y      Z   
 g94    frequencies=
     0.0    0.0    0.0    0.0    0.0    0.0   14.7   18.6   24.8   37.7
    57.1   69.0   80.8  102.3  117.7  124.4  141.9  158.6  197.8  213.3
   222.1  233.8  241.2  252.3  265.2  314.8  332.5  358.1  369.6  378.7
   401.9  415.2  423.6  430.4  432.4  440.2  457.3  458.6  480.0  499.0
   507.1  514.4  516.9  521.7  530.5  546.6  553.2  566.7  577.4  586.2
   606.4  618.0  624.1  645.7  652.4  669.5  689.1  690.7  692.0  701.0
   703.0  704.6  735.2  746.7  747.7  758.3  759.5  764.5  770.2  804.3
   828.1  831.7  839.2  844.3  848.6  850.4  856.1  860.8  870.2  877.8
   901.7  930.0  947.0  959.6  959.8  965.0  970.2  975.5  980.9  984.0
   986.8  988.3 1006.4 1023.7 1044.3 1047.2 1071.6 1078.6 1082.9 1094.7
  1123.6 1131.5 1142.2 1150.2 1165.1 1174.4 1186.3 1191.4 1195.3 1198.6
  1207.7 1239.9 1252.8 1262.4 1265.8 1269.1 1281.5 1285.8 1310.5 1317.7
  1327.1 1336.3 1343.2 1358.3 1366.1 1375.9 1378.4 1399.9 1407.6 1428.0
  1440.4 1441.8 1442.6 1459.0 1473.8 1476.3 1488.0 1505.1 1516.4 1525.9
  1549.9 1551.5 1567.7 1589.6 1614.2 1618.0 1627.5 1635.7 1643.2 1670.0
  3150.4 3153.1 3156.2 3156.5 3162.5 3163.8 3165.8 3170.5 3173.1 3173.2
  3179.3 3179.8 3188.8 3189.0 3199.5 3202.6 3202.7 3207.7 3208.6 3243.8
  3244.2
 g94    symmetries=
                                                 A      A      A      A
       A      A      A      A      A      A      A      A      A      A
       A      A      A      A      A      A      A      A      A      A
       A      A      A      A      A      A      A      A      A      A
       A      A      A      A      A      A      A      A      A      A
       A      A      A      A      A      A      A      A      A      A
       A      A      A      A      A      A      A      A      A      A
       A      A      A      A      A      A      A      A      A      A
       A      A      A      A      A      A      A      A      A      A
       A      A      A      A      A      A      A      A      A      A
       A      A      A      A      A      A      A      A      A      A
       A      A      A      A      A      A      A      A      A      A
       A      A      A      A      A      A      A      A      A      A
       A      A      A      A      A      A      A      A      A      A
       A      A      A      A      A      A      A      A      A      A
       A      A      A      A      A      A      A      A      A      A
       A      A      A      A      A      A      A      A      A      A
       A
 atomic masses:
 12.0000 12.0000 12.0000 12.0000 12.0000 12.0000 31.9721 12.0000 12.0000 12.0000
 12.0000 12.0000 12.0000 14.0031 12.0000 12.0000 12.0000 12.0000 12.0000 12.0000
 12.0000 12.0000 12.0000 12.0000 12.0000 12.0000 12.0000 12.0000 12.0000 12.0000
 12.0000 12.0000 12.0000 12.0000 12.0000 12.0000  1.0078  1.0078  1.0078  1.0078
  1.0078  1.0078  1.0078  1.0078  1.0078  1.0078  1.0078  1.0078  1.0078  1.0078
  1.0078  1.0078  1.0078  1.0078  1.0078  1.0078  1.0078
 looking for force constants in 
 ./phenothiazine-pyrene_2_C0S2.fchk                                             
  
 Cartesian Force Constants                  R   N=       14706                  
  
 n3=         171       14706
 g94-fc frequencies=
    -3.4   -1.2   -0.0   -0.0    0.0    1.8   14.7   18.6   24.8   37.7
    57.1   69.1   80.8  102.3  117.7  124.4  141.9  158.6  197.8  213.3
   222.1  233.8  241.2  252.3  265.2  314.8  332.6  358.2  369.6  378.7
   401.9  415.3  423.6  430.4  432.4  440.2  457.3  458.6  480.0  499.0
   507.1  514.5  516.9  521.8  530.5  546.6  553.2  566.7  577.5  586.3
   606.4  618.0  624.1  645.7  652.4  669.5  689.1  690.7  692.0  701.0
   703.0  704.6  735.2  746.7  747.7  758.3  759.5  764.5  770.2  804.3
   828.1  831.7  839.2  844.3  848.6  850.4  856.2  860.9  870.2  877.9
   901.7  930.0  947.0  959.7  959.9  965.0  970.3  975.5  980.9  984.1
   986.8  988.3 1006.4 1023.7 1044.4 1047.2 1071.6 1078.7 1082.9 1094.7
  1123.7 1131.5 1142.3 1150.3 1165.1 1174.5 1186.4 1191.5 1195.4 1198.6
  1207.8 1240.0 1252.9 1262.4 1265.8 1269.2 1281.5 1285.8 1310.5 1317.7
  1327.2 1336.4 1343.2 1358.4 1366.1 1375.9 1378.5 1400.0 1407.6 1428.0
  1440.4 1441.8 1442.7 1459.0 1473.8 1476.3 1488.1 1505.1 1516.4 1525.9
  1550.0 1551.6 1567.7 1589.7 1614.2 1618.1 1627.5 1635.8 1643.3 1670.0
  3150.5 3153.2 3156.3 3156.6 3162.6 3163.9 3165.8 3170.6 3173.1 3173.2
  3179.4 3179.8 3188.9 3189.1 3199.6 3202.7 3202.8 3207.8 3208.7 3243.9
  3244.2
 at 99999: n3=         171
 symm operator            1 :  F  nop=           0
 symm operator            2 :  F  nop=           0
 symm operator            3 :  F  nop=           0
 symm operator            4 :  F  nop=           0
 symm operator            5 :  F  nop=           0
 symm operator            6 :  F  nop=           0
 symm operator            7 :  F  nop=           0
 The point group of the molecule is  C1
 Symmetry rotation matrix:
   1.00000   0.00000   0.00000
   0.00000   1.00000   0.00000
   0.00000   0.00000   1.00000

 Projecting out zero-frequency components
 generating redundant internal coords
         300        3600          57
 search for int coords
   1 str   2   1   1.411
   2 str   3   2   1.377
   3 str   4   3   1.416
   4 str   5   4   1.425
   5 str   6   1   1.375
   6 str   6   5   1.409
   7 str   7   5   1.738
   8 str   8   7   1.738
   9 str   9   8   1.409
  10 str  10   9   1.375
  11 str  11  10   1.411
  12 str  12  11   1.377
  13 str  13   8   1.425
  14 str  13  12   1.416
  15 str  14   4   1.386
  16 str  14  13   1.386
  17 str  15  14   1.463
  18 str  16  15   1.416
  19 str  17  16   1.423
  20 str  18  17   1.383
  21 str  19  18   1.489
  22 str  20  19   1.399
  23 str  21  20   1.392
  24 str  22  21   1.398
  25 str  23  22   1.436
  26 str  24  23   1.358
  27 str  25  24   1.437
  28 str  26  25   1.403
  29 str  27  26   1.391
  30 str  28  27   1.392
  31 str  29  28   1.402
  32 str  30  29   1.435
  33 str  31  30   1.360
  34 str  32  19   1.416
  35 str  32  31   1.438
  36 str  33  22   1.428
  37 str  33  32   1.429
  38 str  34  25   1.427
  39 str  34  29   1.426
  40 str  34  33   1.428
  41 str  35  18   1.433
  42 str  36  15   1.377
  43 str  36  35   1.412
  44 str  37   1   1.083
  45 str  38   2   1.083
  46 str  39   3   1.079
  47 str  40   6   1.084
  48 str  41   9   1.084
  49 str  42  10   1.083
  50 str  43  11   1.083
  51 str  44  12   1.079
  52 str  45  16   1.081
  53 str  46  17   1.085
  54 str  47  20   1.084
  55 str  48  21   1.085
  56 str  49  23   1.085
  57 str  50  24   1.085
  58 str  51  26   1.085
  59 str  52  27   1.085
  60 str  53  28   1.085
  61 str  54  30   1.085
  62 str  55  31   1.082
  63 str  56  35   1.081
  64 str  57  36   1.085
 nber stretches=          64
  65 ben   1   2   3
  66 prop tor   1   2   3   4
  67 prop tor   1   2   3  39
  68 ben   1   2  38
  69 ben   1   6   5
  70 ben   1   6  40
  71 ben   2   1   6
  72 prop tor   2   1   6   5
  73 prop tor   2   1   6  40
  74 ben   2   1  37
  75 ben   2   3   4
  76 prop tor   2   3   4   5
  77 prop tor   2   3   4  14
  78 ben   2   3  39
  79 ben   3   2  38
  80 ben   3   4   5
  81 prop tor   3   4   5   6
  82 prop tor   3   4   5   7
  83 ben   3   4  14
  84 prop tor   3   4  14  13
  85 prop tor   3   4  14  15
  86 ben   4   3  39
  87 ben   4   5   6
  88 prop tor   4   5   6   1
  89 prop tor   4   5   6  40
  90 ben   4   5   7
  91 prop tor   4   5   7   8
  92 ben   4  14  13
  93 ben   4  14  15
  94 prop tor   4  14  15  16
  95 prop tor   4  14  15  36
  96 ben   5   4  14
  97 prop tor   5   4  14  13
  98 prop tor   5   4  14  15
  99 ben   5   6  40
 100 ben   5   7   8
 101 prop tor   5   7   8   9
 102 prop tor   5   7   8  13
 103 prop tor   6   1   2   3
 104 prop tor   6   1   2  38
 105 ben   6   1  37
 106 ben   6   5   7
 107 prop tor   6   5   7   8
 108 prop tor   7   5   6   1
 109 prop tor   7   5   6  40
 110 ben   7   8   9
 111 prop tor   7   8   9  10
 112 prop tor   7   8   9  41
 113 ben   7   8  13
 114 prop tor   7   8  13  12
 115 prop tor   7   8  13  14
 116 ben   8   9  10
 117 prop tor   8   9  10  11
 118 prop tor   8   9  10  42
 119 ben   8   9  41
 120 ben   8  13  12
 121 ben   8  13  14
 122 prop tor   8  13  14   4
 123 prop tor   8  13  14  15
 124 ben   9   8  13
 125 prop tor   9   8  13  12
 126 prop tor   9   8  13  14
 127 ben   9  10  11
 128 prop tor   9  10  11  12
 129 prop tor   9  10  11  43
 130 ben   9  10  42
 131 ben  10   9  41
 132 ben  10  11  12
 133 prop tor  10  11  12  13
 134 prop tor  10  11  12  44
 135 ben  10  11  43
 136 ben  11  10  42
 137 ben  11  12  13
 138 prop tor  11  12  13   8
 139 prop tor  11  12  13  14
 140 ben  11  12  44
 141 ben  12  11  43
 142 ben  12  13  14
 143 prop tor  12  13  14   4
 144 prop tor  12  13  14  15
 145 prop tor  13   8   9  10
 146 prop tor  13   8   9  41
 147 ben  13  12  44
 148 ben  13  14  15
 149 prop tor  13  14  15  16
 150 prop tor  13  14  15  36
 151 prop tor  14   4   5   6
 152 prop tor  14   4   5   7
 153 ben  14  15  16
 154 prop tor  14  15  16  17
 155 prop tor  14  15  16  45
 156 ben  14  15  36
 157 prop tor  14  15  36  35
 158 prop tor  14  15  36  57
 159 ben  15  16  17
 160 prop tor  15  16  17  18
 161 prop tor  15  16  17  46
 162 ben  15  16  45
 163 ben  15  36  35
 164 ben  15  36  57
 165 ben  16  15  36
 166 prop tor  16  15  36  35
 167 prop tor  16  15  36  57
 168 ben  16  17  18
 169 prop tor  16  17  18  19
 170 prop tor  16  17  18  35
 171 ben  16  17  46
 172 ben  17  16  45
 173 ben  17  18  19
 174 prop tor  17  18  19  20
 175 prop tor  17  18  19  32
 176 ben  17  18  35
 177 prop tor  17  18  35  36
 178 prop tor  17  18  35  56
 179 ben  18  17  46
 180 ben  18  19  20
 181 prop tor  18  19  20  21
 182 prop tor  18  19  20  47
 183 ben  18  19  32
 184 prop tor  18  19  32  31
 185 prop tor  18  19  32  33
 186 ben  18  35  36
 187 prop tor  18  35  36  15
 188 prop tor  18  35  36  57
 189 ben  18  35  56
 190 ben  19  18  35
 191 prop tor  19  18  35  36
 192 prop tor  19  18  35  56
 193 ben  19  20  21
 194 prop tor  19  20  21  22
 195 prop tor  19  20  21  48
 196 ben  19  20  47
 197 ben  19  32  31
 198 ben  19  32  33
 199 prop tor  19  32  33  22
 200 prop tor  19  32  33  34
 201 ben  20  19  32
 202 prop tor  20  19  32  31
 203 prop tor  20  19  32  33
 204 ben  20  21  22
 205 prop tor  20  21  22  23
 206 prop tor  20  21  22  33
 207 ben  20  21  48
 208 ben  21  20  47
 209 ben  21  22  23
 210 prop tor  21  22  23  24
 211 prop tor  21  22  23  49
 212 ben  21  22  33
 213 prop tor  21  22  33  32
 214 prop tor  21  22  33  34
 215 ben  22  21  48
 216 ben  22  23  24
 217 prop tor  22  23  24  25
 218 prop tor  22  23  24  50
 219 ben  22  23  49
 220 ben  22  33  32
 221 ben  22  33  34
 222 prop tor  22  33  34  25
 223 prop tor  22  33  34  29
 224 ben  23  22  33
 225 prop tor  23  22  33  32
 226 prop tor  23  22  33  34
 227 ben  23  24  25
 228 prop tor  23  24  25  26
 229 prop tor  23  24  25  34
 230 ben  23  24  50
 231 ben  24  23  49
 232 ben  24  25  26
 233 prop tor  24  25  26  27
 234 prop tor  24  25  26  51
 235 ben  24  25  34
 236 prop tor  24  25  34  29
 237 prop tor  24  25  34  33
 238 ben  25  24  50
 239 ben  25  26  27
 240 prop tor  25  26  27  28
 241 prop tor  25  26  27  52
 242 ben  25  26  51
 243 ben  25  34  29
 244 ben  25  34  33
 245 ben  26  25  34
 246 prop tor  26  25  34  29
 247 prop tor  26  25  34  33
 248 ben  26  27  28
 249 prop tor  26  27  28  29
 250 prop tor  26  27  28  53
 251 ben  26  27  52
 252 ben  27  26  51
 253 ben  27  28  29
 254 prop tor  27  28  29  30
 255 prop tor  27  28  29  34
 256 ben  27  28  53
 257 ben  28  27  52
 258 ben  28  29  30
 259 prop tor  28  29  30  31
 260 prop tor  28  29  30  54
 261 ben  28  29  34
 262 prop tor  28  29  34  25
 263 prop tor  28  29  34  33
 264 ben  29  28  53
 265 ben  29  30  31
 266 prop tor  29  30  31  32
 267 prop tor  29  30  31  55
 268 ben  29  30  54
 269 ben  29  34  33
 270 ben  30  29  34
 271 prop tor  30  29  34  25
 272 prop tor  30  29  34  33
 273 ben  30  31  32
 274 prop tor  30  31  32  19
 275 prop tor  30  31  32  33
 276 ben  30  31  55
 277 ben  31  30  54
 278 ben  31  32  33
 279 prop tor  31  32  33  22
 280 prop tor  31  32  33  34
 281 prop tor  32  19  20  21
 282 prop tor  32  19  20  47
 283 ben  32  31  55
 284 ben  32  33  34
 285 prop tor  32  33  34  25
 286 prop tor  32  33  34  29
 287 prop tor  33  22  23  24
 288 prop tor  33  22  23  49
 289 prop tor  34  25  26  27
 290 prop tor  34  25  26  51
 291 prop tor  34  29  30  31
 292 prop tor  34  29  30  54
 293 prop tor  35  18  19  20
 294 prop tor  35  18  19  32
 295 ben  35  36  57
 296 prop tor  36  15  16  17
 297 prop tor  36  15  16  45
 298 ben  36  35  56
 299 prop tor  37   1   2   3
 300 prop tor  37   1   2  38
 301 prop tor  37   1   6   5
 302 prop tor  37   1   6  40
 303 prop tor  38   2   3   4
 304 prop tor  38   2   3  39
 305 prop tor  39   3   4   5
 306 prop tor  39   3   4  14
 307 prop tor  41   9  10  11
 308 prop tor  41   9  10  42
 309 prop tor  42  10  11  12
 310 prop tor  42  10  11  43
 311 prop tor  43  11  12  13
 312 prop tor  43  11  12  44
 313 prop tor  44  12  13   8
 314 prop tor  44  12  13  14
 315 prop tor  45  16  17  18
 316 prop tor  45  16  17  46
 317 prop tor  46  17  18  19
 318 prop tor  46  17  18  35
 319 prop tor  47  20  21  22
 320 prop tor  47  20  21  48
 321 prop tor  48  21  22  23
 322 prop tor  48  21  22  33
 323 prop tor  49  23  24  25
 324 prop tor  49  23  24  50
 325 prop tor  50  24  25  26
 326 prop tor  50  24  25  34
 327 prop tor  51  26  27  28
 328 prop tor  51  26  27  52
 329 prop tor  52  27  28  29
 330 prop tor  52  27  28  53
 331 prop tor  53  28  29  30
 332 prop tor  53  28  29  34
 333 prop tor  54  30  31  32
 334 prop tor  54  30  31  55
 335 prop tor  55  31  32  19
 336 prop tor  55  31  32  33
 337 prop tor  56  35  36  15
 338 prop tor  56  35  36  57
 nber bend=             106
 nber lin bend=           0
 nber prop tor=         168
 nber impr tor=           0
 nber tot redund int=         338
 Eigenvalues of G in red int coords
    Gval -0.00000000 -0.00000000 -0.00000000 -0.00000000 -0.00000000 -0.00000000 -0.00000000 -0.00000000
    Gval -0.00000000 -0.00000000 -0.00000000 -0.00000000 -0.00000000 -0.00000000 -0.00000000 -0.00000000
    Gval -0.00000000 -0.00000000 -0.00000000 -0.00000000 -0.00000000 -0.00000000 -0.00000000 -0.00000000
    Gval -0.00000000 -0.00000000 -0.00000000 -0.00000000 -0.00000000 -0.00000000 -0.00000000 -0.00000000
    Gval -0.00000000 -0.00000000 -0.00000000 -0.00000000 -0.00000000 -0.00000000 -0.00000000 -0.00000000
    Gval -0.00000000 -0.00000000 -0.00000000 -0.00000000 -0.00000000 -0.00000000 -0.00000000 -0.00000000
    Gval -0.00000000 -0.00000000 -0.00000000 -0.00000000 -0.00000000 -0.00000000 -0.00000000 -0.00000000
    Gval -0.00000000 -0.00000000 -0.00000000 -0.00000000 -0.00000000 -0.00000000 -0.00000000 -0.00000000
    Gval -0.00000000 -0.00000000 -0.00000000 -0.00000000 -0.00000000 -0.00000000 -0.00000000 -0.00000000
    Gval -0.00000000 -0.00000000 -0.00000000 -0.00000000 -0.00000000 -0.00000000 -0.00000000  0.00000000
    Gval  0.00000000  0.00000000  0.00000000  0.00000000  0.00000000  0.00000000  0.00000000  0.00000000
    Gval  0.00000000  0.00000000  0.00000000  0.00000000  0.00000000  0.00000000  0.00000000  0.00000000
    Gval  0.00000000  0.00000000  0.00000000  0.00000000  0.00000000  0.00000000  0.00000000  0.00000000
    Gval  0.00000000  0.00000000  0.00000000  0.00000000  0.00000000  0.00000000  0.00000000  0.00000000
    Gval  0.00000000  0.00000000  0.00000000  0.00000000  0.00000000  0.00000000  0.00000000  0.00000000
    Gval  0.00000000  0.00000000  0.00000000  0.00000000  0.00000000  0.00000000  0.00000000  0.00000000
    Gval  0.00000000  0.00000000  0.00000000  0.00000000  0.00000000  0.00000000  0.00000000  0.00000000
    Gval  0.00000000  0.00000000  0.00000000  0.00000000  0.00000000  0.00000000  0.00000000  0.00000000
    Gval  0.00000000  0.00000000  0.00000000  0.00000000  0.00000000  0.00000000  0.00000000  0.00000000
    Gval  0.00000000  0.00000000  0.00000000  0.00000000  0.00000000  0.00000000  0.00000000  0.00000000
    Gval  0.00000000  0.00000000  0.00000000  0.00000000  0.00000000  0.00000000  0.00000000  0.00000000
    Gval  0.00000000  0.00000000  0.00000000  0.00000000  0.00000000  0.00000035  0.00000074  0.00000121
    Gval  0.00000185  0.00000211  0.00000643  0.00000683  0.00000998  0.00001059  0.00001199  0.00001617
    Gval  0.00002074  0.00002145  0.00002305  0.00002387  0.00002482  0.00002821  0.00002903  0.00003076
    Gval  0.00003361  0.00003806  0.00004191  0.00004698  0.00004832  0.00005140  0.00005165  0.00005509
    Gval  0.00005875  0.00006065  0.00006599  0.00006876  0.00006939  0.00007055  0.00007281  0.00007504
    Gval  0.00007575  0.00007841  0.00008006  0.00008554  0.00009006  0.00009977  0.00010137  0.00010487
    Gval  0.00011233  0.00011726  0.00012193  0.00012366  0.00012575  0.00013217  0.00013929  0.00014264
    Gval  0.00014771  0.00015290  0.00016543  0.00017311  0.00017891  0.00018973  0.00019464  0.00020367
    Gval  0.00021115  0.00022742  0.00024368  0.00024917  0.00025905  0.00027129  0.00029484  0.00030142
    Gval  0.00031513  0.00031846  0.00032510  0.00033462  0.00034661  0.00036989  0.00037587  0.00038118
    Gval  0.00038872  0.00039943  0.00041100  0.00041933  0.00043656  0.00044690  0.00045150  0.00046211
    Gval  0.00051829  0.00052046  0.00052803  0.00059321  0.00059322  0.00059388  0.00059661  0.00059719
    Gval  0.00059724  0.00059737  0.00059869  0.00059994  0.00060048  0.00060834  0.00061784  0.00062007
    Gval  0.00062663  0.00063331  0.00064130  0.00064709  0.00064868  0.00065456  0.00065528  0.00065783
    Gval  0.00065913  0.00068519  0.00076758  0.00079328  0.00082256  0.00082742  0.00098175  0.00100067
    Gval  0.00105562  0.00105597  0.00106436  0.00107441  0.00108191  0.00108716  0.00109365  0.00111109
    Gval  0.00112199  0.00112200  0.00113847  0.00115197  0.00115823  0.00116138  0.00116337  0.00116515
    Gval  0.00116517  0.00116750  0.00117356  0.00117487  0.00117502  0.00118014  0.00124856  0.00149988
    Gval  0.00168785  0.00169902  0.00174840  0.00179737  0.00181568  0.00192568  0.00219010  0.00221582
    Gval  0.00237060  0.00240368  0.00249972  0.00250995  0.00260843  0.00264034  0.00270805  0.00310663
    Gval  0.00350741  0.00352087  0.00360316  0.00367000  0.00369086  0.00375098  0.00380211  0.00392485
    Gval  0.00402807  0.00402939
  3.527981522018582E-007  3.527981522018582E-007
  7.366160364146444E-007  3.527981522018582E-007
  1.214140303530666E-006  3.527981522018582E-007
  1.854395148924320E-006  3.527981522018582E-007
  2.114651993946475E-006  3.527981522018582E-007
  6.426568655599814E-006  3.527981522018582E-007
  6.827383620641739E-006  3.527981522018582E-007
  9.980887503302855E-006  3.527981522018582E-007
  1.059480234390410E-005  3.527981522018582E-007
  1.199085589121395E-005  3.527981522018582E-007
  1.617458555041542E-005  3.527981522018582E-007
  2.074365287621034E-005  3.527981522018582E-007
  2.144693517702247E-005  3.527981522018582E-007
  2.305253134866665E-005  3.527981522018582E-007
  2.386644922144610E-005  3.527981522018582E-007
[...]
 nber times 1st assigned=         109           0
 nber times 1st assigned=         110           0
 nber times 1st assigned=         111           0
 nber times 1st assigned=         112           0
 nber times 1st assigned=         113           0
 nber times 1st assigned=         114           0
 nber times 1st assigned=         115           0
 nber times 1st assigned=         116           0
 nber times 1st assigned=         117           0
 nber times 1st assigned=         118           0
 nber times 1st assigned=         119           0
 nber times 1st assigned=         120           0
 nber times 1st assigned=         121           0
 nber times 1st assigned=         122           0
 nber times 1st assigned=         123           0
 nber times 1st assigned=         124           0
 nber times 1st assigned=         125           0
 nber times 1st assigned=         126           0
 nber times 1st assigned=         127           0
 nber times 1st assigned=         128           0
 nber times 1st assigned=         129           0
 nber times 1st assigned=         130           0
 nber times 1st assigned=         131           0
 nber times 1st assigned=         132           0
 nber times 1st assigned=         133           0
 nber times 1st assigned=         134           0
 nber times 1st assigned=         135           0
 nber times 1st assigned=         136           0
 nber times 1st assigned=         137           0
 nber times 1st assigned=         138           0
 nber times 1st assigned=         139           0
 nber times 1st assigned=         140           0
 nber times 1st assigned=         141           0
 nber times 1st assigned=         142           0
 nber times 1st assigned=         143           0
 nber times 1st assigned=         144           0
 nber times 1st assigned=         145           0
 nber times 1st assigned=         146           0
 nber times 1st assigned=         147           0
 nber times 1st assigned=         148           0
 nber times 1st assigned=         149           0
 nber times 1st assigned=         150           0
 nber times 1st assigned=         151           0
 nber times 1st assigned=         152           0
 nber times 1st assigned=         153           0
 nber times 1st assigned=         154           0
 nber times 1st assigned=         155           0
 nber times 1st assigned=         156           0
 nber times 1st assigned=         157           0
 nber times 1st assigned=         158           0
 nber times 1st assigned=         159           0
 nber times 1st assigned=         160           0
 nber times 1st assigned=         161           0
 nber times 1st assigned=         162           0
 nber times 1st assigned=         163           0
 nber times 1st assigned=         164           0
 nber times 1st assigned=         165           0
 nber times 1st assigned=         166           0
 nber times 1st assigned=         167           0
 nber times 1st assigned=         168           0
 nber times 1st assigned=         169           0
 nber times 1st assigned=         170           0
 nber times 1st assigned=         171           0
 modes represented=   542.118640732500     
 p1=
    0.    0.   -0.   -0.   -0.    0. 1475.-1432.  374.  238.    0.  -54. -282. -129. -179.   54.  -39.  -31.   25.    9.
   49.   11.    9.   11.  -28.   10.  -13.   -7.  -15.    2.    6.    3.   -2.   -7.   -6.   -7.   -4.   -1.    0.    0.
   -2.   -8.   -5.    3.   -2.    4.    4.    3.   -3.    8.    4.   -5.    6.   -6.    2.   -2.   -2.   -2.    1.   -3.
    1.    0.   -3.    1.   -3.   -0.   -1.    2.    2.    1.   -3.   -1.    3.    0.    1.   -0.   -0.    1.    5.    0.
   -1.    0.   -1.   -0.    0.    5.    4.    5.    2.   -3.    0.   -3.   -1.   -3.   -1.    0.    0.   -0.    0.   -0.
    0.   -1.    0.    1.    0.   -0.   -0.   -0.   -1.   -1.   -0.    1.    0.    1.    0.   -1.   -1.   -2.    0.    0.
    1.    0.   -1.    0.   -0.   -0.    1.   -3.    0.   -2.    3.   -0.    0.    1.   -0.   -0.   -2.    1.   -1.    1.
    0.   -0.   -0.    2.   -0.    1.    1.    0.    1.   -3.   -0.    0.   -0.   -0.   -0.   -0.    0.    0.    0.   -0.
    0.   -0.    0.   -0.   -0.   -0.   -0.   -0.    0.   -0.   -0.
 p2=
    0.   -0.    0.   -0.    0.   -0. 1421.-1524.  216. -189.    4.   54. -280. -127. -182.   56.  -40.  -30.  -26.  -10.
  -51.   10.   -9.   12.  -29.  -11.   13.   -7.   15.   -2.   -6.   -3.    3.   -7.   -6.   -7.    4.   -1.   -0.   -0.
   -2.   -8.    5.    3.    2.   -4.    4.   -3.   -3.    8.    4.   -5.   -6.    6.    2.   -2.    2.   -2.    1.   -3.
   -1.    0.    3.    1.    4.   -0.    1.   -2.   -2.   -1.    3.   -1.   -3.    0.    1.   -0.    0.    1.   -5.    0.
    1.    0.    1.    0.   -0.    4.   -4.    5.    3.   -3.   -0.    3.   -1.   -3.    1.    0.   -0.    0.    0.   -1.
   -0.   -1.    0.   -1.   -0.   -1.    0.   -0.    1.    1.   -1.   -1.    0.    1.    0.   -1.    1.    2.    0.   -0.
   -1.   -0.   -1.   -0.   -0.   -0.   -1.    3.    0.    2.   -3.    0.    0.    1.    0.    0.   -2.    1.    1.   -1.
    0.   -0.    0.    2.   -0.   -1.    1.    0.   -1.    3.   -0.    0.    0.    0.    0.   -0.    0.    0.   -0.   -0.
   -0.   -0.    0.   -0.   -0.   -0.    0.    0.    0.   -0.   -0.

 Displacement: in terms of nc of 1 THEN of nc of 2

   1     freq=    -0. Q=  0.000 lam=    -0.0     freq=    -0. Q=  0.000 lam=    -0.0
   2     freq=    -0. Q=  0.000 lam=    -0.0     freq=    -0. Q=  0.000 lam=    -0.0
   3     freq=    -0. Q= -0.000 lam=    -0.0     freq=    -0. Q= -0.000 lam=    -0.0
   4     freq=    -0. Q= -0.000 lam=    -0.0     freq=     0. Q= -0.000 lam=     0.0
   5     freq=    -0. Q= -0.000 lam=    -0.0     freq=     0. Q= -0.000 lam=     0.0
   6     freq=     0. Q=  0.000 lam=     0.0     freq=     0. Q=  0.000 lam=     0.0
   7     freq=    15. Q= 22.777 lam=  3801.3     freq=    15. Q= 21.981 lam=  3553.5
   8     freq=    19. Q=-25.105 lam=  5951.4     freq=    19. Q=-26.516 lam=  6539.8
   9     freq=    26. Q=  7.677 lam=   761.9     freq=    25. Q=  4.335 lam=   233.0
  10     freq=    38. Q=  5.931 lam=   673.3     freq=    38. Q=  4.682 lam=   413.0
  11     freq=    57. Q=  0.002 lam=     0.0     freq=    57. Q=  0.112 lam=     0.4
  12     freq=    69. Q= -1.818 lam=   114.2     freq=    69. Q= -1.801 lam=   112.0
  13     freq=    81. Q=-10.214 lam=  4214.0     freq=    81. Q=-10.168 lam=  4175.6
  14     freq=   102. Q= -5.257 lam=  1413.3     freq=   102. Q= -5.195 lam=  1381.0
  15     freq=   118. Q= -7.823 lam=  3598.0     freq=   118. Q= -7.973 lam=  3740.5
  16     freq=   124. Q=  2.438 lam=   369.7     freq=   124. Q=  2.519 lam=   394.8
  17     freq=   142. Q= -1.861 lam=   246.2     freq=   142. Q= -1.902 lam=   256.6
  18     freq=   159. Q= -1.554 lam=   191.7     freq=   159. Q= -1.536 lam=   187.0
  19     freq=   198. Q=  1.391 lam=   191.5     freq=   198. Q=  1.457 lam=   210.0
  20     freq=   213. Q=  0.557 lam=    33.1     freq=   213. Q=  0.591 lam=    37.3
  21     freq=   222. Q=  2.952 lam=   967.8     freq=   222. Q=  3.050 lam=  1033.2
  22     freq=   234. Q=  0.648 lam=    49.1     freq=   234. Q=  0.617 lam=    44.5
  23     freq=   241. Q=  0.565 lam=    38.4     freq=   241. Q=  0.575 lam=    39.9
  24     freq=   252. Q=  0.721 lam=    65.6     freq=   252. Q=  0.754 lam=    71.7
  25     freq=   265. Q= -1.839 lam=   448.5     freq=   265. Q= -1.876 lam=   466.9
  26     freq=   315. Q=  0.719 lam=    81.4     freq=   315. Q=  0.776 lam=    94.7
  27     freq=   333. Q= -0.961 lam=   153.7     freq=   333. Q= -0.956 lam=   151.8
  28     freq=   358. Q= -0.502 lam=    45.0     freq=   358. Q= -0.516 lam=    47.7
  29     freq=   370. Q= -1.132 lam=   236.9     freq=   370. Q= -1.160 lam=   248.5
  30     freq=   379. Q=  0.172 lam=     5.6     freq=   379. Q=  0.192 lam=     7.0
  31     freq=   402. Q=  0.451 lam=    40.9     freq=   402. Q=  0.456 lam=    41.8
  32     freq=   415. Q=  0.262 lam=    14.3     freq=   415. Q=  0.281 lam=    16.4
  33     freq=   424. Q= -0.207 lam=     9.0     freq=   424. Q= -0.210 lam=     9.3
  34     freq=   430. Q= -0.564 lam=    68.5     freq=   430. Q= -0.588 lam=    74.4
  35     freq=   432. Q= -0.493 lam=    52.6     freq=   432. Q= -0.483 lam=    50.5
  36     freq=   440. Q= -0.606 lam=    80.9     freq=   440. Q= -0.626 lam=    86.2
  37     freq=   457. Q= -0.386 lam=    34.1     freq=   457. Q= -0.374 lam=    32.0
  38     freq=   459. Q= -0.119 lam=     3.2     freq=   459. Q= -0.123 lam=     3.5
  39     freq=   480. Q=  0.013 lam=     0.0     freq=   480. Q=  0.000 lam=     0.0
  40     freq=   499. Q=  0.022 lam=     0.1     freq=   499. Q=  0.019 lam=     0.1
  41     freq=   507. Q= -0.162 lam=     6.6     freq=   507. Q= -0.162 lam=     6.7
  42     freq=   514. Q= -0.695 lam=   124.4     freq=   514. Q= -0.723 lam=   134.6
  43     freq=   517. Q= -0.466 lam=    56.1     freq=   517. Q= -0.471 lam=    57.2
  44     freq=   522. Q=  0.306 lam=    24.4     freq=   522. Q=  0.312 lam=    25.4
  45     freq=   530. Q= -0.140 lam=     5.2     freq=   530. Q= -0.155 lam=     6.4
  46     freq=   546. Q=  0.351 lam=    33.6     freq=   547. Q=  0.359 lam=    35.2
  47     freq=   553. Q=  0.366 lam=    37.0     freq=   553. Q=  0.391 lam=    42.4
  48     freq=   567. Q=  0.313 lam=    27.8     freq=   567. Q=  0.303 lam=    26.0
  49     freq=   577. Q= -0.258 lam=    19.2     freq=   577. Q= -0.246 lam=    17.4
  50     freq=   586. Q=  0.746 lam=   163.1     freq=   586. Q=  0.738 lam=   159.5
  51     freq=   606. Q=  0.430 lam=    56.1     freq=   606. Q=  0.414 lam=    51.9
  52     freq=   618. Q= -0.548 lam=    92.7     freq=   618. Q= -0.549 lam=    93.3
  53     freq=   624. Q=  0.628 lam=   123.2     freq=   624. Q=  0.650 lam=   131.8
  54     freq=   646. Q= -0.572 lam=   105.6     freq=   646. Q= -0.600 lam=   116.3
  55     freq=   653. Q=  0.221 lam=    16.0     freq=   652. Q=  0.240 lam=    18.7
  56     freq=   670. Q= -0.241 lam=    19.5     freq=   669. Q= -0.252 lam=    21.2
  57     freq=   689. Q= -0.225 lam=    17.5     freq=   689. Q= -0.232 lam=    18.6
  58     freq=   691. Q= -0.161 lam=     9.0     freq=   691. Q= -0.172 lam=    10.2
  59     freq=   692. Q=  0.074 lam=     1.9     freq=   692. Q=  0.073 lam=     1.8
  60     freq=   701. Q= -0.302 lam=    31.9     freq=   701. Q= -0.299 lam=    31.3
  61     freq=   703. Q=  0.110 lam=     4.3     freq=   703. Q=  0.121 lam=     5.1
  62     freq=   705. Q=  0.037 lam=     0.5     freq=   705. Q=  0.035 lam=     0.4
  63     freq=   735. Q= -0.296 lam=    32.2     freq=   735. Q= -0.324 lam=    38.5
  64     freq=   747. Q=  0.087 lam=     2.8     freq=   747. Q=  0.101 lam=     3.8
  65     freq=   748. Q= -0.372 lam=    51.6     freq=   748. Q= -0.388 lam=    56.2
  66     freq=   758. Q= -0.013 lam=     0.1     freq=   758. Q= -0.013 lam=     0.1
  67     freq=   760. Q= -0.103 lam=     4.0     freq=   759. Q= -0.102 lam=     3.9
  68     freq=   765. Q=  0.189 lam=    13.6     freq=   765. Q=  0.191 lam=    14.0
  69     freq=   770. Q=  0.262 lam=    26.5     freq=   770. Q=  0.276 lam=    29.2
  70     freq=   804. Q=  0.111 lam=     4.9     freq=   804. Q=  0.094 lam=     3.5
  71     freq=   828. Q= -0.347 lam=    50.0     freq=   828. Q= -0.366 lam=    55.5
  72     freq=   832. Q= -0.093 lam=     3.6     freq=   832. Q= -0.084 lam=     2.9
  73     freq=   839. Q=  0.330 lam=    45.7     freq=   839. Q=  0.346 lam=    50.2
  74     freq=   844. Q=  0.041 lam=     0.7     freq=   844. Q=  0.040 lam=     0.7
  75     freq=   849. Q=  0.156 lam=    10.3     freq=   849. Q=  0.151 lam=     9.7
  76     freq=   850. Q= -0.019 lam=     0.2     freq=   850. Q= -0.018 lam=     0.1
  77     freq=   856. Q= -0.032 lam=     0.4     freq=   856. Q= -0.022 lam=     0.2
  78     freq=   861. Q=  0.140 lam=     8.5     freq=   861. Q=  0.132 lam=     7.5
  79     freq=   870. Q=  0.607 lam=   160.3     freq=   870. Q=  0.600 lam=   156.5
  80     freq=   878. Q=  0.041 lam=     0.7     freq=   878. Q=  0.043 lam=     0.8
  81     freq=   902. Q= -0.061 lam=     1.7     freq=   902. Q= -0.070 lam=     2.2
  82     freq=   930. Q=  0.025 lam=     0.3     freq=   930. Q=  0.017 lam=     0.1
  83     freq=   947. Q= -0.111 lam=     5.8     freq=   947. Q= -0.110 lam=     5.8
  84     freq=   960. Q= -0.014 lam=     0.1     freq=   960. Q= -0.004 lam=     0.0
  85     freq=   960. Q=  0.035 lam=     0.6     freq=   960. Q=  0.033 lam=     0.5
  86     freq=   965. Q=  0.577 lam=   160.7     freq=   965. Q=  0.539 lam=   140.1
  87     freq=   970. Q=  0.527 lam=   134.5     freq=   970. Q=  0.525 lam=   133.6
  88     freq=   975. Q=  0.644 lam=   202.4     freq=   976. Q=  0.661 lam=   213.3
  89     freq=   981. Q=  0.301 lam=    44.5     freq=   981. Q=  0.333 lam=    54.3
  90     freq=   984. Q= -0.344 lam=    58.1     freq=   984. Q= -0.356 lam=    62.3
  91     freq=   987. Q=  0.055 lam=     1.5     freq=   987. Q=  0.046 lam=     1.0
  92     freq=   988. Q= -0.428 lam=    90.5     freq=   988. Q= -0.443 lam=    97.0
  93     freq=  1006. Q= -0.102 lam=     5.2     freq=  1006. Q= -0.101 lam=     5.1
  94     freq=  1024. Q= -0.339 lam=    58.9     freq=  1024. Q= -0.331 lam=    56.2
  95     freq=  1044. Q= -0.130 lam=     8.8     freq=  1044. Q= -0.132 lam=     9.1
  96     freq=  1047. Q=  0.006 lam=     0.0     freq=  1047. Q=  0.004 lam=     0.0
  97     freq=  1072. Q=  0.006 lam=     0.0     freq=  1072. Q=  0.006 lam=     0.0
  98     freq=  1079. Q= -0.031 lam=     0.5     freq=  1079. Q= -0.021 lam=     0.2
  99     freq=  1083. Q=  0.055 lam=     1.7     freq=  1083. Q=  0.053 lam=     1.5
 100     freq=  1095. Q= -0.064 lam=     2.2     freq=  1095. Q= -0.069 lam=     2.6
 101     freq=  1124. Q=  0.029 lam=     0.5     freq=  1124. Q=  0.031 lam=     0.5
 102     freq=  1131. Q= -0.087 lam=     4.3     freq=  1131. Q= -0.095 lam=     5.1
 103     freq=  1142. Q=  0.006 lam=     0.0     freq=  1142. Q=  0.004 lam=     0.0
 104     freq=  1150. Q=  0.102 lam=     5.9     freq=  1150. Q=  0.103 lam=     6.1
 105     freq=  1165. Q=  0.017 lam=     0.2     freq=  1165. Q=  0.013 lam=     0.1
 106     freq=  1174. Q= -0.061 lam=     2.2     freq=  1174. Q= -0.075 lam=     3.3
 107     freq=  1186. Q= -0.012 lam=     0.1     freq=  1186. Q= -0.014 lam=     0.1
 108     freq=  1191. Q= -0.007 lam=     0.0     freq=  1191. Q= -0.010 lam=     0.1
 109     freq=  1195. Q= -0.090 lam=     4.9     freq=  1195. Q= -0.097 lam=     5.6
 110     freq=  1199. Q= -0.153 lam=    13.9     freq=  1199. Q= -0.154 lam=    14.3
 111     freq=  1208. Q= -0.069 lam=     2.9     freq=  1208. Q= -0.075 lam=     3.4
 112     freq=  1240. Q=  0.094 lam=     5.5     freq=  1240. Q=  0.099 lam=     6.1
 113     freq=  1253. Q=  0.006 lam=     0.0     freq=  1253. Q=  0.012 lam=     0.1
 114     freq=  1262. Q=  0.101 lam=     6.4     freq=  1262. Q=  0.106 lam=     7.1
 115     freq=  1266. Q=  0.058 lam=     2.1     freq=  1266. Q=  0.054 lam=     1.9
 116     freq=  1269. Q= -0.172 lam=    18.8     freq=  1269. Q= -0.183 lam=    21.2
 117     freq=  1281. Q= -0.100 lam=     6.5     freq=  1281. Q= -0.108 lam=     7.5
 118     freq=  1286. Q= -0.291 lam=    54.3     freq=  1286. Q= -0.294 lam=    55.6
 119     freq=  1310. Q=  0.008 lam=     0.0     freq=  1310. Q=  0.010 lam=     0.1
 120     freq=  1318. Q=  0.002 lam=     0.0     freq=  1318. Q=  0.000 lam=     0.0
 121     freq=  1327. Q=  0.169 lam=    19.0     freq=  1327. Q=  0.159 lam=    16.8
 122     freq=  1336. Q=  0.005 lam=     0.0     freq=  1336. Q=  0.005 lam=     0.0
 123     freq=  1343. Q= -0.179 lam=    21.6     freq=  1343. Q= -0.189 lam=    24.0
 124     freq=  1358. Q=  0.031 lam=     0.6     freq=  1358. Q=  0.025 lam=     0.4
 125     freq=  1366. Q= -0.038 lam=     1.0     freq=  1366. Q= -0.034 lam=     0.8
 126     freq=  1376. Q= -0.040 lam=     1.1     freq=  1376. Q= -0.037 lam=     0.9
 127     freq=  1378. Q=  0.132 lam=    12.0     freq=  1378. Q=  0.130 lam=    11.6
 128     freq=  1400. Q= -0.499 lam=   174.1     freq=  1400. Q= -0.489 lam=   167.2
 129     freq=  1408. Q=  0.042 lam=     1.3     freq=  1408. Q=  0.036 lam=     0.9
 130     freq=  1428. Q= -0.252 lam=    45.4     freq=  1428. Q= -0.253 lam=    45.8
 131     freq=  1440. Q=  0.416 lam=   124.5     freq=  1440. Q=  0.423 lam=   128.9
 132     freq=  1442. Q= -0.015 lam=     0.2     freq=  1442. Q= -0.020 lam=     0.3
 133     freq=  1443. Q=  0.073 lam=     3.9     freq=  1443. Q=  0.073 lam=     3.8
 134     freq=  1459. Q=  0.221 lam=    35.5     freq=  1459. Q=  0.222 lam=    36.0
 135     freq=  1474. Q= -0.002 lam=     0.0     freq=  1474. Q= -0.001 lam=     0.0
 136     freq=  1476. Q= -0.050 lam=     1.8     freq=  1476. Q= -0.042 lam=     1.3
 137     freq=  1488. Q= -0.267 lam=    53.2     freq=  1488. Q= -0.268 lam=    53.5
 138     freq=  1505. Q=  0.092 lam=     6.4     freq=  1505. Q=  0.092 lam=     6.3
 139     freq=  1516. Q= -0.188 lam=    26.9     freq=  1516. Q= -0.182 lam=    25.0
 140     freq=  1526. Q=  0.184 lam=    25.8     freq=  1526. Q=  0.187 lam=    26.5
 141     freq=  1550. Q=  0.066 lam=     3.4     freq=  1550. Q=  0.063 lam=     3.1
 142     freq=  1552. Q= -0.017 lam=     0.2     freq=  1552. Q= -0.019 lam=     0.3
 143     freq=  1568. Q= -0.073 lam=     4.2     freq=  1568. Q= -0.072 lam=     4.0
 144     freq=  1590. Q=  0.303 lam=    73.1     freq=  1590. Q=  0.303 lam=    72.8
 145     freq=  1614. Q= -0.002 lam=     0.0     freq=  1614. Q= -0.002 lam=     0.0
 146     freq=  1618. Q=  0.083 lam=     5.6     freq=  1618. Q=  0.085 lam=     5.8
 147     freq=  1627. Q=  0.143 lam=    16.7     freq=  1627. Q=  0.144 lam=    16.9
 148     freq=  1636. Q=  0.020 lam=     0.3     freq=  1636. Q=  0.020 lam=     0.3
 149     freq=  1643. Q=  0.183 lam=    27.5     freq=  1643. Q=  0.183 lam=    27.5
 150     freq=  1670. Q= -0.553 lam=   254.9     freq=  1670. Q= -0.555 lam=   257.5
 151     freq=  3151. Q= -0.009 lam=     0.1     freq=  3150. Q= -0.009 lam=     0.1
 152     freq=  3153. Q=  0.018 lam=     0.5     freq=  3153. Q=  0.018 lam=     0.5
 153     freq=  3156. Q= -0.004 lam=     0.0     freq=  3156. Q= -0.009 lam=     0.1
 154     freq=  3156. Q= -0.024 lam=     0.9     freq=  3156. Q= -0.024 lam=     0.9
 155     freq=  3163. Q= -0.002 lam=     0.0     freq=  3163. Q= -0.002 lam=     0.0
 156     freq=  3164. Q= -0.051 lam=     4.1     freq=  3164. Q= -0.050 lam=     4.0
 157     freq=  3166. Q=  0.024 lam=     0.9     freq=  3166. Q=  0.024 lam=     0.9
 158     freq=  3171. Q=  0.005 lam=     0.0     freq=  3170. Q=  0.006 lam=     0.0
 159     freq=  3173. Q=  0.002 lam=     0.0     freq=  3173. Q=  0.002 lam=     0.0
 160     freq=  3173. Q= -0.000 lam=     0.0     freq=  3173. Q= -0.001 lam=     0.0
 161     freq=  3179. Q=  0.005 lam=     0.0     freq=  3179. Q=  0.005 lam=     0.0
 162     freq=  3180. Q= -0.000 lam=     0.0     freq=  3180. Q= -0.001 lam=     0.0
 163     freq=  3189. Q=  0.001 lam=     0.0     freq=  3189. Q=  0.001 lam=     0.0
 164     freq=  3189. Q= -0.001 lam=     0.0     freq=  3189. Q= -0.000 lam=     0.0
 165     freq=  3199. Q= -0.085 lam=    11.6     freq=  3199. Q= -0.094 lam=    14.3
 166     freq=  3202. Q= -0.002 lam=     0.0     freq=  3203. Q= -0.001 lam=     0.0
 167     freq=  3203. Q= -0.004 lam=     0.0     freq=  3203. Q= -0.005 lam=     0.0
 168     freq=  3208. Q= -0.037 lam=     2.2     freq=  3208. Q= -0.038 lam=     2.3
 169     freq=  3209. Q=  0.012 lam=     0.2     freq=  3209. Q=  0.012 lam=     0.2
 170     freq=  3244. Q= -0.004 lam=     0.0     freq=  3244. Q= -0.004 lam=     0.0
 171     freq=  3244. Q= -0.001 lam=     0.0     freq=  3244. Q= -0.001 lam=     0.0

 total reorg energy (cm**-1, kcal/mol)=    27215.    27085.     77.81     77.44
 Nber of molecules processed=           2
