 Enter ifcurve (0=recti, 1=orth curvi, 2=apprx curvi, -1 = skip
 And atom ordering flag, 0= never changes, 1= use the first order thenceforth,
  2= deduce it (does read on fail), 3= always read it
 Reading file: 
 ./Benzene_Conj_3_C0S0.log                                                      
                                          
  Entering Gaussian System, Link 0=g16                                          
  
 Gaussian format, type: g94, g98, g03= F F F
  #P Geom=AllCheck Guess=TCheck SCRF=Check GenChk RB3LYP/6-311G(d,p) Fre    
 energy type= B3LYP   
 Original G94 input coords:
  6  3.706285 -1.407130  0.000000
  6  2.446171 -0.724861  0.000000
  6  1.233638 -1.404427  0.000000
  6  0.000000 -0.725013  0.000000
  6 -1.233638 -1.404427  0.000000
  6 -2.446171 -0.724861  0.000000
  6 -3.706285 -1.407130  0.000000
  6 -4.880778 -0.714616  0.000000
  6 -4.880778  0.714616  0.000000
  6 -3.706285  1.407130  0.000000
  6 -2.446171  0.724861  0.000000
  6 -1.233638  1.404427  0.000000
  6  0.000000  0.725013  0.000000
  6  1.233638  1.404427  0.000000
  6  2.446171  0.724861  0.000000
  6  3.706285  1.407130  0.000000
  6  4.880778  0.714616  0.000000
  6  4.880778 -0.714616  0.000000
  1  3.706104 -2.492156  0.000000
  1  1.234076 -2.490157  0.000000
  1 -1.234076 -2.490157  0.000000
  1 -3.706104 -2.492156  0.000000
  1 -5.826294 -1.245181  0.000000
  1 -5.826294  1.245181  0.000000
  1 -3.706104  2.492156  0.000000
  1 -1.234076  2.490157  0.000000
  1  1.234076  2.490157  0.000000
  1  3.706104  2.492156  0.000000
  1  5.826294  1.245181  0.000000
  1  5.826294 -1.245181  0.000000
 nber atoms=          30
 Original standard coords:
  6  0.000000  3.706285  1.407130
  6  0.000000  2.446171  0.724861
  6  0.000000  1.233638  1.404427
  6  0.000000  0.000000  0.725013
  6  0.000000 -1.233638  1.404427
  6  0.000000 -2.446171  0.724861
  6  0.000000 -3.706285  1.407130
  6  0.000000 -4.880778  0.714616
  6  0.000000 -4.880778 -0.714616
  6  0.000000 -3.706285 -1.407130
  6  0.000000 -2.446171 -0.724861
  6  0.000000 -1.233638 -1.404427
  6  0.000000  0.000000 -0.725013
  6  0.000000  1.233638 -1.404427
  6  0.000000  2.446171 -0.724861
  6  0.000000  3.706285 -1.407130
  6  0.000000  4.880778 -0.714616
  6  0.000000  4.880778  0.714616
  1  0.000000  3.706104  2.492156
  1  0.000000  1.234076  2.490157
  1  0.000000 -1.234076  2.490157
  1  0.000000 -3.706104  2.492156
  1  0.000000 -5.826294  1.245181
  1  0.000000 -5.826294 -1.245181
  1  0.000000 -3.706104 -2.492156
  1  0.000000 -1.234076 -2.490157
  1  0.000000  1.234076 -2.490157
  1  0.000000  3.706104 -2.492156
  1  0.000000  5.826294 -1.245181
  1  0.000000  5.826294  1.245181
  SCF Done:  E(RB3LYP) =  -693.322889370     A.U. after    1 cycles             
  
          23          40 "  -693.322889370"
After scan for Atom:   Atom  AN      X      Y      Z        X      Y      Z        X      Y      Z   
After scan for Atom:   Atom  AN      X      Y      Z        X      Y      Z        X      Y      Z   
After scan for Atom:   Atom  AN      X      Y      Z        X      Y      Z        X      Y      Z   
After scan for Atom:   Atom  AN      X      Y      Z        X      Y      Z        X      Y      Z   
After scan for Atom:   Atom  AN      X      Y      Z        X      Y      Z        X      Y      Z   
After scan for Atom:   Atom  AN      X      Y      Z        X      Y      Z        X      Y      Z   
After scan for Atom:   Atom  AN      X      Y      Z        X      Y      Z        X      Y      Z   
After scan for Atom:   Atom  AN      X      Y      Z        X      Y      Z        X      Y      Z   
After scan for Atom:   Atom  AN      X      Y      Z        X      Y      Z        X      Y      Z   
After scan for Atom:   Atom  AN      X      Y      Z        X      Y      Z        X      Y      Z   
After scan for Atom:   Atom  AN      X      Y      Z        X      Y      Z        X      Y      Z   
After scan for Atom:   Atom  AN      X      Y      Z        X      Y      Z        X      Y      Z   
After scan for Atom:   Atom  AN      X      Y      Z        X      Y      Z        X      Y      Z   
After scan for Atom:   Atom  AN      X      Y      Z        X      Y      Z        X      Y      Z   
After scan for Atom:   Atom  AN      X      Y      Z        X      Y      Z        X      Y      Z   
After scan for Atom:   Atom  AN      X      Y      Z        X      Y      Z        X      Y      Z   
After scan for Atom:   Atom  AN      X      Y      Z        X      Y      Z        X      Y      Z   
After scan for Atom:   Atom  AN      X      Y      Z        X      Y      Z        X      Y      Z   
After scan for Atom:   Atom  AN      X      Y      Z        X      Y      Z        X      Y      Z   
After scan for Atom:   Atom  AN      X      Y      Z        X      Y      Z        X      Y      Z   
After scan for Atom:   Atom  AN      X      Y      Z        X      Y      Z        X      Y      Z   
After scan for Atom:   Atom  AN      X      Y      Z        X      Y      Z        X      Y      Z   
After scan for Atom:   Atom  AN      X      Y      Z        X      Y      Z        X      Y      Z   
After scan for Atom:   Atom  AN      X      Y      Z        X      Y      Z        X      Y      Z   
After scan for Atom:   Atom  AN      X      Y      Z        X      Y      Z        X      Y      Z   
After scan for Atom:   Atom  AN      X      Y      Z        X      Y      Z        X      Y      Z   
After scan for Atom:   Atom  AN      X      Y      Z        X      Y      Z        X      Y      Z   
After scan for Atom:   Atom  AN      X      Y      Z        X      Y      Z        X      Y      Z   
 g94    frequencies=
     0.0    0.0    0.0    0.0    0.0    0.0   55.0   89.3  149.3  163.0
   191.2  270.8  304.9  317.7  317.8  382.0  448.2  472.3  476.4  482.1
   505.1  519.3  562.6  567.2  618.3  634.6  645.0  733.8  744.2  757.3
   757.4  762.8  768.7  777.3  788.1  841.5  853.0  862.0  867.7  889.8
   910.6  913.7  914.8  945.2  971.0  972.5  995.3  995.5 1020.5 1022.5
  1147.3 1149.7 1151.5 1186.0 1189.1 1204.3 1223.3 1224.2 1291.2 1298.9
  1315.5 1318.2 1359.7 1368.2 1411.8 1417.8 1424.1 1432.4 1479.6 1481.6
  1501.5 1557.5 1578.1 1583.5 1608.9 1648.6 1663.0 1677.2 3153.4 3155.2
  3155.7 3157.4 3158.6 3158.6 3162.1 3163.2 3175.0 3175.1 3186.9 3187.2
 g94    symmetries=
                                                B3     AU     B1     B1
      B2     B3     B3     AU     AG     B1     B1     B3     B1     B3
      B3     B2     B2     AU     B1     AG     B2     B2     B1     B2
      B3     AG     AU     B2     B3     AU     B2     B1     AG     AU
      B3     B3     B2     B1     B1     B3     AU     B2     B2     AG
      B2     B1     B3     AG     B2     B3     B1     AG     B3     B1
      B1     B2     B3     B2     AG     B1     AG     B2     AG     B3
      B2     AG     AG     B2     B1     B3     B3     B1     B3     B2
      B1     B3     AG     B1     B2     AG     B3     B1     B2     AG
 atomic masses:
 12.0000 12.0000 12.0000 12.0000 12.0000 12.0000 12.0000 12.0000 12.0000 12.0000
 12.0000 12.0000 12.0000 12.0000 12.0000 12.0000 12.0000 12.0000  1.0078  1.0078
  1.0078  1.0078  1.0078  1.0078  1.0078  1.0078  1.0078  1.0078  1.0078  1.0078
 looking for force constants in 
 ./Benzene_Conj_3_C0S0.fchk                                                     
  
 Cartesian Force Constants                  R   N=        4095                  
  
 n3=          90        4095
 g94-fc frequencies=
    -6.3   -4.4   -3.4   -0.0   -0.0    0.0   55.0   89.4  149.3  163.0
   191.2  270.8  304.9  317.7  317.8  382.0  448.2  472.3  476.4  482.2
   505.1  519.3  562.7  567.2  618.3  634.6  645.0  733.8  744.2  757.3
   757.4  762.8  768.7  777.3  788.2  841.5  853.0  862.0  867.8  889.9
   910.6  913.7  914.8  945.3  971.1  972.5  995.4  995.5 1020.5 1022.5
  1147.4 1149.7 1151.6 1186.0 1189.1 1204.4 1223.4 1224.3 1291.2 1298.9
  1315.6 1318.3 1359.7 1368.2 1411.9 1417.9 1424.2 1432.4 1479.6 1481.7
  1501.5 1557.6 1578.1 1583.5 1608.9 1648.7 1663.1 1677.3 3153.5 3155.3
  3155.8 3157.4 3158.6 3158.7 3162.2 3163.3 3175.1 3175.2 3187.0 3187.2
 at 99999: n3=          90
 symm operator            1 :  T  nop=           1
 symm operator            2 :  T  nop=           2
 symm operator            3 :  T  nop=           3
 symm operator            4 :  T  nop=           4
 symm operator            5 :  T  nop=           5
 symm operator            6 :  T  nop=           6
 symm operator            7 :  T  nop=           7
 The point group of the molecule is D2H
 enforcing symm op           1  jsymt=          -1          -1           1
 enforcing symm op           2  jsymt=          -1           1          -1
 enforcing symm op           3  jsymt=           1          -1          -1
 enforcing symm op           4  jsymt=          -1          -1          -1
 enforcing symm op           5  jsymt=           1           1          -1
 enforcing symm op           6  jsymt=           1          -1           1
 enforcing symm op           7  jsymt=          -1           1           1
 cartesian coord symmetries:
 Ag :   15 Au :    7 B1g:    7 B1u:   15 B2g:    8 B2u:   15 B3g:   15 B3u:    8
 Symmetry rotation matrix:
   1.00000   0.00000   0.00000
   0.00000   1.00000   0.00000
   0.00000   0.00000   1.00000

 Projecting out zero-frequency components
 generating redundant internal coords
         300        3600          30
 search for int coords
   1 str   2   1   1.433
   2 str   3   2   1.390
   3 str   4   3   1.408
   4 str   5   4   1.408
   5 str   6   5   1.390
   6 str   7   6   1.433
   7 str   8   7   1.363
   8 str   9   8   1.429
   9 str  10   9   1.363
  10 str  11   6   1.450
  11 str  11  10   1.433
  12 str  12  11   1.390
  13 str  13   4   1.450
  14 str  13  12   1.408
  15 str  14  13   1.408
  16 str  15   2   1.450
  17 str  15  14   1.390
  18 str  16  15   1.433
  19 str  17  16   1.363
  20 str  18   1   1.363
  21 str  18  17   1.429
  22 str  19   1   1.085
  23 str  20   3   1.086
  24 str  21   5   1.086
  25 str  22   7   1.085
  26 str  23   8   1.084
  27 str  24   9   1.084
  28 str  25  10   1.085
  29 str  26  12   1.086
  30 str  27  14   1.086
  31 str  28  16   1.085
  32 str  29  17   1.084
  33 str  30  18   1.084
 nber stretches=          33
  34 ben   1   2   3
  35 prop tor   1   2   3   4
  36 prop tor   1   2   3  20
  37 ben   1   2  15
  38 prop tor   1   2  15  14
  39 prop tor   1   2  15  16
  40 ben   1  18  17
  41 ben   1  18  30
  42 ben   2   1  18
  43 prop tor   2   1  18  17
  44 prop tor   2   1  18  30
  45 ben   2   1  19
  46 ben   2   3   4
  47 prop tor   2   3   4   5
  48 prop tor   2   3   4  13
  49 ben   2   3  20
  50 ben   2  15  14
  51 ben   2  15  16
  52 prop tor   2  15  16  17
  53 prop tor   2  15  16  28
  54 ben   3   2  15
  55 prop tor   3   2  15  14
  56 prop tor   3   2  15  16
  57 ben   3   4   5
  58 prop tor   3   4   5   6
  59 prop tor   3   4   5  21
  60 ben   3   4  13
  61 prop tor   3   4  13  12
  62 prop tor   3   4  13  14
  63 ben   4   3  20
  64 ben   4   5   6
  65 prop tor   4   5   6   7
  66 prop tor   4   5   6  11
  67 ben   4   5  21
  68 ben   4  13  12
  69 ben   4  13  14
  70 prop tor   4  13  14  15
  71 prop tor   4  13  14  27
  72 ben   5   4  13
  73 prop tor   5   4  13  12
  74 prop tor   5   4  13  14
  75 ben   5   6   7
  76 prop tor   5   6   7   8
  77 prop tor   5   6   7  22
  78 ben   5   6  11
  79 prop tor   5   6  11  10
  80 prop tor   5   6  11  12
  81 ben   6   5  21
  82 ben   6   7   8
  83 prop tor   6   7   8   9
  84 prop tor   6   7   8  23
  85 ben   6   7  22
  86 ben   6  11  10
  87 ben   6  11  12
  88 prop tor   6  11  12  13
  89 prop tor   6  11  12  26
  90 ben   7   6  11
  91 prop tor   7   6  11  10
  92 prop tor   7   6  11  12
  93 ben   7   8   9
  94 prop tor   7   8   9  10
  95 prop tor   7   8   9  24
  96 ben   7   8  23
  97 ben   8   7  22
  98 ben   8   9  10
  99 prop tor   8   9  10  11
 100 prop tor   8   9  10  25
 101 ben   8   9  24
 102 ben   9   8  23
 103 ben   9  10  11
 104 prop tor   9  10  11   6
 105 prop tor   9  10  11  12
 106 ben   9  10  25
 107 ben  10   9  24
 108 ben  10  11  12
 109 prop tor  10  11  12  13
 110 prop tor  10  11  12  26
 111 prop tor  11   6   7   8
 112 prop tor  11   6   7  22
 113 ben  11  10  25
 114 ben  11  12  13
 115 prop tor  11  12  13   4
 116 prop tor  11  12  13  14
 117 ben  11  12  26
 118 ben  12  13  14
 119 prop tor  12  13  14  15
 120 prop tor  12  13  14  27
 121 prop tor  13   4   5   6
 122 prop tor  13   4   5  21
 123 ben  13  12  26
 124 ben  13  14  15
 125 prop tor  13  14  15   2
 126 prop tor  13  14  15  16
 127 ben  13  14  27
 128 ben  14  15  16
 129 prop tor  14  15  16  17
 130 prop tor  14  15  16  28
 131 prop tor  15   2   3   4
 132 prop tor  15   2   3  20
 133 ben  15  14  27
 134 ben  15  16  17
 135 prop tor  15  16  17  18
 136 prop tor  15  16  17  29
 137 ben  15  16  28
 138 ben  16  17  18
 139 prop tor  16  17  18   1
 140 prop tor  16  17  18  30
 141 ben  16  17  29
 142 ben  17  16  28
 143 ben  17  18  30
 144 prop tor  18   1   2   3
 145 prop tor  18   1   2  15
 146 ben  18   1  19
 147 ben  18  17  29
 148 prop tor  19   1   2   3
 149 prop tor  19   1   2  15
 150 prop tor  19   1  18  17
 151 prop tor  19   1  18  30
 152 prop tor  20   3   4   5
 153 prop tor  20   3   4  13
 154 prop tor  21   5   6   7
 155 prop tor  21   5   6  11
 156 prop tor  22   7   8   9
 157 prop tor  22   7   8  23
 158 prop tor  23   8   9  10
 159 prop tor  23   8   9  24
 160 prop tor  24   9  10  11
 161 prop tor  24   9  10  25
 162 prop tor  25  10  11   6
 163 prop tor  25  10  11  12
 164 prop tor  26  12  13   4
 165 prop tor  26  12  13  14
 166 prop tor  27  14  15   2
 167 prop tor  27  14  15  16
 168 prop tor  28  16  17  18
 169 prop tor  28  16  17  29
 170 prop tor  29  17  18   1
 171 prop tor  29  17  18  30
 nber bend=              54
 nber lin bend=           0
 nber prop tor=          84
 nber impr tor=           0
 nber tot redund int=         171
 Eigenvalues of G in red int coords
    Gval -0.00000000 -0.00000000 -0.00000000 -0.00000000 -0.00000000 -0.00000000 -0.00000000 -0.00000000
    Gval -0.00000000 -0.00000000 -0.00000000 -0.00000000 -0.00000000 -0.00000000 -0.00000000 -0.00000000
    Gval -0.00000000 -0.00000000 -0.00000000 -0.00000000 -0.00000000 -0.00000000 -0.00000000 -0.00000000
    Gval -0.00000000 -0.00000000 -0.00000000 -0.00000000 -0.00000000 -0.00000000 -0.00000000 -0.00000000
    Gval -0.00000000 -0.00000000 -0.00000000 -0.00000000 -0.00000000 -0.00000000 -0.00000000 -0.00000000
    Gval -0.00000000 -0.00000000 -0.00000000 -0.00000000 -0.00000000 -0.00000000 -0.00000000 -0.00000000
    Gval -0.00000000  0.00000000  0.00000000  0.00000000  0.00000000  0.00000000  0.00000000  0.00000000
    Gval  0.00000000  0.00000000  0.00000000  0.00000000  0.00000000  0.00000000  0.00000000  0.00000000
    Gval  0.00000000  0.00000000  0.00000000  0.00000000  0.00000000  0.00000000  0.00000000  0.00000000
    Gval  0.00000000  0.00000000  0.00000000  0.00000000  0.00000000  0.00000000  0.00000000  0.00000000
    Gval  0.00000000  0.00000000  0.00000000  0.00000000  0.00000000  0.00000000  0.00000000  0.00000375
    Gval  0.00000606  0.00001330  0.00001763  0.00002275  0.00003491  0.00003954  0.00004139  0.00004287
    Gval  0.00004573  0.00004929  0.00006125  0.00006270  0.00006726  0.00007186  0.00008167  0.00009168
    Gval  0.00009981  0.00010282  0.00010294  0.00011888  0.00013061  0.00013982  0.00015864  0.00017170
    Gval  0.00017316  0.00020376  0.00023244  0.00028382  0.00029100  0.00029531  0.00033056  0.00037679
    Gval  0.00038123  0.00038747  0.00039687  0.00041378  0.00041601  0.00043293  0.00048298  0.00059310
    Gval  0.00059311  0.00059683  0.00059690  0.00060835  0.00061326  0.00062210  0.00062690  0.00063674
    Gval  0.00064832  0.00065596  0.00065826  0.00072031  0.00078675  0.00079180  0.00088722  0.00100133
    Gval  0.00105037  0.00105090  0.00111189  0.00111198  0.00111294  0.00112122  0.00112653  0.00112678
    Gval  0.00116172  0.00116178  0.00117003  0.00117003  0.00165712  0.00177076  0.00177086  0.00188184
    Gval  0.00200410  0.00255825  0.00259519  0.00285901  0.00297542  0.00321678  0.00330012  0.00354792
    Gval  0.00359240  0.00400193  0.00400385
  3.747674412625572E-006  3.747674412625572E-006
  6.057600306710884E-006  3.747674412625572E-006
  1.329834434078295E-005  3.747674412625572E-006
  1.762900189550031E-005  3.747674412625572E-006
  2.274569402763681E-005  3.747674412625572E-006
  3.490728544774432E-005  3.747674412625572E-006
  3.953638590630448E-005  3.747674412625572E-006
  4.138659248603317E-005  3.747674412625572E-006
  4.286511398977358E-005  3.747674412625572E-006
  4.572923477283099E-005  3.747674412625572E-006
  4.929084997457548E-005  3.747674412625572E-006
  6.125243532926147E-005  3.747674412625572E-006
  6.270105003670316E-005  3.747674412625572E-006
  6.726074543949212E-005  3.747674412625572E-006
  7.186065209690458E-005  3.747674412625572E-006
  8.166704532747667E-005  3.747674412625572E-006
  9.168057513039256E-005  3.747674412625572E-006
  9.980585807087149E-005  3.747674412625572E-006
  1.028190072630510E-004  3.747674412625572E-006
  1.029360281867943E-004  3.747674412625572E-006
  1.188835455566111E-004  3.747674412625572E-006
  1.306118772313308E-004  3.747674412625572E-006
  1.398217002544585E-004  3.747674412625572E-006
  1.586394938089029E-004  3.747674412625572E-006
  1.716995943901278E-004  3.747674412625572E-006
  1.731591086460345E-004  3.747674412625572E-006
  2.037648087114415E-004  3.747674412625572E-006
  2.324366160970782E-004  3.747674412625572E-006
  2.838151550539664E-004  3.747674412625572E-006
  2.910015107434058E-004  3.747674412625572E-006
  2.953108312698832E-004  3.747674412625572E-006
  3.305580565396013E-004  3.747674412625572E-006
  3.767944582691261E-004  3.747674412625572E-006
  3.812288868691334E-004  3.747674412625572E-006
  3.874654098791016E-004  3.747674412625572E-006
  3.968693876867405E-004  3.747674412625572E-006
  4.137777293865773E-004  3.747674412625572E-006
  4.160134062723807E-004  3.747674412625572E-006
  4.329287241797022E-004  3.747674412625572E-006
  4.829819631730000E-004  3.747674412625572E-006
  5.930968706268707E-004  3.747674412625572E-006
  5.931072281310756E-004  3.747674412625572E-006
  5.968300009915549E-004  3.747674412625572E-006
  5.968950187835243E-004  3.747674412625572E-006
  6.083522326756753E-004  3.747674412625572E-006
  6.132576671206606E-004  3.747674412625572E-006
  6.220955118806826E-004  3.747674412625572E-006
  6.268954732658920E-004  3.747674412625572E-006
  6.367399221378039E-004  3.747674412625572E-006
  6.483229976180866E-004  3.747674412625572E-006
  6.559567143460628E-004  3.747674412625572E-006
  6.582647869847401E-004  3.747674412625572E-006
  7.203077916206651E-004  3.747674412625572E-006
  7.867504770650474E-004  3.747674412625572E-006
  7.918024649408379E-004  3.747674412625572E-006
  8.872159271175619E-004  3.747674412625572E-006
  1.001325314422607E-003  3.747674412625572E-006
  1.050373472145779E-003  3.747674412625572E-006
  1.050904291224843E-003  3.747674412625572E-006
  1.111886892503904E-003  3.747674412625572E-006
  1.111983795771421E-003  3.747674412625572E-006
  1.112940996097746E-003  3.747674412625572E-006
  1.121221236702196E-003  3.747674412625572E-006
  1.126526483533067E-003  3.747674412625572E-006
  1.126782623920673E-003  3.747674412625572E-006
  1.161723433485111E-003  3.747674412625572E-006
  1.161775745562835E-003  3.747674412625572E-006
  1.170031879225752E-003  3.747674412625572E-006
  1.170031938408418E-003  3.747674412625572E-006
  1.657115101066898E-003  3.747674412625572E-006
  1.770758791403803E-003  3.747674412625572E-006
  1.770855593054598E-003  3.747674412625572E-006
  1.881840559692859E-003  3.747674412625572E-006
  2.004104706769413E-003  3.747674412625572E-006
  2.558253111923142E-003  3.747674412625572E-006
  2.595187490112763E-003  3.747674412625572E-006
  2.859013760619385E-003  3.747674412625572E-006
  2.975415825190231E-003  3.747674412625572E-006
  3.216777258340179E-003  3.747674412625572E-006
  3.300124863107293E-003  3.747674412625572E-006
  3.547921746059054E-003  3.747674412625572E-006
  3.592399135326534E-003  3.747674412625572E-006
  4.001927081016397E-003  3.747674412625572E-006
  4.003854276531506E-003  3.747674412625572E-006
 cut=1d-8, nber non-redundant internal coords=          84
 Check on Eigenvals of non-red overlap matrix:
  0.00000375  0.00000606  0.00001330  0.00001763  0.00002275  0.00003491  0.00003954  0.00004139
  0.00004287  0.00004573  0.00004929  0.00006125  0.00006270  0.00006726  0.00007186  0.00008167
  0.00009168  0.00009981  0.00010282  0.00010294  0.00011888  0.00013061  0.00013982  0.00015864
  0.00017170  0.00017316  0.00020376  0.00023244  0.00028382  0.00029100  0.00029531  0.00033056
  0.00037679  0.00038123  0.00038747  0.00039687  0.00041378  0.00041601  0.00043293  0.00048298
  0.00059310  0.00059311  0.00059683  0.00059690  0.00060835  0.00061326  0.00062210  0.00062690
  0.00063674  0.00064832  0.00065596  0.00065826  0.00072031  0.00078675  0.00079180  0.00088722
  0.00100133  0.00105037  0.00105090  0.00111189  0.00111198  0.00111294  0.00112122  0.00112653
  0.00112678  0.00116172  0.00116178  0.00117003  0.00117003  0.00165712  0.00177076  0.00177086
  0.00188184  0.00200410  0.00255825  0.00259519  0.00285901  0.00297542  0.00321678  0.00330012
  0.00354792  0.00359240  0.00400193  0.00400385
 Checking for correct frequencies
 recalc frequencies=
    -0.0   -0.0   -0.0   -0.0    0.0    0.0   55.0   89.4  149.3  163.0
   191.2  270.8  304.9  317.7  317.8  382.0  448.2  472.3  476.4  482.2
   505.1  519.3  562.7  567.2  618.3  634.6  645.0  733.8  744.2  757.3
   757.4  762.8  768.7  777.3  788.2  841.5  853.0  862.0  867.8  889.9
   910.6  913.7  914.8  945.3  971.1  972.5  995.4  995.5 1020.5 1022.5
  1147.4 1149.7 1151.6 1186.0 1189.1 1204.4 1223.4 1224.3 1291.2 1298.9
  1315.6 1318.3 1359.7 1368.2 1411.9 1417.9 1424.2 1432.4 1479.6 1481.7
  1501.5 1557.6 1578.1 1583.5 1608.9 1648.7 1663.1 1677.3 3153.5 3155.3
  3155.8 3157.4 3158.6 3158.7 3162.2 3163.3 3175.1 3175.2 3187.0 3187.2
 recalc symmetries=
     B3g    B1u    B2g    B2u    B3u    B1g    B3u    Au     B1g    B1u
     B2g    B3u    B3g    Au     Ag     B1g    B1u    B3u    B1g    B3u
     B3g    B2g    B2u    Au     B1u    Ag     B2u    B2g    B1g    B2u
     B3u    Ag     Au     B2g    B3g    Au     B2g    B1g    Ag     Au 
     B3g    B3u    B2g    B1u    B1g    B3u    Au     B2g    B2u    Ag 
     B2u    B1u    B3g    Ag     B2u    B3g    B1u    Ag     B3g    B1u
     B1u    B2u    B3g    B2u    Ag     B1u    Ag     B2u    Ag     B3g
     B2u    Ag     Ag     B2u    B1u    B3g    B3g    B1u    B3g    B2u
     B1u    B3g    Ag     B1u    B2u    Ag     B3g    B1u    B2u    Ag 
 recalc freqs check OK
 Zero-point lengths:
 10.0000 10.0000 10.0000 10.0000 10.0000 10.0000 33.4183 26.2266 20.2896 19.4165
 17.9269 15.0649 14.1965 13.9080 13.9055 12.6849 11.7103 11.4072 11.3582 11.2902
 11.0307 10.8788 10.4514 10.4092  9.9698  9.8411  9.7614  9.1518  9.0878  9.0088
  9.0081  8.9759  8.9416  8.8920  8.8306  8.5459  8.4884  8.4440  8.4158  8.3106
  8.2153  8.2013  8.1964  8.0634  7.9556  7.9498  7.8579  7.8571  7.7606  7.7529
  7.3189  7.3114  7.3056  7.1987  7.1893  7.1436  7.0879  7.0853  6.8992  6.8787
  6.8350  6.8280  6.7231  6.7022  6.5978  6.5838  6.5693  6.5503  6.4450  6.4405
  6.3978  6.2816  6.2406  6.2299  6.1805  6.1056  6.0792  6.0533  4.4147  4.4134
  4.4131  4.4119  4.4111  4.4111  4.4086  4.4078  4.3997  4.3996  4.3914  4.3913
 highest evec of mol 1
  0.0000  0.0067 -0.0644
  0.0000  0.0026  0.0003
  0.0000 -0.0001 -0.0066
  0.0000  0.0000  0.0003
  0.0000  0.0001 -0.0066
  0.0000 -0.0026  0.0003
  0.0000 -0.0067 -0.0644
  0.0000  0.1175 -0.0651
  0.0000  0.1175  0.0651
  0.0000 -0.0067  0.0644
  0.0000 -0.0026 -0.0003
  0.0000  0.0001  0.0066
  0.0000  0.0000 -0.0003
  0.0000 -0.0001  0.0066
  0.0000  0.0026 -0.0003
  0.0000  0.0067  0.0644
  0.0000 -0.1175  0.0651
  0.0000 -0.1175 -0.0651
  0.0000 -0.0017  0.2007
  0.0000 -0.0006  0.0217
  0.0000  0.0006  0.0217
  0.0000  0.0017  0.2007
  0.0000 -0.3766  0.2125
  0.0000 -0.3766 -0.2125
  0.0000  0.0017 -0.2007
  0.0000  0.0006 -0.0217
  0.0000 -0.0006 -0.0217
  0.0000 -0.0017 -0.2007
  0.0000  0.3766 -0.2125
  0.0000  0.3766  0.2125
 generating redundant internal coords
         300        3600          30
 Adding extra bonds for z output only
           6           6           6           6           6           6
           6           6           6           6           6           6
           6           6           6           6           6           6
           1           1           1           1           1           1
           1           1           1           1           1           1
 search for int coords
   1 str   2   1   1.433
   2 str   3   2   1.390
   3 str   4   3   1.408
   4 str   5   4   1.408
   5 str   6   5   1.390
   6 str   7   6   1.433
   7 str   8   7   1.363
   8 str   9   8   1.429
   9 str  10   9   1.363
  10 str  11   6   1.450
  11 str  11  10   1.433
  12 str  12  11   1.390
  13 str  13   4   1.450
  14 str  13  12   1.408
  15 str  14  13   1.408
  16 str  15   2   1.450
  17 str  15  14   1.390
  18 str  16  15   1.433
  19 str  17  16   1.363
  20 str  18   1   1.363
  21 str  18  17   1.429
  22 str  19   1   1.085
  23 str  20   3   1.086
  24 str  21   5   1.086
  25 str  22   7   1.085
  26 str  23   8   1.084
  27 str  24   9   1.084
  28 str  25  10   1.085
  29 str  26  12   1.086
  30 str  27  14   1.086
  31 str  28  16   1.085
  32 str  29  17   1.084
  33 str  30  18   1.084
 nber stretches=          33
  34 ben   1   2   3
  35 prop tor   1   2   3   4
  36 prop tor   1   2   3  20
  37 ben   1   2  15
  38 prop tor   1   2  15  14
  39 prop tor   1   2  15  16
  40 ben   1  18  17
  41 ben   1  18  30
  42 ben   2   1  18
  43 prop tor   2   1  18  17
  44 prop tor   2   1  18  30
  45 ben   2   1  19
  46 ben   2   3   4
  47 prop tor   2   3   4   5
  48 prop tor   2   3   4  13
  49 ben   2   3  20
  50 ben   2  15  14
  51 ben   2  15  16
  52 prop tor   2  15  16  17
  53 prop tor   2  15  16  28
  54 ben   3   2  15
  55 prop tor   3   2  15  14
  56 prop tor   3   2  15  16
  57 ben   3   4   5
  58 prop tor   3   4   5   6
  59 prop tor   3   4   5  21
  60 ben   3   4  13
  61 prop tor   3   4  13  12
  62 prop tor   3   4  13  14
  63 ben   4   3  20
  64 ben   4   5   6
  65 prop tor   4   5   6   7
  66 prop tor   4   5   6  11
  67 ben   4   5  21
  68 ben   4  13  12
  69 ben   4  13  14
  70 prop tor   4  13  14  15
  71 prop tor   4  13  14  27
  72 ben   5   4  13
  73 prop tor   5   4  13  12
  74 prop tor   5   4  13  14
  75 ben   5   6   7
  76 prop tor   5   6   7   8
  77 prop tor   5   6   7  22
  78 ben   5   6  11
  79 prop tor   5   6  11  10
  80 prop tor   5   6  11  12
  81 ben   6   5  21
  82 ben   6   7   8
  83 prop tor   6   7   8   9
  84 prop tor   6   7   8  23
  85 ben   6   7  22
  86 ben   6  11  10
  87 ben   6  11  12
  88 prop tor   6  11  12  13
  89 prop tor   6  11  12  26
  90 ben   7   6  11
  91 prop tor   7   6  11  10
  92 prop tor   7   6  11  12
  93 ben   7   8   9
  94 prop tor   7   8   9  10
  95 prop tor   7   8   9  24
  96 ben   7   8  23
  97 ben   8   7  22
  98 ben   8   9  10
  99 prop tor   8   9  10  11
 100 prop tor   8   9  10  25
 101 ben   8   9  24
 102 ben   9   8  23
 103 ben   9  10  11
 104 prop tor   9  10  11   6
 105 prop tor   9  10  11  12
 106 ben   9  10  25
 107 ben  10   9  24
 108 ben  10  11  12
 109 prop tor  10  11  12  13
 110 prop tor  10  11  12  26
 111 prop tor  11   6   7   8
 112 prop tor  11   6   7  22
 113 ben  11  10  25
 114 ben  11  12  13
 115 prop tor  11  12  13   4
 116 prop tor  11  12  13  14
 117 ben  11  12  26
 118 ben  12  13  14
 119 prop tor  12  13  14  15
 120 prop tor  12  13  14  27
 121 prop tor  13   4   5   6
 122 prop tor  13   4   5  21
 123 ben  13  12  26
 124 ben  13  14  15
 125 prop tor  13  14  15   2
 126 prop tor  13  14  15  16
 127 ben  13  14  27
 128 ben  14  15  16
 129 prop tor  14  15  16  17
 130 prop tor  14  15  16  28
 131 prop tor  15   2   3   4
 132 prop tor  15   2   3  20
 133 ben  15  14  27
 134 ben  15  16  17
 135 prop tor  15  16  17  18
 136 prop tor  15  16  17  29
 137 ben  15  16  28
 138 ben  16  17  18
 139 prop tor  16  17  18   1
 140 prop tor  16  17  18  30
 141 ben  16  17  29
 142 ben  17  16  28
 143 ben  17  18  30
 144 prop tor  18   1   2   3
 145 prop tor  18   1   2  15
 146 ben  18   1  19
 147 ben  18  17  29
 148 prop tor  19   1   2   3
 149 prop tor  19   1   2  15
 150 prop tor  19   1  18  17
 151 prop tor  19   1  18  30
 152 prop tor  20   3   4   5
 153 prop tor  20   3   4  13
 154 prop tor  21   5   6   7
 155 prop tor  21   5   6  11
 156 prop tor  22   7   8   9
 157 prop tor  22   7   8  23
 158 prop tor  23   8   9  10
 159 prop tor  23   8   9  24
 160 prop tor  24   9  10  11
 161 prop tor  24   9  10  25
 162 prop tor  25  10  11   6
 163 prop tor  25  10  11  12
 164 prop tor  26  12  13   4
 165 prop tor  26  12  13  14
 166 prop tor  27  14  15   2
 167 prop tor  27  14  15  16
 168 prop tor  28  16  17  18
 169 prop tor  28  16  17  29
 170 prop tor  29  17  18   1
 171 prop tor  29  17  18  30
 nber bend=              54
 nber lin bend=           0
 nber prop tor=          84
 nber impr tor=           0
 nber tot redund int=         171
 Reading file: 
 ./Benzene_Conj_3_C0S1.log                                                      
                                          
  Entering Gaussian System, Link 0=g16                                          
  
 Gaussian format, type: g94, g98, g03= F F F
  #P Geom=AllCheck Guess=TCheck SCRF=Check GenChk RB3LYP TD(FC,Read)/6-3    
 energy type= TD      
 Original G94 input coords:
  6  3.708840 -1.398339  0.000000
  6  2.473399 -0.720993  0.000000
  6  1.231728 -1.398453  0.000000
  6  0.000000 -0.725192  0.000000
  6 -1.231728 -1.398453  0.000000
  6 -2.473399 -0.720993  0.000000
  6 -3.708840 -1.398339  0.000000
  6 -4.915557 -0.698860  0.000000
  6 -4.915557  0.698860  0.000000
  6 -3.708840  1.398339  0.000000
  6 -2.473399  0.720993  0.000000
  6 -1.231728  1.398453  0.000000
  6  0.000000  0.725192  0.000000
  6  1.231728  1.398453  0.000000
  6  2.473399  0.720993  0.000000
  6  3.708840  1.398339  0.000000
  6  4.915557  0.698860  0.000000
  6  4.915557 -0.698860  0.000000
  1  3.711546 -2.483210  0.000000
  1  1.233263 -2.484438  0.000000
  1 -1.233263 -2.484438  0.000000
  1 -3.711546 -2.483210  0.000000
  1 -5.853708 -1.241839  0.000000
  1 -5.853708  1.241839  0.000000
  1 -3.711546  2.483210  0.000000
  1 -1.233263  2.484438  0.000000
  1  1.233263  2.484438  0.000000
  1  3.711546  2.483210  0.000000
  1  5.853708  1.241839  0.000000
  1  5.853708 -1.241839  0.000000
 nber atoms=          30
 Original standard coords:
  6  0.000000  3.708840  1.398339
  6  0.000000  2.473399  0.720993
  6  0.000000  1.231728  1.398453
  6  0.000000  0.000000  0.725192
  6  0.000000 -1.231728  1.398453
  6  0.000000 -2.473399  0.720993
  6  0.000000 -3.708840  1.398339
  6  0.000000 -4.915557  0.698860
  6  0.000000 -4.915557 -0.698860
  6  0.000000 -3.708840 -1.398339
  6  0.000000 -2.473399 -0.720993
  6  0.000000 -1.231728 -1.398453
  6  0.000000  0.000000 -0.725192
  6  0.000000  1.231728 -1.398453
  6  0.000000  2.473399 -0.720993
  6  0.000000  3.708840 -1.398339
  6  0.000000  4.915557 -0.698860
  6  0.000000  4.915557  0.698860
  1  0.000000  3.711546  2.483210
  1  0.000000  1.233263  2.484438
  1  0.000000 -1.233263  2.484438
  1  0.000000 -3.711546  2.483210
  1  0.000000 -5.853708  1.241839
  1  0.000000 -5.853708 -1.241839
  1  0.000000 -3.711546 -2.483210
  1  0.000000 -1.233263 -2.484438
  1  0.000000  1.233263 -2.484438
  1  0.000000  3.711546 -2.483210
  1  0.000000  5.853708 -1.241839
  1  0.000000  5.853708  1.241839
  Total Energy, E(TD-HF/TD-DFT) =  -693.238940761                               
  
          32          49 "  -693.238940761"
After scan for Atom:   Atom  AN      X      Y      Z        X      Y      Z        X      Y      Z   
After scan for Atom:   Atom  AN      X      Y      Z        X      Y      Z        X      Y      Z   
After scan for Atom:   Atom  AN      X      Y      Z        X      Y      Z        X      Y      Z   
After scan for Atom:   Atom  AN      X      Y      Z        X      Y      Z        X      Y      Z   
After scan for Atom:   Atom  AN      X      Y      Z        X      Y      Z        X      Y      Z   
After scan for Atom:   Atom  AN      X      Y      Z        X      Y      Z        X      Y      Z   
After scan for Atom:   Atom  AN      X      Y      Z        X      Y      Z        X      Y      Z   
After scan for Atom:   Atom  AN      X      Y      Z        X      Y      Z        X      Y      Z   
After scan for Atom:   Atom  AN      X      Y      Z        X      Y      Z        X      Y      Z   
After scan for Atom:   Atom  AN      X      Y      Z        X      Y      Z        X      Y      Z   
After scan for Atom:   Atom  AN      X      Y      Z        X      Y      Z        X      Y      Z   
After scan for Atom:   Atom  AN      X      Y      Z        X      Y      Z        X      Y      Z   
After scan for Atom:   Atom  AN      X      Y      Z        X      Y      Z        X      Y      Z   
After scan for Atom:   Atom  AN      X      Y      Z        X      Y      Z        X      Y      Z   
After scan for Atom:   Atom  AN      X      Y      Z        X      Y      Z        X      Y      Z   
After scan for Atom:   Atom  AN      X      Y      Z        X      Y      Z        X      Y      Z   
After scan for Atom:   Atom  AN      X      Y      Z        X      Y      Z        X      Y      Z   
After scan for Atom:   Atom  AN      X      Y      Z        X      Y      Z        X      Y      Z   
After scan for Atom:   Atom  AN      X      Y      Z        X      Y      Z        X      Y      Z   
After scan for Atom:   Atom  AN      X      Y      Z        X      Y      Z        X      Y      Z   
After scan for Atom:   Atom  AN      X      Y      Z        X      Y      Z        X      Y      Z   
After scan for Atom:   Atom  AN      X      Y      Z        X      Y      Z        X      Y      Z   
After scan for Atom:   Atom  AN      X      Y      Z        X      Y      Z        X      Y      Z   
After scan for Atom:   Atom  AN      X      Y      Z        X      Y      Z        X      Y      Z   
After scan for Atom:   Atom  AN      X      Y      Z        X      Y      Z        X      Y      Z   
After scan for Atom:   Atom  AN      X      Y      Z        X      Y      Z        X      Y      Z   
After scan for Atom:   Atom  AN      X      Y      Z        X      Y      Z        X      Y      Z   
After scan for Atom:   Atom  AN      X      Y      Z        X      Y      Z        X      Y      Z   
 g94    frequencies=
     0.0    0.0    0.0    0.0    0.0    0.0   53.8   82.6  144.5  161.5
   186.7  275.7  299.9  302.8  315.2  348.2  420.5  444.2  447.5  457.4
   500.3  529.6  544.7  554.7  620.3  624.5  624.7  677.0  727.0  727.4
   735.1  737.5  755.0  762.6  791.2  792.1  833.1  834.8  865.9  873.1
   875.5  883.5  901.1  922.7  924.2  940.4  962.1  962.2 1048.8 1049.5
  1123.3 1127.6 1175.3 1182.8 1205.3 1205.4 1235.0 1237.1 1283.9 1293.2
  1294.0 1307.9 1330.3 1352.9 1386.9 1424.0 1426.9 1440.0 1471.5 1471.8
  1512.1 1537.2 1541.0 1572.1 1581.1 1585.2 1616.9 1627.4 3151.8 3153.0
  3155.1 3157.0 3159.8 3160.0 3164.3 3164.8 3176.0 3176.1 3189.6 3190.0
 g94    symmetries=
                                                B3     AU     B1     B1
      B2     B3     AU     B3     AG     B1     B3     B1     B3     B1
      B3     B2     AU     B2     B2     AG     B1     B3     B3     B3
      B3     B3     AG     B2     B3     AU     ?A     ?A     AU     ?B
      AG     ?B     B3     B1     B3     B1     AU     B2     B2     AG
      B1     B3     B2     AG     B2     B3     B1     AG     B3     B2
      B1     B1     B3     B2     AG     B1     AG     B2     B3     AG
      B2     AG     B1     B2     AG     B3     B3     B1     B3     B2
      B1     AG     B3     B1     B2     AG     B3     B1     B2     AG
 atomic masses:
 12.0000 12.0000 12.0000 12.0000 12.0000 12.0000 12.0000 12.0000 12.0000 12.0000
 12.0000 12.0000 12.0000 12.0000 12.0000 12.0000 12.0000 12.0000  1.0078  1.0078
  1.0078  1.0078  1.0078  1.0078  1.0078  1.0078  1.0078  1.0078  1.0078  1.0078
 looking for force constants in 
 ./Benzene_Conj_3_C0S1.fchk                                                     
  
 Cartesian Force Constants                  R   N=        4095                  
  
 n3=          90        4095
 g94-fc frequencies=
   -14.0   -5.2   -2.7   -0.0   -0.0    0.0   53.8   82.6  144.5  161.5
   186.7  275.7  299.9  302.8  315.2  348.2  420.5  444.2  447.5  457.4
   500.3  529.7  544.7  554.7  620.4  624.5  624.7  677.0  727.0  727.4
   735.2  737.5  755.0  762.6  791.2  792.1  833.1  834.8  865.9  873.1
   875.5  883.6  901.1  922.8  924.2  940.4  962.1  962.2 1048.9 1049.5
  1123.3 1127.6 1175.3 1182.8 1205.3 1205.5 1235.1 1237.1 1283.9 1293.2
  1294.0 1308.0 1330.3 1352.9 1386.9 1424.0 1427.0 1440.0 1471.6 1471.8
  1512.2 1537.2 1541.0 1572.1 1581.2 1585.2 1617.0 1627.5 3151.9 3153.0
  3155.2 3157.1 3159.8 3160.1 3164.4 3164.9 3176.1 3176.2 3189.6 3190.1
 at 99999: n3=          90
 symm operator            1 :  T  nop=           1
 symm operator            2 :  T  nop=           2
 symm operator            3 :  T  nop=           3
 symm operator            4 :  T  nop=           4
 symm operator            5 :  T  nop=           5
 symm operator            6 :  T  nop=           6
 symm operator            7 :  T  nop=           7
 The point group of the molecule is D2H
 enforcing symm op           1  jsymt=          -1          -1           1
 enforcing symm op           2  jsymt=          -1           1          -1
 enforcing symm op           3  jsymt=           1          -1          -1
 enforcing symm op           4  jsymt=          -1          -1          -1
 enforcing symm op           5  jsymt=           1           1          -1
 enforcing symm op           6  jsymt=           1          -1           1
 enforcing symm op           7  jsymt=          -1           1           1
 cartesian coord symmetries:
 Ag :   15 Au :    7 B1g:    7 B1u:   15 B2g:    8 B2u:   15 B3g:   15 B3u:    8
 Symmetry rotation matrix:
   1.00000   0.00000   0.00000
   0.00000   1.00000   0.00000
   0.00000   0.00000   1.00000

 Projecting out zero-frequency components
 generating redundant internal coords
         300        3600          30
 search for int coords
   1 str   2   1   1.409
   2 str   3   2   1.414
   3 str   4   3   1.404
   4 str   5   4   1.404
   5 str   6   5   1.414
   6 str   7   6   1.409
   7 str   8   7   1.395
   8 str   9   8   1.398
   9 str  10   9   1.395
  10 str  11   6   1.442
  11 str  11  10   1.409
  12 str  12  11   1.414
  13 str  13   4   1.450
  14 str  13  12   1.404
  15 str  14  13   1.404
  16 str  15   2   1.442
  17 str  15  14   1.414
  18 str  16  15   1.409
  19 str  17  16   1.395
  20 str  18   1   1.395
  21 str  18  17   1.398
  22 str  19   1   1.085
  23 str  20   3   1.086
  24 str  21   5   1.086
  25 str  22   7   1.085
  26 str  23   8   1.084
  27 str  24   9   1.084
  28 str  25  10   1.085
  29 str  26  12   1.086
  30 str  27  14   1.086
  31 str  28  16   1.085
  32 str  29  17   1.084
  33 str  30  18   1.084
 nber stretches=          33
  34 ben   1   2   3
  35 prop tor   1   2   3   4
  36 prop tor   1   2   3  20
  37 ben   1   2  15
  38 prop tor   1   2  15  14
  39 prop tor   1   2  15  16
  40 ben   1  18  17
  41 ben   1  18  30
  42 ben   2   1  18
  43 prop tor   2   1  18  17
  44 prop tor   2   1  18  30
  45 ben   2   1  19
  46 ben   2   3   4
  47 prop tor   2   3   4   5
  48 prop tor   2   3   4  13
  49 ben   2   3  20
  50 ben   2  15  14
  51 ben   2  15  16
  52 prop tor   2  15  16  17
  53 prop tor   2  15  16  28
  54 ben   3   2  15
  55 prop tor   3   2  15  14
  56 prop tor   3   2  15  16
  57 ben   3   4   5
  58 prop tor   3   4   5   6
  59 prop tor   3   4   5  21
  60 ben   3   4  13
  61 prop tor   3   4  13  12
  62 prop tor   3   4  13  14
  63 ben   4   3  20
  64 ben   4   5   6
  65 prop tor   4   5   6   7
  66 prop tor   4   5   6  11
  67 ben   4   5  21
  68 ben   4  13  12
  69 ben   4  13  14
  70 prop tor   4  13  14  15
  71 prop tor   4  13  14  27
  72 ben   5   4  13
  73 prop tor   5   4  13  12
  74 prop tor   5   4  13  14
  75 ben   5   6   7
  76 prop tor   5   6   7   8
  77 prop tor   5   6   7  22
  78 ben   5   6  11
  79 prop tor   5   6  11  10
  80 prop tor   5   6  11  12
  81 ben   6   5  21
  82 ben   6   7   8
  83 prop tor   6   7   8   9
  84 prop tor   6   7   8  23
  85 ben   6   7  22
  86 ben   6  11  10
  87 ben   6  11  12
  88 prop tor   6  11  12  13
  89 prop tor   6  11  12  26
  90 ben   7   6  11
  91 prop tor   7   6  11  10
  92 prop tor   7   6  11  12
  93 ben   7   8   9
  94 prop tor   7   8   9  10
  95 prop tor   7   8   9  24
  96 ben   7   8  23
  97 ben   8   7  22
  98 ben   8   9  10
  99 prop tor   8   9  10  11
 100 prop tor   8   9  10  25
 101 ben   8   9  24
 102 ben   9   8  23
 103 ben   9  10  11
 104 prop tor   9  10  11   6
 105 prop tor   9  10  11  12
 106 ben   9  10  25
 107 ben  10   9  24
 108 ben  10  11  12
 109 prop tor  10  11  12  13
 110 prop tor  10  11  12  26
 111 prop tor  11   6   7   8
 112 prop tor  11   6   7  22
 113 ben  11  10  25
 114 ben  11  12  13
 115 prop tor  11  12  13   4
 116 prop tor  11  12  13  14
 117 ben  11  12  26
 118 ben  12  13  14
 119 prop tor  12  13  14  15
 120 prop tor  12  13  14  27
 121 prop tor  13   4   5   6
 122 prop tor  13   4   5  21
 123 ben  13  12  26
 124 ben  13  14  15
 125 prop tor  13  14  15   2
 126 prop tor  13  14  15  16
 127 ben  13  14  27
 128 ben  14  15  16
 129 prop tor  14  15  16  17
 130 prop tor  14  15  16  28
 131 prop tor  15   2   3   4
 132 prop tor  15   2   3  20
 133 ben  15  14  27
 134 ben  15  16  17
 135 prop tor  15  16  17  18
 136 prop tor  15  16  17  29
 137 ben  15  16  28
 138 ben  16  17  18
 139 prop tor  16  17  18   1
 140 prop tor  16  17  18  30
 141 ben  16  17  29
 142 ben  17  16  28
 143 ben  17  18  30
 144 prop tor  18   1   2   3
 145 prop tor  18   1   2  15
 146 ben  18   1  19
 147 ben  18  17  29
 148 prop tor  19   1   2   3
 149 prop tor  19   1   2  15
 150 prop tor  19   1  18  17
 151 prop tor  19   1  18  30
 152 prop tor  20   3   4   5
 153 prop tor  20   3   4  13
 154 prop tor  21   5   6   7
 155 prop tor  21   5   6  11
 156 prop tor  22   7   8   9
 157 prop tor  22   7   8  23
 158 prop tor  23   8   9  10
 159 prop tor  23   8   9  24
 160 prop tor  24   9  10  11
 161 prop tor  24   9  10  25
 162 prop tor  25  10  11   6
 163 prop tor  25  10  11  12
 164 prop tor  26  12  13   4
 165 prop tor  26  12  13  14
 166 prop tor  27  14  15   2
 167 prop tor  27  14  15  16
 168 prop tor  28  16  17  18
 169 prop tor  28  16  17  29
 170 prop tor  29  17  18   1
 171 prop tor  29  17  18  30
 nber bend=              54
 nber lin bend=           0
 nber prop tor=          84
 nber impr tor=           0
 nber tot redund int=         171
 Eigenvalues of G in red int coords
    Gval -0.00000000 -0.00000000 -0.00000000 -0.00000000 -0.00000000 -0.00000000 -0.00000000 -0.00000000
    Gval -0.00000000 -0.00000000 -0.00000000 -0.00000000 -0.00000000 -0.00000000 -0.00000000 -0.00000000
    Gval -0.00000000 -0.00000000 -0.00000000 -0.00000000 -0.00000000 -0.00000000 -0.00000000 -0.00000000
    Gval -0.00000000 -0.00000000 -0.00000000 -0.00000000 -0.00000000 -0.00000000 -0.00000000 -0.00000000
    Gval -0.00000000 -0.00000000 -0.00000000 -0.00000000 -0.00000000 -0.00000000 -0.00000000 -0.00000000
    Gval -0.00000000 -0.00000000 -0.00000000 -0.00000000 -0.00000000 -0.00000000 -0.00000000  0.00000000
    Gval  0.00000000  0.00000000  0.00000000  0.00000000  0.00000000  0.00000000  0.00000000  0.00000000
    Gval  0.00000000  0.00000000  0.00000000  0.00000000  0.00000000  0.00000000  0.00000000  0.00000000
    Gval  0.00000000  0.00000000  0.00000000  0.00000000  0.00000000  0.00000000  0.00000000  0.00000000
    Gval  0.00000000  0.00000000  0.00000000  0.00000000  0.00000000  0.00000000  0.00000000  0.00000000
    Gval  0.00000000  0.00000000  0.00000000  0.00000000  0.00000000  0.00000000  0.00000000  0.00000373
    Gval  0.00000604  0.00001337  0.00001760  0.00002271  0.00003517  0.00003969  0.00004129  0.00004314
    Gval  0.00004560  0.00004938  0.00006081  0.00006300  0.00006757  0.00007168  0.00008160  0.00009152
    Gval  0.00009896  0.00010276  0.00010295  0.00011839  0.00013021  0.00014012  0.00015678  0.00017283
    Gval  0.00017508  0.00020100  0.00023336  0.00028199  0.00028435  0.00029657  0.00032860  0.00037632
    Gval  0.00038432  0.00039103  0.00040309  0.00041188  0.00041366  0.00043230  0.00048134  0.00059313
    Gval  0.00059314  0.00059696  0.00059703  0.00060815  0.00061327  0.00062134  0.00062667  0.00063601
    Gval  0.00064771  0.00065593  0.00065809  0.00072223  0.00078614  0.00080081  0.00086709  0.00098218
    Gval  0.00105175  0.00105233  0.00110869  0.00111279  0.00111551  0.00112028  0.00112399  0.00112466
    Gval  0.00115713  0.00115721  0.00117094  0.00117094  0.00167032  0.00177889  0.00177972  0.00188818
    Gval  0.00200449  0.00256662  0.00261412  0.00283322  0.00296426  0.00319643  0.00328763  0.00352840
    Gval  0.00357380  0.00401402  0.00401569
  3.726290859843423E-006  3.726290859843423E-006
  6.039633791627578E-006  3.726290859843423E-006
  1.336947595032017E-005  3.726290859843423E-006
  1.759946252175481E-005  3.726290859843423E-006
  2.270504911157591E-005  3.726290859843423E-006
  3.517252233829248E-005  3.726290859843423E-006
  3.969354590805879E-005  3.726290859843423E-006
  4.128613041519521E-005  3.726290859843423E-006
  4.314425170322875E-005  3.726290859843423E-006
  4.560387222967730E-005  3.726290859843423E-006
  4.938018916982641E-005  3.726290859843423E-006
  6.080945231805794E-005  3.726290859843423E-006
  6.300235364585250E-005  3.726290859843423E-006
  6.757137269593060E-005  3.726290859843423E-006
  7.168431437515162E-005  3.726290859843423E-006
  8.160300541383377E-005  3.726290859843423E-006
  9.152454220293683E-005  3.726290859843423E-006
  9.895887351299053E-005  3.726290859843423E-006
  1.027551125834863E-004  3.726290859843423E-006
  1.029532386074240E-004  3.726290859843423E-006
  1.183905081903120E-004  3.726290859843423E-006
  1.302079574748815E-004  3.726290859843423E-006
  1.401217426258712E-004  3.726290859843423E-006
  1.567816290724606E-004  3.726290859843423E-006
  1.728341258173184E-004  3.726290859843423E-006
  1.750772928753969E-004  3.726290859843423E-006
  2.009969285342166E-004  3.726290859843423E-006
  2.333568097672947E-004  3.726290859843423E-006
  2.819855982998266E-004  3.726290859843423E-006
  2.843466387913135E-004  3.726290859843423E-006
  2.965701745150671E-004  3.726290859843423E-006
  3.286011563285191E-004  3.726290859843423E-006
  3.763226882403031E-004  3.726290859843423E-006
  3.843244849456762E-004  3.726290859843423E-006
  3.910316699937749E-004  3.726290859843423E-006
  4.030923125232272E-004  3.726290859843423E-006
  4.118802597627712E-004  3.726290859843423E-006
  4.136586736282522E-004  3.726290859843423E-006
  4.322960441131159E-004  3.726290859843423E-006
  4.813363803118937E-004  3.726290859843423E-006
  5.931339089704586E-004  3.726290859843423E-006
  5.931444797700697E-004  3.726290859843423E-006
  5.969586309391786E-004  3.726290859843423E-006
  5.970274305854578E-004  3.726290859843423E-006
  6.081537070268962E-004  3.726290859843423E-006
  6.132717751410599E-004  3.726290859843423E-006
  6.213419594125034E-004  3.726290859843423E-006
  6.266668995335042E-004  3.726290859843423E-006
  6.360070178810122E-004  3.726290859843423E-006
  6.477124671001710E-004  3.726290859843423E-006
  6.559281382912127E-004  3.726290859843423E-006
  6.580902577260426E-004  3.726290859843423E-006
  7.222251188272632E-004  3.726290859843423E-006
  7.861376225902026E-004  3.726290859843423E-006
  8.008083885920819E-004  3.726290859843423E-006
  8.670854063481659E-004  3.726290859843423E-006
  9.821845222558194E-004  3.726290859843423E-006
  1.051749307294133E-003  3.726290859843423E-006
  1.052328430795475E-003  3.726290859843423E-006
  1.108688851669111E-003  3.726290859843423E-006
  1.112789382140241E-003  3.726290859843423E-006
  1.115514368869394E-003  3.726290859843423E-006
  1.120284781471810E-003  3.726290859843423E-006
  1.123985009787947E-003  3.726290859843423E-006
  1.124657549218871E-003  3.726290859843423E-006
  1.157134832389107E-003  3.726290859843423E-006
  1.157209773834296E-003  3.726290859843423E-006
  1.170940606747667E-003  3.726290859843423E-006
  1.170940674095663E-003  3.726290859843423E-006
  1.670318545584572E-003  3.726290859843423E-006
  1.778888314804370E-003  3.726290859843423E-006
  1.779719056507455E-003  3.726290859843423E-006
  1.888181665297793E-003  3.726290859843423E-006
  2.004486855623673E-003  3.726290859843423E-006
  2.566619525472804E-003  3.726290859843423E-006
  2.614123756918221E-003  3.726290859843423E-006
  2.833215467901115E-003  3.726290859843423E-006
  2.964264011190085E-003  3.726290859843423E-006
  3.196432286375541E-003  3.726290859843423E-006
  3.287626811489052E-003  3.726290859843423E-006
  3.528399354570349E-003  3.726290859843423E-006
  3.573802073611016E-003  3.726290859843423E-006
  4.014018329906604E-003  3.726290859843423E-006
  4.015689402036436E-003  3.726290859843423E-006
 cut=1d-8, nber non-redundant internal coords=          84
 Check on Eigenvals of non-red overlap matrix:
  0.00000373  0.00000604  0.00001337  0.00001760  0.00002271  0.00003517  0.00003969  0.00004129
  0.00004314  0.00004560  0.00004938  0.00006081  0.00006300  0.00006757  0.00007168  0.00008160
  0.00009152  0.00009896  0.00010276  0.00010295  0.00011839  0.00013021  0.00014012  0.00015678
  0.00017283  0.00017508  0.00020100  0.00023336  0.00028199  0.00028435  0.00029657  0.00032860
  0.00037632  0.00038432  0.00039103  0.00040309  0.00041188  0.00041366  0.00043230  0.00048134
  0.00059313  0.00059314  0.00059696  0.00059703  0.00060815  0.00061327  0.00062134  0.00062667
  0.00063601  0.00064771  0.00065593  0.00065809  0.00072223  0.00078614  0.00080081  0.00086709
  0.00098218  0.00105175  0.00105233  0.00110869  0.00111279  0.00111551  0.00112028  0.00112399
  0.00112466  0.00115713  0.00115721  0.00117094  0.00117094  0.00167032  0.00177889  0.00177972
  0.00188818  0.00200449  0.00256662  0.00261412  0.00283322  0.00296426  0.00319643  0.00328763
  0.00352840  0.00357380  0.00401402  0.00401569
 Checking for correct frequencies
 recalc frequencies=
    -0.0   -0.0   -0.0   -0.0    0.0    0.0   53.8   82.6  144.5  161.5
   186.7  275.7  299.9  302.8  315.2  348.2  420.5  444.2  447.5  457.4
   500.3  529.7  544.7  554.7  620.4  624.5  624.7  677.0  727.1  727.4
   735.2  737.5  755.0  762.6  791.2  792.1  833.1  834.8  865.9  873.1
   875.5  883.6  901.1  922.8  924.2  940.4  962.1  962.2 1048.9 1049.5
  1123.3 1127.6 1175.3 1182.8 1205.3 1205.5 1235.1 1237.1 1283.9 1293.2
  1294.0 1308.0 1330.3 1352.9 1386.9 1424.0 1427.0 1440.0 1471.6 1471.8
  1512.2 1537.2 1541.0 1572.1 1581.2 1585.2 1617.0 1627.5 3151.9 3153.0
  3155.2 3157.1 3159.8 3160.1 3164.4 3164.9 3176.1 3176.2 3189.6 3190.1
 recalc symmetries=
     B1u    B2g    B3u    B1g    B2u    B3g    B3u    Au     B1g    B1u
     B2g    B3u    Au     B3g    Ag     B1g    B3u    B1u    B3u    B1g
     B3g    B2g    Au     B2u    B2u    Ag     B1u    B2g    Au     B2g
     B1g    B3u    Ag     B2u    B3g    Au     B2g    B1g    Au     B3u
     Ag     B2g    B3g    B1g    B3u    B1u    Au     B2g    B2u    Ag 
     B1u    B3g    B2u    Ag     B2u    B3g    B1u    Ag     B3g    B2u
     B1u    B1u    B3g    B2u    Ag     B1u    Ag     B2u    B3g    Ag 
     B2u    Ag     B1u    B2u    Ag     B3g    B3g    B1u    B3g    B2u
     B1u    Ag     B3g    B1u    B2u    Ag     B3g    B1u    B2u    Ag 
 recalc freqs check OK
 Zero-point lengths:
 10.0000 10.0000 10.0000 10.0000 10.0000 10.0000 33.7915 27.2841 20.6259 19.5101
 18.1415 14.9301 14.3152 14.2461 13.9637 13.2859 12.0894 11.7623 11.7188 11.5912
 11.0837 10.7720 10.6226 10.5262  9.9535  9.9206  9.9189  9.5279  9.1942  9.1922
  9.1434  9.1290  9.0223  8.9774  8.8137  8.8085  8.5892  8.5803  8.4248  8.3899
  8.3786  8.3403  8.2586  8.1611  8.1546  8.0840  7.9925  7.9921  7.6549  7.6526
  7.3968  7.3827  7.2312  7.2084  7.1408  7.1403  7.0543  7.0484  6.9188  6.8938
  6.8917  6.8548  6.7971  6.7400  6.6569  6.5696  6.5628  6.5331  6.4626  6.4620
  6.3752  6.3231  6.3153  6.2525  6.2346  6.2266  6.1651  6.1453  4.4158  4.4150
  4.4135  4.4122  4.4103  4.4101  4.4071  4.4067  4.3989  4.3989  4.3896  4.3893
 highest evec of mol 2
  0.0000  0.0051 -0.0554
  0.0000  0.0021  0.0006
  0.0000  0.0002 -0.0053
  0.0000  0.0000  0.0002
  0.0000 -0.0002 -0.0053
  0.0000 -0.0021  0.0006
  0.0000 -0.0051 -0.0554
  0.0000  0.1180 -0.0716
  0.0000  0.1180  0.0716
  0.0000 -0.0051  0.0554
  0.0000 -0.0021 -0.0006
  0.0000 -0.0002  0.0053
  0.0000  0.0000 -0.0002
  0.0000  0.0002  0.0053
  0.0000  0.0021 -0.0006
  0.0000  0.0051  0.0554
  0.0000 -0.1180  0.0716
  0.0000 -0.1180 -0.0716
  0.0000 -0.0014  0.1742
  0.0000 -0.0005  0.0170
  0.0000  0.0005  0.0170
  0.0000  0.0014  0.1742
  0.0000 -0.3837  0.2234
  0.0000 -0.3837 -0.2234
  0.0000  0.0014 -0.1742
  0.0000  0.0005 -0.0170
  0.0000 -0.0005 -0.0170
  0.0000 -0.0014 -0.1742
  0.0000  0.3837 -0.2234
  0.0000  0.3837  0.2234
 Enter nber and list of atoms to keep of mol #2
 keep list:          30           1           2           3           4
           5           6           7           8           9          10
          11          12          13          14          15          16
          17          18          19          20          21          22
          23          24          25          26          27          28
          29          30
 reordering atoms
           1  -3.70884000000000     
           2  -2.47339900000000     
           3  -1.23172800000000     
           4  0.000000000000000E+000
           5   1.23172800000000     
           6   2.47339900000000     
           7   3.70884000000000     
           8   4.91555700000000     
           9   4.91555700000000     
          10   3.70884000000000     
          11   2.47339900000000     
          12   1.23172800000000     
          13  0.000000000000000E+000
          14  -1.23172800000000     
          15  -2.47339900000000     
          16  -3.70884000000000     
          17  -4.91555700000000     
          18  -4.91555700000000     
          19  -3.71154600000000     
          20  -1.23326300000000     
          21   1.23326300000000     
          22   3.71154600000000     
          23   5.85370800000000     
          24   5.85370800000000     
          25   3.71154600000000     
          26   1.23326300000000     
          27  -1.23326300000000     
          28  -3.71154600000000     
          29  -5.85370800000000     
          30  -5.85370800000000     
           1           1
           2           2
           3           3
           4           4
           5           5
           6           6
           7           7
           8           8
           9           9
          10          10
          11          11
          12          12
          13          13
          14          14
          15          15
          16          16
          17          17
          18          18
          19          19
          20          20
          21          21
          22          22
          23          23
          24          24
          25          25
          26          26
          27          27
          28          28
          29          29
          30          30
 initial cartes coords mol 1
   6   0.00000   1.40713   3.70628
   6   0.00000   0.72486   2.44617
   6   0.00000   1.40443   1.23364
   6   0.00000   0.72501   0.00000
   6   0.00000   1.40443  -1.23364
   6   0.00000   0.72486  -2.44617
   6   0.00000   1.40713  -3.70628
   6   0.00000   0.71462  -4.88078
   6   0.00000  -0.71462  -4.88078
   6   0.00000  -1.40713  -3.70628
   6   0.00000  -0.72486  -2.44617
   6   0.00000  -1.40443  -1.23364
   6   0.00000  -0.72501   0.00000
   6   0.00000  -1.40443   1.23364
   6   0.00000  -0.72486   2.44617
   6   0.00000  -1.40713   3.70628
   6   0.00000  -0.71462   4.88078
   6   0.00000   0.71462   4.88078
   1   0.00000   2.49216   3.70610
   1   0.00000   2.49016   1.23408
   1   0.00000   2.49016  -1.23408
   1   0.00000   2.49216  -3.70610
   1   0.00000   1.24518  -5.82629
   1   0.00000  -1.24518  -5.82629
   1   0.00000  -2.49216  -3.70610
   1   0.00000  -2.49016  -1.23408
   1   0.00000  -2.49016   1.23408
   1   0.00000  -2.49216   3.70610
   1   0.00000  -1.24518   5.82629
   1   0.00000   1.24518   5.82629
 initial cartes coords mol 2
   6   0.00000   1.39834  -3.70884
   6   0.00000   0.72099  -2.47340
   6   0.00000   1.39845  -1.23173
   6   0.00000   0.72519   0.00000
   6   0.00000   1.39845   1.23173
   6   0.00000   0.72099   2.47340
   6   0.00000   1.39834   3.70884
   6   0.00000   0.69886   4.91556
   6   0.00000  -0.69886   4.91556
   6   0.00000  -1.39834   3.70884
   6   0.00000  -0.72099   2.47340
   6   0.00000  -1.39845   1.23173
   6   0.00000  -0.72519   0.00000
   6   0.00000  -1.39845  -1.23173
   6   0.00000  -0.72099  -2.47340
   6   0.00000  -1.39834  -3.70884
   6   0.00000  -0.69886  -4.91556
   6   0.00000   0.69886  -4.91556
   1   0.00000   2.48321  -3.71155
   1   0.00000   2.48444  -1.23326
   1   0.00000   2.48444   1.23326
   1   0.00000   2.48321   3.71155
   1   0.00000   1.24184   5.85371
   1   0.00000  -1.24184   5.85371
   1   0.00000  -2.48321   3.71155
   1   0.00000  -2.48444   1.23326
   1   0.00000  -2.48444  -1.23326
   1   0.00000  -2.48321  -3.71155
   1   0.00000  -1.24184  -5.85371
   1   0.00000   1.24184  -5.85371
 loop 1 0
 mod cartes coords mol 2
   6   0.00000   1.39834  -3.70884
   6   0.00000   0.72099  -2.47340
   6   0.00000   1.39845  -1.23173
   6   0.00000   0.72519   0.00000
   6   0.00000   1.39845   1.23173
   6   0.00000   0.72099   2.47340
   6   0.00000   1.39834   3.70884
   6   0.00000   0.69886   4.91556
   6   0.00000  -0.69886   4.91556
   6   0.00000  -1.39834   3.70884
   6   0.00000  -0.72099   2.47340
   6   0.00000  -1.39845   1.23173
   6   0.00000  -0.72519   0.00000
   6   0.00000  -1.39845  -1.23173
   6   0.00000  -0.72099  -2.47340
   6   0.00000  -1.39834  -3.70884
   6   0.00000  -0.69886  -4.91556
   6   0.00000   0.69886  -4.91556
   1   0.00000   2.48321  -3.71155
   1   0.00000   2.48444  -1.23326
   1   0.00000   2.48444   1.23326
   1   0.00000   2.48321   3.71155
   1   0.00000   1.24184   5.85371
   1   0.00000  -1.24184   5.85371
   1   0.00000  -2.48321   3.71155
   1   0.00000  -2.48444   1.23326
   1   0.00000  -2.48444  -1.23326
   1   0.00000  -2.48321  -3.71155
   1   0.00000  -1.24184  -5.85371
   1   0.00000   1.24184  -5.85371
 read in order, maxerr= 11.68 for atom  23
 loop 1 1
 mod cartes coords mol 2
   6   0.00000   1.39834  -3.70884
   6   0.00000   0.72099  -2.47340
   6   0.00000   1.39845  -1.23173
   6   0.00000   0.72519   0.00000
   6   0.00000   1.39845   1.23173
   6   0.00000   0.72099   2.47340
   6   0.00000   1.39834   3.70884
   6   0.00000   0.69886   4.91556
   6   0.00000  -0.69886   4.91556
   6   0.00000  -1.39834   3.70884
   6   0.00000  -0.72099   2.47340
   6   0.00000  -1.39845   1.23173
   6   0.00000  -0.72519   0.00000
   6   0.00000  -1.39845  -1.23173
   6   0.00000  -0.72099  -2.47340
   6   0.00000  -1.39834  -3.70884
   6   0.00000  -0.69886  -4.91556
   6   0.00000   0.69886  -4.91556
   1   0.00000   2.48321  -3.71155
   1   0.00000   2.48444  -1.23326
   1   0.00000   2.48444   1.23326
   1   0.00000   2.48321   3.71155
   1   0.00000   1.24184   5.85371
   1   0.00000  -1.24184   5.85371
   1   0.00000  -2.48321   3.71155
   1   0.00000  -2.48444   1.23326
   1   0.00000  -2.48444  -1.23326
   1   0.00000  -2.48321  -3.71155
   1   0.00000  -1.24184  -5.85371
   1   0.00000   1.24184  -5.85371
 read in order, maxerr= 11.68 for atom  23
 loop 1 2
 mod cartes coords mol 2
   6   0.00000  -1.39834  -3.70884
   6   0.00000  -0.72099  -2.47340
   6   0.00000  -1.39845  -1.23173
   6   0.00000  -0.72519   0.00000
   6   0.00000  -1.39845   1.23173
   6   0.00000  -0.72099   2.47340
   6   0.00000  -1.39834   3.70884
   6   0.00000  -0.69886   4.91556
   6   0.00000   0.69886   4.91556
   6   0.00000   1.39834   3.70884
   6   0.00000   0.72099   2.47340
   6   0.00000   1.39845   1.23173
   6   0.00000   0.72519   0.00000
   6   0.00000   1.39845  -1.23173
   6   0.00000   0.72099  -2.47340
   6   0.00000   1.39834  -3.70884
   6   0.00000   0.69886  -4.91556
   6   0.00000  -0.69886  -4.91556
   1   0.00000  -2.48321  -3.71155
   1   0.00000  -2.48444  -1.23326
   1   0.00000  -2.48444   1.23326
   1   0.00000  -2.48321   3.71155
   1   0.00000  -1.24184   5.85371
   1   0.00000   1.24184   5.85371
   1   0.00000   2.48321   3.71155
   1   0.00000   2.48444   1.23326
   1   0.00000   2.48444  -1.23326
   1   0.00000   2.48321  -3.71155
   1   0.00000   1.24184  -5.85371
   1   0.00000  -1.24184  -5.85371
 read in order, maxerr= 11.94 for atom  23
 loop 1 3
 mod cartes coords mol 2
   6   0.00000  -1.39834  -3.70884
   6   0.00000  -0.72099  -2.47340
   6   0.00000  -1.39845  -1.23173
   6   0.00000  -0.72519   0.00000
   6   0.00000  -1.39845   1.23173
   6   0.00000  -0.72099   2.47340
   6   0.00000  -1.39834   3.70884
   6   0.00000  -0.69886   4.91556
   6   0.00000   0.69886   4.91556
   6   0.00000   1.39834   3.70884
   6   0.00000   0.72099   2.47340
   6   0.00000   1.39845   1.23173
   6   0.00000   0.72519   0.00000
   6   0.00000   1.39845  -1.23173
   6   0.00000   0.72099  -2.47340
   6   0.00000   1.39834  -3.70884
   6   0.00000   0.69886  -4.91556
   6   0.00000  -0.69886  -4.91556
   1   0.00000  -2.48321  -3.71155
   1   0.00000  -2.48444  -1.23326
   1   0.00000  -2.48444   1.23326
   1   0.00000  -2.48321   3.71155
   1   0.00000  -1.24184   5.85371
   1   0.00000   1.24184   5.85371
   1   0.00000   2.48321   3.71155
   1   0.00000   2.48444   1.23326
   1   0.00000   2.48444  -1.23326
   1   0.00000   2.48321  -3.71155
   1   0.00000   1.24184  -5.85371
   1   0.00000  -1.24184  -5.85371
 read in order, maxerr= 11.94 for atom  23
 loop 1 4
 mod cartes coords mol 2
   6   0.00000   1.39834   3.70884
   6   0.00000   0.72099   2.47340
   6   0.00000   1.39845   1.23173
   6   0.00000   0.72519   0.00000
   6   0.00000   1.39845  -1.23173
   6   0.00000   0.72099  -2.47340
   6   0.00000   1.39834  -3.70884
   6   0.00000   0.69886  -4.91556
   6   0.00000  -0.69886  -4.91556
   6   0.00000  -1.39834  -3.70884
   6   0.00000  -0.72099  -2.47340
   6   0.00000  -1.39845  -1.23173
   6   0.00000  -0.72519   0.00000
   6   0.00000  -1.39845   1.23173
   6   0.00000  -0.72099   2.47340
   6   0.00000  -1.39834   3.70884
   6   0.00000  -0.69886   4.91556
   6   0.00000   0.69886   4.91556
   1   0.00000   2.48321   3.71155
   1   0.00000   2.48444   1.23326
   1   0.00000   2.48444  -1.23326
   1   0.00000   2.48321  -3.71155
   1   0.00000   1.24184  -5.85371
   1   0.00000  -1.24184  -5.85371
   1   0.00000  -2.48321  -3.71155
   1   0.00000  -2.48444  -1.23326
   1   0.00000  -2.48444   1.23326
   1   0.00000  -2.48321   3.71155
   1   0.00000  -1.24184   5.85371
   1   0.00000   1.24184   5.85371
 read in order, maxerr=  0.04 for atom   8
 final axis swaps:           1           1          -1
 final xyz swap pattern=           1
 reorder list:
   1   2   3   4   5   6   7   8   9  10  11  12  13  14  15  16  17  18  19  20
  21  22  23  24  25  26  27  28  29  30
 axis signs=           1           1          -1
  6     0.000000  1.398339  3.708840     0.000000  1.407130  3.706285
  6     0.000000  0.720993  2.473399     0.000000  0.724861  2.446171
  6     0.000000  1.398453  1.231728     0.000000  1.404427  1.233638
  6     0.000000  0.725192  0.000000     0.000000  0.725013  0.000000
  6     0.000000  1.398453 -1.231728     0.000000  1.404427 -1.233638
  6     0.000000  0.720993 -2.473399     0.000000  0.724861 -2.446171
  6     0.000000  1.398339 -3.708840     0.000000  1.407130 -3.706285
  6     0.000000  0.698860 -4.915557     0.000000  0.714616 -4.880778
  6     0.000000 -0.698860 -4.915557     0.000000 -0.714616 -4.880778
  6     0.000000 -1.398339 -3.708840     0.000000 -1.407130 -3.706285
  6     0.000000 -0.720993 -2.473399     0.000000 -0.724861 -2.446171
  6     0.000000 -1.398453 -1.231728     0.000000 -1.404427 -1.233638
  6     0.000000 -0.725192  0.000000     0.000000 -0.725013  0.000000
  6     0.000000 -1.398453  1.231728     0.000000 -1.404427  1.233638
  6     0.000000 -0.720993  2.473399     0.000000 -0.724861  2.446171
  6     0.000000 -1.398339  3.708840     0.000000 -1.407130  3.706285
  6     0.000000 -0.698860  4.915557     0.000000 -0.714616  4.880778
  6     0.000000  0.698860  4.915557     0.000000  0.714616  4.880778
  1     0.000000  2.483210  3.711546     0.000000  2.492156  3.706104
  1     0.000000  2.484438  1.233263     0.000000  2.490157  1.234076
  1     0.000000  2.484438 -1.233263     0.000000  2.490157 -1.234076
  1     0.000000  2.483210 -3.711546     0.000000  2.492156 -3.706104
  1     0.000000  1.241839 -5.853708     0.000000  1.245181 -5.826294
  1     0.000000 -1.241839 -5.853708     0.000000 -1.245181 -5.826294
  1     0.000000 -2.483210 -3.711546     0.000000 -2.492156 -3.706104
  1     0.000000 -2.484438 -1.233263     0.000000 -2.490157 -1.234076
  1     0.000000 -2.484438  1.233263     0.000000 -2.490157  1.234076
  1     0.000000 -2.483210  3.711546     0.000000 -2.492156  3.706104
  1     0.000000 -1.241839  5.853708     0.000000 -1.245181  5.826294
  1     0.000000  1.241839  5.853708     0.000000  1.245181  5.826294
 generating redundant internal coords
         300        3600          30
 Adding extra bonds for z output only
           6           6           6           6           6           6
           6           6           6           6           6           6
           6           6           6           6           6           6
           1           1           1           1           1           1
           1           1           1           1           1           1
 search for int coords
   1 str   2   1   1.409
   2 str   3   2   1.414
   3 str   4   3   1.404
   4 str   5   4   1.404
   5 str   6   5   1.414
   6 str   7   6   1.409
   7 str   8   7   1.395
   8 str   9   8   1.398
   9 str  10   9   1.395
  10 str  11   6   1.442
  11 str  11  10   1.409
  12 str  12  11   1.414
  13 str  13   4   1.450
  14 str  13  12   1.404
  15 str  14  13   1.404
  16 str  15   2   1.442
  17 str  15  14   1.414
  18 str  16  15   1.409
  19 str  17  16   1.395
  20 str  18   1   1.395
  21 str  18  17   1.398
  22 str  19   1   1.085
  23 str  20   3   1.086
  24 str  21   5   1.086
  25 str  22   7   1.085
  26 str  23   8   1.084
  27 str  24   9   1.084
  28 str  25  10   1.085
  29 str  26  12   1.086
  30 str  27  14   1.086
  31 str  28  16   1.085
  32 str  29  17   1.084
  33 str  30  18   1.084
 nber stretches=          33
  34 ben   1   2   3
  35 prop tor   1   2   3   4
  36 prop tor   1   2   3  20
  37 ben   1   2  15
  38 prop tor   1   2  15  14
  39 prop tor   1   2  15  16
  40 ben   1  18  17
  41 ben   1  18  30
  42 ben   2   1  18
  43 prop tor   2   1  18  17
  44 prop tor   2   1  18  30
  45 ben   2   1  19
  46 ben   2   3   4
  47 prop tor   2   3   4   5
  48 prop tor   2   3   4  13
  49 ben   2   3  20
  50 ben   2  15  14
  51 ben   2  15  16
  52 prop tor   2  15  16  17
  53 prop tor   2  15  16  28
  54 ben   3   2  15
  55 prop tor   3   2  15  14
  56 prop tor   3   2  15  16
  57 ben   3   4   5
  58 prop tor   3   4   5   6
  59 prop tor   3   4   5  21
  60 ben   3   4  13
  61 prop tor   3   4  13  12
  62 prop tor   3   4  13  14
  63 ben   4   3  20
  64 ben   4   5   6
  65 prop tor   4   5   6   7
  66 prop tor   4   5   6  11
  67 ben   4   5  21
  68 ben   4  13  12
  69 ben   4  13  14
  70 prop tor   4  13  14  15
  71 prop tor   4  13  14  27
  72 ben   5   4  13
  73 prop tor   5   4  13  12
  74 prop tor   5   4  13  14
  75 ben   5   6   7
  76 prop tor   5   6   7   8
  77 prop tor   5   6   7  22
  78 ben   5   6  11
  79 prop tor   5   6  11  10
  80 prop tor   5   6  11  12
  81 ben   6   5  21
  82 ben   6   7   8
  83 prop tor   6   7   8   9
  84 prop tor   6   7   8  23
  85 ben   6   7  22
  86 ben   6  11  10
  87 ben   6  11  12
  88 prop tor   6  11  12  13
  89 prop tor   6  11  12  26
  90 ben   7   6  11
  91 prop tor   7   6  11  10
  92 prop tor   7   6  11  12
  93 ben   7   8   9
  94 prop tor   7   8   9  10
  95 prop tor   7   8   9  24
  96 ben   7   8  23
  97 ben   8   7  22
  98 ben   8   9  10
  99 prop tor   8   9  10  11
 100 prop tor   8   9  10  25
 101 ben   8   9  24
 102 ben   9   8  23
 103 ben   9  10  11
 104 prop tor   9  10  11   6
 105 prop tor   9  10  11  12
 106 ben   9  10  25
 107 ben  10   9  24
 108 ben  10  11  12
 109 prop tor  10  11  12  13
 110 prop tor  10  11  12  26
 111 prop tor  11   6   7   8
 112 prop tor  11   6   7  22
 113 ben  11  10  25
 114 ben  11  12  13
 115 prop tor  11  12  13   4
 116 prop tor  11  12  13  14
 117 ben  11  12  26
 118 ben  12  13  14
 119 prop tor  12  13  14  15
 120 prop tor  12  13  14  27
 121 prop tor  13   4   5   6
 122 prop tor  13   4   5  21
 123 ben  13  12  26
 124 ben  13  14  15
 125 prop tor  13  14  15   2
 126 prop tor  13  14  15  16
 127 ben  13  14  27
 128 ben  14  15  16
 129 prop tor  14  15  16  17
 130 prop tor  14  15  16  28
 131 prop tor  15   2   3   4
 132 prop tor  15   2   3  20
 133 ben  15  14  27
 134 ben  15  16  17
 135 prop tor  15  16  17  18
 136 prop tor  15  16  17  29
 137 ben  15  16  28
 138 ben  16  17  18
 139 prop tor  16  17  18   1
 140 prop tor  16  17  18  30
 141 ben  16  17  29
 142 ben  17  16  28
 143 ben  17  18  30
 144 prop tor  18   1   2   3
 145 prop tor  18   1   2  15
 146 ben  18   1  19
 147 ben  18  17  29
 148 prop tor  19   1   2   3
 149 prop tor  19   1   2  15
 150 prop tor  19   1  18  17
 151 prop tor  19   1  18  30
 152 prop tor  20   3   4   5
 153 prop tor  20   3   4  13
 154 prop tor  21   5   6   7
 155 prop tor  21   5   6  11
 156 prop tor  22   7   8   9
 157 prop tor  22   7   8  23
 158 prop tor  23   8   9  10
 159 prop tor  23   8   9  24
 160 prop tor  24   9  10  11
 161 prop tor  24   9  10  25
 162 prop tor  25  10  11   6
 163 prop tor  25  10  11  12
 164 prop tor  26  12  13   4
 165 prop tor  26  12  13  14
 166 prop tor  27  14  15   2
 167 prop tor  27  14  15  16
 168 prop tor  28  16  17  18
 169 prop tor  28  16  17  29
 170 prop tor  29  17  18   1
 171 prop tor  29  17  18  30
 nber bend=              54
 nber lin bend=           0
 nber prop tor=          84
 nber impr tor=           0
 nber tot redund int=         171
 generating redundant internal coords
         300        3600          30
 search for int coords
   1 str   2   1   1.433
   2 str   3   2   1.390
   3 str   4   3   1.408
   4 str   5   4   1.408
   5 str   6   5   1.390
   6 str   7   6   1.433
   7 str   8   7   1.363
   8 str   9   8   1.429
   9 str  10   9   1.363
  10 str  11   6   1.450
  11 str  11  10   1.433
  12 str  12  11   1.390
  13 str  13   4   1.450
  14 str  13  12   1.408
  15 str  14  13   1.408
  16 str  15   2   1.450
  17 str  15  14   1.390
  18 str  16  15   1.433
  19 str  17  16   1.363
  20 str  18   1   1.363
  21 str  18  17   1.429
  22 str  19   1   1.085
  23 str  20   3   1.086
  24 str  21   5   1.086
  25 str  22   7   1.085
  26 str  23   8   1.084
  27 str  24   9   1.084
  28 str  25  10   1.085
  29 str  26  12   1.086
  30 str  27  14   1.086
  31 str  28  16   1.085
  32 str  29  17   1.084
  33 str  30  18   1.084
 nber stretches=          33
  34 ben   1   2   3
  35 prop tor   1   2   3   4
  36 prop tor   1   2   3  20
  37 ben   1   2  15
  38 prop tor   1   2  15  14
  39 prop tor   1   2  15  16
  40 ben   1  18  17
  41 ben   1  18  30
  42 ben   2   1  18
  43 prop tor   2   1  18  17
  44 prop tor   2   1  18  30
  45 ben   2   1  19
  46 ben   2   3   4
  47 prop tor   2   3   4   5
  48 prop tor   2   3   4  13
  49 ben   2   3  20
  50 ben   2  15  14
  51 ben   2  15  16
  52 prop tor   2  15  16  17
  53 prop tor   2  15  16  28
  54 ben   3   2  15
  55 prop tor   3   2  15  14
  56 prop tor   3   2  15  16
  57 ben   3   4   5
  58 prop tor   3   4   5   6
  59 prop tor   3   4   5  21
  60 ben   3   4  13
  61 prop tor   3   4  13  12
  62 prop tor   3   4  13  14
  63 ben   4   3  20
  64 ben   4   5   6
  65 prop tor   4   5   6   7
  66 prop tor   4   5   6  11
  67 ben   4   5  21
  68 ben   4  13  12
  69 ben   4  13  14
  70 prop tor   4  13  14  15
  71 prop tor   4  13  14  27
  72 ben   5   4  13
  73 prop tor   5   4  13  12
  74 prop tor   5   4  13  14
  75 ben   5   6   7
  76 prop tor   5   6   7   8
  77 prop tor   5   6   7  22
  78 ben   5   6  11
  79 prop tor   5   6  11  10
  80 prop tor   5   6  11  12
  81 ben   6   5  21
  82 ben   6   7   8
  83 prop tor   6   7   8   9
  84 prop tor   6   7   8  23
  85 ben   6   7  22
  86 ben   6  11  10
  87 ben   6  11  12
  88 prop tor   6  11  12  13
  89 prop tor   6  11  12  26
  90 ben   7   6  11
  91 prop tor   7   6  11  10
  92 prop tor   7   6  11  12
  93 ben   7   8   9
  94 prop tor   7   8   9  10
  95 prop tor   7   8   9  24
  96 ben   7   8  23
  97 ben   8   7  22
  98 ben   8   9  10
  99 prop tor   8   9  10  11
 100 prop tor   8   9  10  25
 101 ben   8   9  24
 102 ben   9   8  23
 103 ben   9  10  11
 104 prop tor   9  10  11   6
 105 prop tor   9  10  11  12
 106 ben   9  10  25
 107 ben  10   9  24
 108 ben  10  11  12
 109 prop tor  10  11  12  13
 110 prop tor  10  11  12  26
 111 prop tor  11   6   7   8
 112 prop tor  11   6   7  22
 113 ben  11  10  25
 114 ben  11  12  13
 115 prop tor  11  12  13   4
 116 prop tor  11  12  13  14
 117 ben  11  12  26
 118 ben  12  13  14
 119 prop tor  12  13  14  15
 120 prop tor  12  13  14  27
 121 prop tor  13   4   5   6
 122 prop tor  13   4   5  21
 123 ben  13  12  26
 124 ben  13  14  15
 125 prop tor  13  14  15   2
 126 prop tor  13  14  15  16
 127 ben  13  14  27
 128 ben  14  15  16
 129 prop tor  14  15  16  17
 130 prop tor  14  15  16  28
 131 prop tor  15   2   3   4
 132 prop tor  15   2   3  20
 133 ben  15  14  27
 134 ben  15  16  17
 135 prop tor  15  16  17  18
 136 prop tor  15  16  17  29
 137 ben  15  16  28
 138 ben  16  17  18
 139 prop tor  16  17  18   1
 140 prop tor  16  17  18  30
 141 ben  16  17  29
 142 ben  17  16  28
 143 ben  17  18  30
 144 prop tor  18   1   2   3
 145 prop tor  18   1   2  15
 146 ben  18   1  19
 147 ben  18  17  29
 148 prop tor  19   1   2   3
 149 prop tor  19   1   2  15
 150 prop tor  19   1  18  17
 151 prop tor  19   1  18  30
 152 prop tor  20   3   4   5
 153 prop tor  20   3   4  13
 154 prop tor  21   5   6   7
 155 prop tor  21   5   6  11
 156 prop tor  22   7   8   9
 157 prop tor  22   7   8  23
 158 prop tor  23   8   9  10
 159 prop tor  23   8   9  24
 160 prop tor  24   9  10  11
 161 prop tor  24   9  10  25
 162 prop tor  25  10  11   6
 163 prop tor  25  10  11  12
 164 prop tor  26  12  13   4
 165 prop tor  26  12  13  14
 166 prop tor  27  14  15   2
 167 prop tor  27  14  15  16
 168 prop tor  28  16  17  18
 169 prop tor  28  16  17  29
 170 prop tor  29  17  18   1
 171 prop tor  29  17  18  30
 nber bend=              54
 nber lin bend=           0
 nber prop tor=          84
 nber impr tor=           0
 nber tot redund int=         171
 Eigenvalues of G in red int coords
    Gval -0.00000000 -0.00000000 -0.00000000 -0.00000000 -0.00000000 -0.00000000 -0.00000000 -0.00000000
    Gval -0.00000000 -0.00000000 -0.00000000 -0.00000000 -0.00000000 -0.00000000 -0.00000000 -0.00000000
    Gval -0.00000000 -0.00000000 -0.00000000 -0.00000000 -0.00000000 -0.00000000 -0.00000000 -0.00000000
    Gval -0.00000000 -0.00000000 -0.00000000 -0.00000000 -0.00000000 -0.00000000 -0.00000000 -0.00000000
    Gval -0.00000000 -0.00000000 -0.00000000 -0.00000000 -0.00000000 -0.00000000 -0.00000000 -0.00000000
    Gval -0.00000000 -0.00000000 -0.00000000 -0.00000000 -0.00000000 -0.00000000 -0.00000000 -0.00000000
    Gval -0.00000000 -0.00000000  0.00000000  0.00000000  0.00000000  0.00000000  0.00000000  0.00000000
    Gval  0.00000000  0.00000000  0.00000000  0.00000000  0.00000000  0.00000000  0.00000000  0.00000000
    Gval  0.00000000  0.00000000  0.00000000  0.00000000  0.00000000  0.00000000  0.00000000  0.00000000
    Gval  0.00000000  0.00000000  0.00000000  0.00000000  0.00000000  0.00000000  0.00000000  0.00000000
    Gval  0.00000000  0.00000000  0.00000000  0.00000000  0.00000000  0.00000000  0.00000000  0.00000375
    Gval  0.00000606  0.00001330  0.00001763  0.00002275  0.00003491  0.00003954  0.00004139  0.00004287
    Gval  0.00004573  0.00004929  0.00006125  0.00006270  0.00006726  0.00007186  0.00008167  0.00009168
    Gval  0.00009981  0.00010282  0.00010294  0.00011888  0.00013061  0.00013982  0.00015864  0.00017170
    Gval  0.00017316  0.00020376  0.00023244  0.00028382  0.00029100  0.00029531  0.00033056  0.00037679
    Gval  0.00038123  0.00038747  0.00039687  0.00041378  0.00041601  0.00043293  0.00048298  0.00059310
    Gval  0.00059311  0.00059683  0.00059690  0.00060835  0.00061326  0.00062210  0.00062690  0.00063674
    Gval  0.00064832  0.00065596  0.00065826  0.00072031  0.00078675  0.00079180  0.00088722  0.00100133
    Gval  0.00105037  0.00105090  0.00111189  0.00111198  0.00111294  0.00112122  0.00112653  0.00112678
    Gval  0.00116172  0.00116178  0.00117003  0.00117003  0.00165712  0.00177076  0.00177086  0.00188184
    Gval  0.00200410  0.00255825  0.00259519  0.00285901  0.00297542  0.00321678  0.00330012  0.00354792
    Gval  0.00359240  0.00400193  0.00400385
  3.747674412625633E-006  3.747674412625633E-006
  6.057600306710902E-006  3.747674412625633E-006
  1.329834434078353E-005  3.747674412625633E-006
  1.762900189550020E-005  3.747674412625633E-006
  2.274569402763657E-005  3.747674412625633E-006
  3.490728544774420E-005  3.747674412625633E-006
  3.953638590630453E-005  3.747674412625633E-006
  4.138659248603308E-005  3.747674412625633E-006
  4.286511398977406E-005  3.747674412625633E-006
  4.572923477283114E-005  3.747674412625633E-006
  4.929084997457537E-005  3.747674412625633E-006
  6.125243532926156E-005  3.747674412625633E-006
  6.270105003670307E-005  3.747674412625633E-006
  6.726074543949228E-005  3.747674412625633E-006
  7.186065209690446E-005  3.747674412625633E-006
  8.166704532747662E-005  3.747674412625633E-006
  9.168057513039272E-005  3.747674412625633E-006
  9.980585807087146E-005  3.747674412625633E-006
  1.028190072630511E-004  3.747674412625633E-006
  1.029360281867943E-004  3.747674412625633E-006
  1.188835455566111E-004  3.747674412625633E-006
  1.306118772313309E-004  3.747674412625633E-006
  1.398217002544588E-004  3.747674412625633E-006
  1.586394938089029E-004  3.747674412625633E-006
[...]
 nber times 1st assigned=          90           0
 Dushinsky matrix written to .out file
 modes represented=   83.9589464185301     

 Dushinsky matrix, ncs 1 in terms of ncs 2

   mode   freq    coeff     %      %tot     of    at

   7 B3u    55. -0.9998   100.0   100.9   7 B3u    54.
   8 Au     89.  0.9998   100.0   101.1   8 Au     83.
   9 B1g   149.  0.9963    99.3    99.7   9 B1g   144.
  10 B1u   163.  1.0000   100.0   100.3  10 B1u   161.
  11 B2g   191. -0.9982    99.6   100.9  11 B2g   187.
  12 B3u   271. -0.9991    99.8    97.0  12 B3u   276.
  13 B3g   305. -0.9998   100.0    99.4  14 B3g   303.
  14 Au    318. -0.9869    97.4   101.6  13 Au    300.
  15 Ag    318. -0.9998   100.0   100.3  15 Ag    315.
  16 B1g   382.  0.9948    99.0    99.7  16 B1g   348.
  17 B1u   448. -0.9998   100.0    98.3  18 B1u   444.
  18 B3u   472.  0.7963    63.4   100.1  17 B3u   421.
                 0.5967    35.6          19 B3u   448.
  19 B1g   476.  0.9961    99.2   100.1  20 B1g   457.
  20 B3u   482.  0.6030    36.4   101.1  17 B3u   421.
                -0.7894    62.3          19 B3u   448.
  21 B3g   505. -0.9993    99.9   101.9  21 B3g   500.
  22 B2g   519.  0.9871    97.4    97.9  22 B2g   530.
  23 B2u   563. -0.9967    99.3    99.9  24 B2u   555.
  24 Au    567. -0.9765    95.3    98.0  23 Au    545.
  25 B1u   618.  0.9995    99.9   101.9  27 B1u   625.
  26 Ag    635.  0.9985    99.7    99.2  26 Ag    624.
  27 B2u   645.  0.9949    99.0    99.2  25 B2u   620.
  28 B2g   734.  0.8505    72.3   100.5  28 B2g   677.
                -0.5127    26.3          30 B2g   727.
  29 B1g   744. -0.9834    96.7   100.6  31 B1g   735.
  30 B2u   757. -0.9925    98.5    99.3  34 B2u   763.
  31 B3u   757. -0.9836    96.7   100.9  32 B3u   737.
  32 Ag    763.  0.9981    99.6    98.8  33 Ag    755.
  33 Au    769.  0.9786    95.8   100.2  29 Au    727.
  34 B2g   777. -0.4863    23.6   100.0  28 B2g   677.
                -0.8298    68.9          30 B2g   727.
  35 B3g   788.  0.9977    99.6   100.3  35 B3g   791.
  36 Au    842.  0.8619    74.3   100.4  36 Au    792.
                 0.4367    19.1          39 Au    866.
  37 B2g   853.  0.9397    88.3   101.0  37 B2g   833.
  38 B1g   862.  0.9881    97.6    99.4  38 B1g   835.
  39 Ag    868. -0.9970    99.4    99.8  41 Ag    875.
  40 Au    890. -0.4568    20.9    99.9  36 Au    792.
                 0.8811    77.6          39 Au    866.
  41 B3g   911. -0.9981    99.6    99.2  43 B3g   901.
  42 B3u   914. -0.9961    99.2    99.5  40 B3u   873.
  43 B2g   915. -0.9168    84.0    99.7  42 B2g   884.
  44 B1u   945. -0.9991    99.8    99.9  46 B1u   940.
  45 B1g   971.  0.9913    98.3    99.2  44 B1g   923.
  46 B3u   972.  0.9921    98.4    99.2  45 B3u   924.
  47 Au    995.  0.9848    97.0   100.0  47 Au    962.
  48 B2g   996.  0.9845    96.9   100.0  48 B2g   962.
  49 B2u  1020. -0.9580    91.8   100.2  49 B2u  1049.
  50 Ag   1022.  0.9753    95.1   100.3  50 Ag   1049.
  51 B2u  1147.  0.4902    24.0   100.2  53 B2u  1175.
                -0.8165    66.7          55 B2u  1205.
  52 B1u  1150. -0.9746    95.0    99.9  51 B1u  1123.
  53 B3g  1152. -0.9589    92.0    99.6  52 B3g  1128.
  54 Ag   1186. -0.9837    96.8    99.9  54 Ag   1183.
  55 B2u  1189.  0.8283    68.6   100.0  53 B2u  1175.
                 0.5005    25.1          55 B2u  1205.
  56 B3g  1204. -0.9600    92.2   100.1  56 B3g  1205.
  57 B1u  1223.  0.9530    90.8   100.1  57 B1u  1235.
  58 Ag   1224.  0.9711    94.3   100.1  58 Ag   1237.
  59 B3g  1291.  0.8965    80.4    99.8  59 B3g  1284.
                 0.4091    16.7          63 B3g  1330.
  60 B1u  1299.  0.7297    53.2   100.2  61 B1u  1294.
                 0.6761    45.7          62 B1u  1308.
  61 B1u  1316.  0.6340    40.2    99.5  61 B1u  1294.
                -0.7235    52.3          62 B1u  1308.
  62 B2u  1318.  0.8024    64.4   100.1  60 B2u  1293.
                -0.5727    32.8          64 B2u  1353.
  63 B3g  1360.  0.3784    14.3    99.7  59 B3g  1284.
                -0.8987    80.8          63 B3g  1330.
  64 B2u  1368. -0.9233    85.3   100.2  68 B2u  1440.
  65 Ag   1412.  0.9773    95.5   100.0  67 Ag   1427.
  66 B1u  1418. -0.9865    97.3    99.6  66 B1u  1424.
  67 Ag   1424. -0.7951    63.2    99.5  65 Ag   1387.
                 0.4995    25.0          70 Ag   1472.
  68 B2u  1432. -0.5236    27.4    99.4  60 B2u  1293.
                -0.7099    50.4          64 B2u  1353.
                -0.3343    11.2          74 B2u  1572.
  69 Ag   1480.  0.3330    11.1    99.4  65 Ag   1387.
                 0.7838    61.4          70 Ag   1472.
                 0.3334    11.1          72 Ag   1537.
                 0.3707    13.7          75 Ag   1581.
  70 B3g  1482.  0.9389    88.2   100.4  69 B3g  1472.
  71 B2u  1501.  0.8382    70.3    99.3  71 B2u  1512.
                -0.5156    26.6          74 B2u  1572.
  72 Ag   1558. -0.3593    12.9    99.7  65 Ag   1387.
                -0.3459    12.0          70 Ag   1472.
                 0.7764    60.3          72 Ag   1537.
                 0.3652    13.3          75 Ag   1581.
  73 Ag   1578.  0.5143    26.5   100.1  72 Ag   1537.
                -0.8361    69.9          75 Ag   1581.
  74 B2u  1584.  0.3398    11.5    99.8  64 B2u  1353.
                -0.4509    20.3          71 B2u  1512.
                -0.7820    61.2          74 B2u  1572.
  75 B1u  1609.  0.9661    93.3   100.6  73 B1u  1541.
  76 B3g  1649.  0.5389    29.0   100.2  76 B3g  1585.
                -0.8204    67.3          77 B3g  1617.
  77 B3g  1663. -0.8234    67.8   100.8  76 B3g  1585.
                -0.5088    25.9          77 B3g  1617.
  78 B1u  1677. -0.9631    92.8   100.7  78 B1u  1627.
  79 B3g  3153.  0.9815    96.3   100.0  79 B3g  3152.
  80 B2u  3155.  0.9957    99.1   100.0  80 B2u  3153.
  81 B1u  3156. -0.8180    66.9   100.0  81 B1u  3155.
                -0.5749    33.1          84 B1u  3160.
  82 B3g  3157.  0.9810    96.2   100.0  83 B3g  3160.
  83 Ag   3159.  0.9608    92.3   100.0  82 Ag   3157.
  84 B1u  3159.  0.5752    33.1   100.0  81 B1u  3155.
                -0.8173    66.8          84 B1u  3160.
  85 B2u  3162.  0.9941    98.8   100.0  85 B2u  3164.
  86 Ag   3163.  0.9592    92.0   100.0  86 Ag   3165.
  87 B3g  3175.  0.9994    99.9   100.0  87 B3g  3176.
  88 B1u  3175.  0.9993    99.9   100.0  88 B1u  3176.
  89 B2u  3187.  0.9983    99.7   100.0  89 B2u  3190.
  90 Ag   3187.  0.9980    99.6   100.0  90 Ag   3190.
 nber times 1st assigned=           1           0
 nber times 1st assigned=           2           0
 nber times 1st assigned=           3           0
 nber times 1st assigned=           4           0
 nber times 1st assigned=           5           0
 nber times 1st assigned=           6           0
 nber times 1st assigned=           7           0
 nber times 1st assigned=           8           0
 nber times 1st assigned=           9           0
 nber times 1st assigned=          10           0
 nber times 1st assigned=          11           0
 nber times 1st assigned=          12           0
 nber times 1st assigned=          13           0
 nber times 1st assigned=          14           0
 nber times 1st assigned=          15           0
 nber times 1st assigned=          16           0
 nber times 1st assigned=          17           0
 nber times 1st assigned=          18           0
 nber times 1st assigned=          19           0
 nber times 1st assigned=          20           0
 nber times 1st assigned=          21           0
 nber times 1st assigned=          22           0
 nber times 1st assigned=          23           0
 nber times 1st assigned=          24           0
 nber times 1st assigned=          25           0
 nber times 1st assigned=          26           0
 nber times 1st assigned=          27           0
 nber times 1st assigned=          28           0
 nber times 1st assigned=          29           0
 nber times 1st assigned=          30           0
 nber times 1st assigned=          31           0
 nber times 1st assigned=          32           0
 nber times 1st assigned=          33           0
 nber times 1st assigned=          34           0
 nber times 1st assigned=          35           0
 nber times 1st assigned=          36           0
 nber times 1st assigned=          37           0
 nber times 1st assigned=          38           0
 nber times 1st assigned=          39           0
 nber times 1st assigned=          40           0
 nber times 1st assigned=          41           0
 nber times 1st assigned=          42           0
 nber times 1st assigned=          43           0
 nber times 1st assigned=          44           0
 nber times 1st assigned=          45           0
 nber times 1st assigned=          46           0
 nber times 1st assigned=          47           0
 nber times 1st assigned=          48           0
 nber times 1st assigned=          49           0
 nber times 1st assigned=          50           0
 nber times 1st assigned=          51           0
 nber times 1st assigned=          52           0
 nber times 1st assigned=          53           0
 nber times 1st assigned=          54           0
 nber times 1st assigned=          55           0
 nber times 1st assigned=          56           0
 nber times 1st assigned=          57           0
 nber times 1st assigned=          58           0
 nber times 1st assigned=          59           0
 nber times 1st assigned=          60           0
 nber times 1st assigned=          61           0
 nber times 1st assigned=          62           0
 nber times 1st assigned=          63           0
 nber times 1st assigned=          64           0
 nber times 1st assigned=          65           0
 nber times 1st assigned=          66           0
 nber times 1st assigned=          67           0
 nber times 1st assigned=          68           0
 nber times 1st assigned=          69           0
 nber times 1st assigned=          70           0
 nber times 1st assigned=          71           0
 nber times 1st assigned=          72           0
 nber times 1st assigned=          73           0
 nber times 1st assigned=          74           0
 nber times 1st assigned=          75           0
 nber times 1st assigned=          76           0
 nber times 1st assigned=          77           0
 nber times 1st assigned=          78           0
 nber times 1st assigned=          79           0
 nber times 1st assigned=          80           0
 nber times 1st assigned=          81           0
 nber times 1st assigned=          82           0
 nber times 1st assigned=          83           0
 nber times 1st assigned=          84           0
 nber times 1st assigned=          85           0
 nber times 1st assigned=          86           0
 nber times 1st assigned=          87           0
 nber times 1st assigned=          88           0
 nber times 1st assigned=          89           0
 nber times 1st assigned=          90           0
 modes represented=   83.9589464185301     
 p1=
   -0.    0.   -0.   -0.   -0.    0.    0.   -0.    0.    0.    0.    0.   -0.   -0.   11.    0.    0.    0.    0.    0.
    0.    0.   -0.   -0.   -0.   -2.    0.    0.    0.    0.   -0.   -3.   -0.   -0.   -0.   -0.    0.   -0.   -0.   -0.
    0.    0.   -0.   -0.    0.   -0.   -0.    0.    0.    1.    0.   -0.    0.   -3.    0.    0.   -0.   -4.   -0.   -0.
   -0.    0.    0.    0.    4.   -0.    4.   -0.   -2.   -0.    0.   -1.   -4.   -0.   -0.   -0.    0.   -0.   -0.   -0.
   -0.    0.    0.   -0.   -0.    0.   -0.   -0.   -0.   -0.
 p2=
   -0.   -0.   -0.   -0.    0.   -0.    0.    0.   -0.   -0.    0.    0.   -0.    0.   11.    0.   -0.    0.    0.    0.
    0.   -0.   -0.   -0.    0.    2.    0.    0.    0.    0.    0.    0.    3.   -0.    0.   -0.   -0.    0.    0.    0.
    0.   -0.   -0.   -0.    0.    0.   -0.    0.   -0.    0.   -0.    0.    0.   -3.   -0.   -0.    0.    3.   -0.    0.
   -0.   -0.   -0.    0.    4.   -0.   -5.   -0.   -0.   -1.   -0.    4.    0.   -0.   -2.   -0.   -0.    0.   -0.   -0.
    0.   -0.    0.   -0.   -0.   -0.    0.   -0.    0.    0.

 Displacement: in terms of nc of 1 THEN of nc of 2

   1 B3g freq=    -0. Q= -0.000 lam=    -0.0 B1u freq=    -0. Q= -0.000 lam=    -0.0
   2 B1u freq=    -0. Q=  0.000 lam=    -0.0 B2g freq=    -0. Q=  0.000 lam=    -0.0
   3 B2g freq=    -0. Q= -0.000 lam=    -0.0 B3u freq=    -0. Q= -0.000 lam=    -0.0
   4 B2u freq=    -0. Q= -0.000 lam=    -0.0 B1g freq=    -0. Q= -0.000 lam=    -0.0
   5 B3u freq=     0. Q= -0.000 lam=     0.0 B2u freq=     0. Q= -0.000 lam=     0.0
   6 B1g freq=     0. Q=  0.000 lam=     0.0 B3g freq=     0. Q=  0.000 lam=     0.0
   7 B3u freq=    55. Q=  0.000 lam=     0.0 B3u freq=    54. Q=  0.000 lam=     0.0
   8 Au  freq=    89. Q= -0.000 lam=     0.0 Au  freq=    83. Q= -0.000 lam=     0.0
   9 B1g freq=   149. Q=  0.000 lam=     0.0 B1g freq=   144. Q=  0.000 lam=     0.0
  10 B1u freq=   163. Q=  0.000 lam=     0.0 B1u freq=   161. Q=  0.000 lam=     0.0
  11 B2g freq=   191. Q=  0.000 lam=     0.0 B2g freq=   187. Q=  0.000 lam=     0.0
  12 B3u freq=   271. Q=  0.000 lam=     0.0 B3u freq=   276. Q=  0.000 lam=     0.0
  13 B3g freq=   305. Q= -0.000 lam=     0.0 Au  freq=   300. Q= -0.000 lam=     0.0
  14 Au  freq=   318. Q= -0.000 lam=     0.0 B3g freq=   303. Q= -0.000 lam=     0.0
  15 Ag  freq=   318. Q=  0.774 lam=    95.2 Ag  freq=   315. Q=  0.787 lam=    97.6
  16 B1g freq=   382. Q=  0.000 lam=     0.0 B1g freq=   348. Q=  0.000 lam=     0.0
  17 B1u freq=   448. Q=  0.000 lam=     0.0 B3u freq=   421. Q=  0.000 lam=     0.0
  18 B3u freq=   472. Q=  0.000 lam=     0.0 B1u freq=   444. Q=  0.000 lam=     0.0
  19 B1g freq=   476. Q=  0.000 lam=     0.0 B3u freq=   448. Q=  0.000 lam=     0.0
  20 B3u freq=   482. Q=  0.000 lam=     0.0 B1g freq=   457. Q=  0.000 lam=     0.0
  21 B3g freq=   505. Q=  0.000 lam=     0.0 B3g freq=   500. Q=  0.000 lam=     0.0
  22 B2g freq=   519. Q=  0.000 lam=     0.0 B2g freq=   530. Q=  0.000 lam=     0.0
  23 B2u freq=   563. Q= -0.000 lam=     0.0 Au  freq=   545. Q= -0.000 lam=     0.0
  24 Au  freq=   567. Q= -0.000 lam=     0.0 B2u freq=   555. Q= -0.000 lam=     0.0
  25 B1u freq=   618. Q= -0.000 lam=     0.0 B2u freq=   620. Q= -0.000 lam=     0.0
  26 Ag  freq=   635. Q= -0.231 lam=    17.0 Ag  freq=   624. Q= -0.215 lam=    14.5
  27 B2u freq=   645. Q=  0.000 lam=     0.0 B1u freq=   625. Q=  0.000 lam=     0.0
  28 B2g freq=   734. Q=  0.000 lam=     0.0 B2g freq=   677. Q=  0.000 lam=     0.0
  29 B1g freq=   744. Q=  0.000 lam=     0.0 Au  freq=   727. Q=  0.000 lam=     0.0
  30 B2u freq=   757. Q=  0.000 lam=     0.0 B2g freq=   727. Q=  0.000 lam=     0.0
  31 B3u freq=   757. Q= -0.000 lam=     0.0 B1g freq=   735. Q= -0.000 lam=     0.0
  32 Ag  freq=   763. Q= -0.332 lam=    42.0 B3u freq=   737. Q= -0.000 lam=     0.0
  33 Au  freq=   769. Q= -0.000 lam=     0.0 Ag  freq=   755. Q= -0.327 lam=    40.3
  34 B2g freq=   777. Q= -0.000 lam=     0.0 B2u freq=   763. Q= -0.000 lam=     0.0
  35 B3g freq=   788. Q= -0.000 lam=     0.0 B3g freq=   791. Q= -0.000 lam=     0.0
  36 Au  freq=   842. Q= -0.000 lam=     0.0 Au  freq=   792. Q= -0.000 lam=     0.0
  37 B2g freq=   853. Q=  0.000 lam=     0.0 B2g freq=   833. Q=  0.000 lam=     0.0
  38 B1g freq=   862. Q= -0.000 lam=     0.0 B1g freq=   835. Q= -0.000 lam=     0.0
  39 Ag  freq=   868. Q= -0.052 lam=     1.2 Au  freq=   866. Q= -0.000 lam=     0.0
  40 Au  freq=   890. Q= -0.000 lam=     0.0 B3u freq=   873. Q= -0.000 lam=     0.0
  41 B3g freq=   911. Q=  0.000 lam=     0.0 Ag  freq=   875. Q=  0.009 lam=     0.0
  42 B3u freq=   914. Q=  0.000 lam=     0.0 B2g freq=   884. Q=  0.000 lam=     0.0
  43 B2g freq=   915. Q= -0.000 lam=     0.0 B3g freq=   901. Q= -0.000 lam=     0.0
  44 B1u freq=   945. Q= -0.000 lam=     0.0 B1g freq=   923. Q= -0.000 lam=     0.0
  45 B1g freq=   971. Q=  0.000 lam=     0.0 B3u freq=   924. Q=  0.000 lam=     0.0
  46 B3u freq=   972. Q= -0.000 lam=     0.0 B1u freq=   940. Q= -0.000 lam=     0.0
  47 Au  freq=   995. Q= -0.000 lam=     0.0 Au  freq=   962. Q= -0.000 lam=     0.0
  48 B2g freq=   996. Q=  0.000 lam=     0.0 B2g freq=   962. Q=  0.000 lam=     0.0
  49 B2u freq=  1020. Q=  0.000 lam=     0.0 B2u freq=  1049. Q=  0.000 lam=     0.0
  50 Ag  freq=  1022. Q=  0.141 lam=    10.2 Ag  freq=  1049. Q=  0.035 lam=     0.6
  51 B2u freq=  1147. Q=  0.000 lam=     0.0 B1u freq=  1123. Q=  0.000 lam=     0.0
  52 B1u freq=  1150. Q= -0.000 lam=     0.0 B3g freq=  1128. Q= -0.000 lam=     0.0
  53 B3g freq=  1152. Q=  0.000 lam=     0.0 B2u freq=  1175. Q=  0.000 lam=     0.0
  54 Ag  freq=  1186. Q= -0.358 lam=    75.8 Ag  freq=  1183. Q= -0.403 lam=    95.9
  55 B2u freq=  1189. Q=  0.000 lam=     0.0 B2u freq=  1205. Q=  0.000 lam=     0.0
  56 B3g freq=  1204. Q=  0.000 lam=     0.0 B3g freq=  1205. Q=  0.000 lam=     0.0
  57 B1u freq=  1223. Q= -0.000 lam=     0.0 B1u freq=  1235. Q= -0.000 lam=     0.0
  58 Ag  freq=  1224. Q= -0.543 lam=   180.2 Ag  freq=  1237. Q= -0.418 lam=   108.3
  59 B3g freq=  1291. Q= -0.000 lam=     0.0 B3g freq=  1284. Q= -0.000 lam=     0.0
  60 B1u freq=  1299. Q= -0.000 lam=     0.0 B2u freq=  1293. Q= -0.000 lam=     0.0
  61 B1u freq=  1316. Q= -0.000 lam=     0.0 B1u freq=  1294. Q= -0.000 lam=     0.0
  62 B2u freq=  1318. Q=  0.000 lam=     0.0 B1u freq=  1308. Q=  0.000 lam=     0.0
  63 B3g freq=  1360. Q=  0.000 lam=     0.0 B3g freq=  1330. Q=  0.000 lam=     0.0
  64 B2u freq=  1368. Q=  0.000 lam=     0.0 B2u freq=  1353. Q=  0.000 lam=     0.0
  65 Ag  freq=  1412. Q=  0.615 lam=   266.8 Ag  freq=  1387. Q=  0.598 lam=   247.9
  66 B1u freq=  1418. Q= -0.000 lam=     0.0 B1u freq=  1424. Q= -0.000 lam=     0.0
  67 Ag  freq=  1424. Q=  0.613 lam=   267.6 Ag  freq=  1427. Q=  0.785 lam=   440.1
  68 B2u freq=  1432. Q= -0.000 lam=     0.0 B2u freq=  1440. Q= -0.000 lam=     0.0
  69 Ag  freq=  1480. Q= -0.247 lam=    45.2 B3g freq=  1472. Q= -0.000 lam=     0.0
  70 B3g freq=  1482. Q= -0.000 lam=     0.0 Ag  freq=  1472. Q= -0.085 lam=     5.3
  71 B2u freq=  1501. Q=  0.000 lam=     0.0 B2u freq=  1512. Q=  0.000 lam=     0.0
  72 Ag  freq=  1558. Q= -0.189 lam=    28.0 Ag  freq=  1537. Q= -0.583 lam=   261.0
  73 Ag  freq=  1578. Q= -0.720 lam=   408.8 B1u freq=  1541. Q= -0.000 lam=     0.0
  74 B2u freq=  1584. Q= -0.000 lam=     0.0 B2u freq=  1572. Q= -0.000 lam=     0.0
  75 B1u freq=  1609. Q= -0.000 lam=     0.0 Ag  freq=  1581. Q= -0.369 lam=   107.6
  76 B3g freq=  1649. Q= -0.000 lam=     0.0 B3g freq=  1585. Q= -0.000 lam=     0.0
  77 B3g freq=  1663. Q=  0.000 lam=     0.0 B3g freq=  1617. Q=  0.000 lam=     0.0
  78 B1u freq=  1677. Q= -0.000 lam=     0.0 B1u freq=  1627. Q= -0.000 lam=     0.0
  79 B3g freq=  3153. Q= -0.000 lam=     0.0 B3g freq=  3152. Q= -0.000 lam=     0.0
  80 B2u freq=  3155. Q= -0.000 lam=     0.0 B2u freq=  3153. Q= -0.000 lam=     0.0
  81 B1u freq=  3156. Q= -0.000 lam=     0.0 B1u freq=  3155. Q= -0.000 lam=     0.0
  82 B3g freq=  3157. Q=  0.000 lam=     0.0 Ag  freq=  3157. Q=  0.004 lam=     0.0
  83 Ag  freq=  3159. Q=  0.000 lam=     0.0 B3g freq=  3160. Q=  0.000 lam=     0.0
  84 B1u freq=  3159. Q= -0.000 lam=     0.0 B1u freq=  3160. Q= -0.000 lam=     0.0
  85 B2u freq=  3162. Q= -0.000 lam=     0.0 B2u freq=  3164. Q= -0.000 lam=     0.0
  86 Ag  freq=  3163. Q=  0.002 lam=     0.0 Ag  freq=  3165. Q=  0.000 lam=     0.0
  87 B3g freq=  3175. Q= -0.000 lam=     0.0 B3g freq=  3176. Q= -0.000 lam=     0.0
  88 B1u freq=  3175. Q= -0.000 lam=     0.0 B1u freq=  3176. Q= -0.000 lam=     0.0
  89 B2u freq=  3187. Q= -0.000 lam=     0.0 B2u freq=  3190. Q= -0.000 lam=     0.0
  90 Ag  freq=  3187. Q= -0.017 lam=     0.5 Ag  freq=  3190. Q= -0.007 lam=     0.1

 total reorg energy (cm**-1, kcal/mol)=     1438.     1419.      4.11      4.06
 Nber of molecules processed=           2
