 Enter ifcurve (0=recti, 1=orth curvi, 2=apprx curvi, -1 = skip
 And atom ordering flag, 0= never changes, 1= use the first order thenceforth,
  2= deduce it (does read on fail), 3= always read it
 Reading file: 
 ./conjugated_carbonyls_0_C0S0.log                                              
                                          
  Entering Gaussian System, Link 0=g16                                          
  
 Gaussian format, type: g94, g98, g03= F F F
  #P Geom=AllCheck Guess=TCheck SCRF=Check Test GenChk RB3LYP/6-311G(d,p    
 energy type= B3LYP   
 Original G94 input coords:
  8  1.367680 -3.579487  0.000000
  6  0.774346 -2.525803  0.000000
  6 -0.774346 -2.525803  0.000000
  8 -1.367680 -3.579487  0.000000
  6 -1.463210 -1.209034  0.000000
  6 -2.862071 -1.198466  0.000000
  6 -3.564760  0.000000  0.000000
  6 -2.862071  1.198466  0.000000
  6 -1.463210  1.209034  0.000000
  6 -0.774346  2.525803  0.000000
  8 -1.367680  3.579487  0.000000
  6  0.774346  2.525803  0.000000
  8  1.367680  3.579487  0.000000
  6  1.463210  1.209034  0.000000
  6  2.862071  1.198466  0.000000
  6  3.564760  0.000000  0.000000
  6  2.862071 -1.198466  0.000000
  6  1.463210 -1.209034  0.000000
  6  0.737892  0.000000  0.000000
  6 -0.737892  0.000000  0.000000
  1 -3.373441 -2.153498  0.000000
  1 -4.647978  0.000000  0.000000
  1 -3.373441  2.153498  0.000000
  1  3.373441  2.153498  0.000000
  1  4.647978  0.000000  0.000000
  1  3.373441 -2.153498  0.000000
 nber atoms=          26
  SCF Done:  E(RB3LYP) =  -914.431779943     A.U. after    1 cycles             
  
          23          40 "  -914.431779943"
After scan for Atom:   Atom  AN      X      Y      Z        X      Y      Z        X      Y      Z   
After scan for Atom:   Atom  AN      X      Y      Z        X      Y      Z        X      Y      Z   
After scan for Atom:   Atom  AN      X      Y      Z        X      Y      Z        X      Y      Z   
After scan for Atom:   Atom  AN      X      Y      Z        X      Y      Z        X      Y      Z   
After scan for Atom:   Atom  AN      X      Y      Z        X      Y      Z        X      Y      Z   
After scan for Atom:   Atom  AN      X      Y      Z        X      Y      Z        X      Y      Z   
After scan for Atom:   Atom  AN      X      Y      Z        X      Y      Z        X      Y      Z   
After scan for Atom:   Atom  AN      X      Y      Z        X      Y      Z        X      Y      Z   
After scan for Atom:   Atom  AN      X      Y      Z        X      Y      Z        X      Y      Z   
After scan for Atom:   Atom  AN      X      Y      Z        X      Y      Z        X      Y      Z   
After scan for Atom:   Atom  AN      X      Y      Z        X      Y      Z        X      Y      Z   
After scan for Atom:   Atom  AN      X      Y      Z        X      Y      Z        X      Y      Z   
After scan for Atom:   Atom  AN      X      Y      Z        X      Y      Z        X      Y      Z   
After scan for Atom:   Atom  AN      X      Y      Z        X      Y      Z        X      Y      Z   
After scan for Atom:   Atom  AN      X      Y      Z        X      Y      Z        X      Y      Z   
After scan for Atom:   Atom  AN      X      Y      Z        X      Y      Z        X      Y      Z   
After scan for Atom:   Atom  AN      X      Y      Z        X      Y      Z        X      Y      Z   
After scan for Atom:   Atom  AN      X      Y      Z        X      Y      Z        X      Y      Z   
After scan for Atom:   Atom  AN      X      Y      Z        X      Y      Z        X      Y      Z   
After scan for Atom:   Atom  AN      X      Y      Z        X      Y      Z        X      Y      Z   
After scan for Atom:   Atom  AN      X      Y      Z        X      Y      Z        X      Y      Z   
After scan for Atom:   Atom  AN      X      Y      Z        X      Y      Z        X      Y      Z   
After scan for Atom:   Atom  AN      X      Y      Z        X      Y      Z        X      Y      Z   
After scan for Atom:   Atom  AN      X      Y      Z        X      Y      Z        X      Y      Z   
 g94    frequencies=
     0.0    0.0    0.0    0.0    0.0    0.0   35.5   55.7   57.6  141.0
   170.1  178.4  281.3  293.0  320.1  335.8  347.0  369.7  371.4  376.2
   378.5  442.8  450.0  473.6  506.9  507.2  529.3  565.5  614.3  645.6
   661.2  741.7  743.7  762.5  796.4  798.0  827.8  839.1  846.7  888.6
   920.8  994.3  999.1 1018.1 1020.8 1029.8 1031.5 1052.4 1060.2 1104.7
  1118.8 1191.2 1191.8 1267.9 1278.2 1282.2 1289.2 1307.3 1339.2 1358.1
  1453.2 1477.9 1494.4 1497.5 1600.3 1618.1 1620.8 1630.9 1753.6 1760.1
  1779.8 1784.1 3184.0 3184.1 3198.5 3198.6 3203.9 3204.0
 g94    symmetries=
                                                 A      A      A      A
       A      A      A      A      A      A      A      A      A      A
       A      A      A      A      A      A      A      A      A      A
       A      A      A      A      A      A      A      A      A      A
       A      A      A      A      A      A      A      A      A      A
       A      A      A      A      A      A      A      A      A      A
       A      A      A      A      A      A      A      A      A      A
       A      A      A      A      A      A      A      A
 atomic masses:
 15.9949 12.0000 12.0000 15.9949 12.0000 12.0000 12.0000 12.0000 12.0000 12.0000
 15.9949 12.0000 15.9949 12.0000 12.0000 12.0000 12.0000 12.0000 12.0000 12.0000
  1.0078  1.0078  1.0078  1.0078  1.0078  1.0078
 looking for force constants in 
 ./conjugated_carbonyls_0_C0S0.fchk                                             
  
 Cartesian Force Constants                  R   N=        3081                  
  
 n3=          78        3081
 g94-fc frequencies=
    -2.0   -0.0   -0.0    0.0    1.2    2.7   35.5   55.7   57.6  141.1
   170.1  178.4  281.3  293.0  320.1  335.8  347.0  369.7  371.4  376.2
   378.5  442.8  450.0  473.6  506.9  507.2  529.3  565.5  614.4  645.6
   661.2  741.7  743.7  762.6  796.4  798.0  827.8  839.1  846.8  888.7
   920.8  994.3  999.1 1018.1 1020.8 1029.8 1031.5 1052.4 1060.2 1104.7
  1118.9 1191.3 1191.8 1268.0 1278.2 1282.2 1289.3 1307.3 1339.2 1358.1
  1453.2 1477.9 1494.4 1497.6 1600.4 1618.1 1620.8 1630.9 1753.6 1760.1
  1779.9 1784.1 3184.1 3184.1 3198.5 3198.7 3204.0 3204.1
 at 99999: n3=          78
 symm operator            1 :  T  nop=           1
 symm operator            2 :  T  nop=           2
 symm operator            3 :  T  nop=           3
 symm operator            4 :  T  nop=           4
 symm operator            5 :  T  nop=           5
 symm operator            6 :  T  nop=           6
 symm operator            7 :  T  nop=           7
 The point group of the molecule is D2H
 enforcing symm op           1  jsymt=          -1          -1           1
 enforcing symm op           2  jsymt=          -1           1          -1
 enforcing symm op           3  jsymt=           1          -1          -1
 enforcing symm op           4  jsymt=          -1          -1          -1
 enforcing symm op           5  jsymt=           1           1          -1
 enforcing symm op           6  jsymt=           1          -1           1
 enforcing symm op           7  jsymt=          -1           1           1
 cartesian coord symmetries:
 Ag :   13 Au :    5 B1g:   13 B1u:    8 B2g:    8 B2u:   13 B3g:    5 B3u:   13
 Symmetry rotation matrix:
   1.00000   0.00000   0.00000
   0.00000   1.00000   0.00000
   0.00000   0.00000   1.00000

 Projecting out zero-frequency components
 generating redundant internal coords
         300        3600          26
 search for int coords
   1 str   2   1   1.209
   2 str   3   2   1.549
   3 str   4   3   1.209
   4 str   5   3   1.486
   5 str   6   5   1.399
   6 str   7   6   1.389
   7 str   8   7   1.389
   8 str   9   8   1.399
   9 str  10   9   1.486
  10 str  11  10   1.209
  11 str  12  10   1.549
  12 str  13  12   1.209
  13 str  14  12   1.486
  14 str  15  14   1.399
  15 str  16  15   1.389
  16 str  17  16   1.389
  17 str  18   2   1.486
  18 str  18  17   1.399
  19 str  19  14   1.410
  20 str  19  18   1.410
  21 str  20   5   1.410
  22 str  20   9   1.410
  23 str  20  19   1.476
  24 str  21   6   1.083
  25 str  22   7   1.083
  26 str  23   8   1.083
  27 str  24  15   1.083
  28 str  25  16   1.083
  29 str  26  17   1.083
 nber stretches=          29
  30 ben   1   2   3
  31 prop tor   1   2   3   4
  32 prop tor   1   2   3   5
  33 ben   1   2  18
  34 prop tor   1   2  18  17
  35 prop tor   1   2  18  19
  36 ben   2   3   4
  37 ben   2   3   5
  38 prop tor   2   3   5   6
  39 prop tor   2   3   5  20
  40 ben   2  18  17
  41 ben   2  18  19
  42 prop tor   2  18  19  14
  43 prop tor   2  18  19  20
  44 ben   3   2  18
  45 prop tor   3   2  18  17
  46 prop tor   3   2  18  19
  47 ben   3   5   6
  48 prop tor   3   5   6   7
  49 prop tor   3   5   6  21
  50 ben   3   5  20
  51 prop tor   3   5  20   9
  52 prop tor   3   5  20  19
  53 ben   4   3   5
  54 prop tor   4   3   5   6
  55 prop tor   4   3   5  20
  56 ben   5   6   7
  57 prop tor   5   6   7   8
  58 prop tor   5   6   7  22
  59 ben   5   6  21
  60 ben   5  20   9
  61 ben   5  20  19
  62 ben   6   5  20
  63 prop tor   6   5  20   9
  64 prop tor   6   5  20  19
  65 ben   6   7   8
  66 prop tor   6   7   8   9
  67 prop tor   6   7   8  23
  68 ben   6   7  22
  69 ben   7   6  21
  70 ben   7   8   9
  71 prop tor   7   8   9  10
  72 prop tor   7   8   9  20
  73 ben   7   8  23
  74 ben   8   7  22
  75 ben   8   9  10
  76 prop tor   8   9  10  11
  77 prop tor   8   9  10  12
  78 ben   8   9  20
  79 prop tor   8   9  20   5
  80 prop tor   8   9  20  19
  81 ben   9   8  23
  82 ben   9  10  11
  83 ben   9  10  12
  84 prop tor   9  10  12  13
  85 prop tor   9  10  12  14
  86 ben   9  20  19
  87 ben  10   9  20
  88 prop tor  10   9  20   5
  89 prop tor  10   9  20  19
  90 ben  10  12  13
  91 ben  10  12  14
  92 prop tor  10  12  14  15
  93 prop tor  10  12  14  19
  94 ben  11  10  12
  95 prop tor  11  10  12  13
  96 prop tor  11  10  12  14
  97 ben  12  14  15
  98 prop tor  12  14  15  16
  99 prop tor  12  14  15  24
 100 ben  12  14  19
 101 prop tor  12  14  19  18
 102 prop tor  12  14  19  20
 103 ben  13  12  14
 104 prop tor  13  12  14  15
 105 prop tor  13  12  14  19
 106 ben  14  15  16
 107 prop tor  14  15  16  17
 108 prop tor  14  15  16  25
 109 ben  14  15  24
 110 ben  14  19  18
 111 ben  14  19  20
 112 prop tor  14  19  20   5
 113 prop tor  14  19  20   9
 114 ben  15  14  19
 115 prop tor  15  14  19  18
 116 prop tor  15  14  19  20
 117 ben  15  16  17
 118 prop tor  15  16  17  18
 119 prop tor  15  16  17  26
 120 ben  15  16  25
 121 ben  16  15  24
 122 ben  16  17  18
 123 prop tor  16  17  18   2
 124 prop tor  16  17  18  19
 125 ben  16  17  26
 126 ben  17  16  25
 127 ben  17  18  19
 128 prop tor  17  18  19  14
 129 prop tor  17  18  19  20
 130 prop tor  18   2   3   4
 131 prop tor  18   2   3   5
 132 ben  18  17  26
 133 ben  18  19  20
 134 prop tor  18  19  20   5
 135 prop tor  18  19  20   9
 136 prop tor  19  14  15  16
 137 prop tor  19  14  15  24
 138 prop tor  20   5   6   7
 139 prop tor  20   5   6  21
 140 prop tor  20   9  10  11
 141 prop tor  20   9  10  12
 142 prop tor  21   6   7   8
 143 prop tor  21   6   7  22
 144 prop tor  22   7   8   9
 145 prop tor  22   7   8  23
 146 prop tor  23   8   9  10
 147 prop tor  23   8   9  20
 148 prop tor  24  15  16  17
 149 prop tor  24  15  16  25
 150 prop tor  25  16  17  18
 151 prop tor  25  16  17  26
 152 prop tor  26  17  18   2
 153 prop tor  26  17  18  19
 nber bend=              48
 nber lin bend=           0
 nber prop tor=          76
 nber impr tor=           0
 nber tot redund int=         153
 Eigenvalues of G in red int coords
    Gval -0.00000000 -0.00000000 -0.00000000 -0.00000000 -0.00000000 -0.00000000 -0.00000000 -0.00000000
    Gval -0.00000000 -0.00000000 -0.00000000 -0.00000000 -0.00000000 -0.00000000 -0.00000000 -0.00000000
    Gval -0.00000000 -0.00000000 -0.00000000 -0.00000000 -0.00000000 -0.00000000 -0.00000000 -0.00000000
    Gval -0.00000000 -0.00000000 -0.00000000 -0.00000000 -0.00000000 -0.00000000 -0.00000000 -0.00000000
    Gval -0.00000000 -0.00000000 -0.00000000 -0.00000000 -0.00000000 -0.00000000 -0.00000000 -0.00000000
    Gval  0.00000000  0.00000000  0.00000000  0.00000000  0.00000000  0.00000000  0.00000000  0.00000000
    Gval  0.00000000  0.00000000  0.00000000  0.00000000  0.00000000  0.00000000  0.00000000  0.00000000
    Gval  0.00000000  0.00000000  0.00000000  0.00000000  0.00000000  0.00000000  0.00000000  0.00000000
    Gval  0.00000000  0.00000000  0.00000000  0.00000000  0.00000000  0.00000000  0.00000000  0.00000000
    Gval  0.00000000  0.00000000  0.00000000  0.00000000  0.00000000  0.00000000  0.00000000  0.00000000
    Gval  0.00000000  0.00000962  0.00000976  0.00001153  0.00001378  0.00001487  0.00001945  0.00002409
    Gval  0.00002486  0.00002600  0.00003113  0.00003944  0.00004530  0.00004822  0.00005391  0.00006202
    Gval  0.00006330  0.00006402  0.00006737  0.00008496  0.00008946  0.00009454  0.00009869  0.00011003
    Gval  0.00011204  0.00011793  0.00013402  0.00015166  0.00016000  0.00017515  0.00020950  0.00021279
    Gval  0.00021529  0.00026051  0.00030515  0.00032034  0.00032110  0.00032280  0.00038366  0.00038682
    Gval  0.00038711  0.00040291  0.00040635  0.00044562  0.00045785  0.00048163  0.00056480  0.00059431
    Gval  0.00059431  0.00060899  0.00061014  0.00065044  0.00065074  0.00074933  0.00077002  0.00100238
    Gval  0.00106834  0.00106879  0.00110209  0.00114166  0.00114168  0.00117345  0.00117352  0.00125089
    Gval  0.00160258  0.00174283  0.00195232  0.00213872  0.00261980  0.00310108  0.00310860  0.00396413
    Gval  0.00396465
  9.616377724311596E-006  9.616377724311596E-006
  9.760754718762974E-006  9.616377724311596E-006
  1.153393765766237E-005  9.616377724311596E-006
  1.377872948333587E-005  9.616377724311596E-006
  1.487033723968851E-005  9.616377724311596E-006
  1.944830727176225E-005  9.616377724311596E-006
  2.408629584371653E-005  9.616377724311596E-006
  2.485713737434344E-005  9.616377724311596E-006
  2.600473315097066E-005  9.616377724311596E-006
  3.113059342309611E-005  9.616377724311596E-006
  3.943855919503740E-005  9.616377724311596E-006
  4.530465545552927E-005  9.616377724311596E-006
  4.821878717451659E-005  9.616377724311596E-006
  5.390779088283285E-005  9.616377724311596E-006
  6.202406699070357E-005  9.616377724311596E-006
  6.329624094704522E-005  9.616377724311596E-006
  6.401617834533529E-005  9.616377724311596E-006
  6.736791650707827E-005  9.616377724311596E-006
  8.495565340209064E-005  9.616377724311596E-006
  8.946074532160889E-005  9.616377724311596E-006
  9.453798452642881E-005  9.616377724311596E-006
  9.868990481178347E-005  9.616377724311596E-006
  1.100285819627971E-004  9.616377724311596E-006
  1.120406095832757E-004  9.616377724311596E-006
  1.179251529244400E-004  9.616377724311596E-006
  1.340178596425266E-004  9.616377724311596E-006
  1.516592876508999E-004  9.616377724311596E-006
  1.599957453937101E-004  9.616377724311596E-006
  1.751539729330659E-004  9.616377724311596E-006
  2.094985488915117E-004  9.616377724311596E-006
  2.127912483537045E-004  9.616377724311596E-006
  2.152926337486666E-004  9.616377724311596E-006
  2.605064871800400E-004  9.616377724311596E-006
  3.051486650854666E-004  9.616377724311596E-006
  3.203384873742021E-004  9.616377724311596E-006
  3.211045688272535E-004  9.616377724311596E-006
  3.227967004190828E-004  9.616377724311596E-006
  3.836558627163219E-004  9.616377724311596E-006
  3.868179911369451E-004  9.616377724311596E-006
  3.871062814613903E-004  9.616377724311596E-006
  4.029114070484680E-004  9.616377724311596E-006
  4.063515268191875E-004  9.616377724311596E-006
  4.456218478756603E-004  9.616377724311596E-006
  4.578510379877402E-004  9.616377724311596E-006
  4.816321890557136E-004  9.616377724311596E-006
  5.648024338925170E-004  9.616377724311596E-006
  5.943050446013967E-004  9.616377724311596E-006
  5.943084273997677E-004  9.616377724311596E-006
  6.089866784367667E-004  9.616377724311596E-006
  6.101425875717590E-004  9.616377724311596E-006
  6.504447590821419E-004  9.616377724311596E-006
  6.507350892841640E-004  9.616377724311596E-006
  7.493289846877828E-004  9.616377724311596E-006
  7.700162466397302E-004  9.616377724311596E-006
  1.002375531829674E-003  9.616377724311596E-006
  1.068337272062301E-003  9.616377724311596E-006
  1.068785543062954E-003  9.616377724311596E-006
  1.102092705530509E-003  9.616377724311596E-006
  1.141657070219995E-003  9.616377724311596E-006
  1.141677759941884E-003  9.616377724311596E-006
  1.173452546228577E-003  9.616377724311596E-006
  1.173523780029482E-003  9.616377724311596E-006
  1.250894465558750E-003  9.616377724311596E-006
  1.602583734882927E-003  9.616377724311596E-006
  1.742825003281112E-003  9.616377724311596E-006
  1.952317206923633E-003  9.616377724311596E-006
  2.138718189938055E-003  9.616377724311596E-006
  2.619801606114220E-003  9.616377724311596E-006
  3.101082625861235E-003  9.616377724311596E-006
  3.108596734902657E-003  9.616377724311596E-006
  3.964134672354221E-003  9.616377724311596E-006
  3.964645289584364E-003  9.616377724311596E-006
 cut=1d-8, nber non-redundant internal coords=          72
 Check on Eigenvals of non-red overlap matrix:
  0.00000962  0.00000976  0.00001153  0.00001378  0.00001487  0.00001945  0.00002409  0.00002486
  0.00002600  0.00003113  0.00003944  0.00004530  0.00004822  0.00005391  0.00006202  0.00006330
  0.00006402  0.00006737  0.00008496  0.00008946  0.00009454  0.00009869  0.00011003  0.00011204
  0.00011793  0.00013402  0.00015166  0.00016000  0.00017515  0.00020950  0.00021279  0.00021529
  0.00026051  0.00030515  0.00032034  0.00032110  0.00032280  0.00038366  0.00038682  0.00038711
  0.00040291  0.00040635  0.00044562  0.00045785  0.00048163  0.00056480  0.00059431  0.00059431
  0.00060899  0.00061014  0.00065044  0.00065074  0.00074933  0.00077002  0.00100238  0.00106834
  0.00106879  0.00110209  0.00114166  0.00114168  0.00117345  0.00117352  0.00125089  0.00160258
  0.00174283  0.00195232  0.00213872  0.00261980  0.00310108  0.00310860  0.00396413  0.00396465
 Checking for correct frequencies
 recalc frequencies=
    -0.0   -0.0   -0.0   -0.0    0.0    0.0   35.5   55.7   57.6  141.1
   170.1  178.4  281.3  293.0  320.1  335.8  347.0  369.7  371.4  376.2
   378.5  442.8  450.0  473.6  506.9  507.2  529.3  565.5  614.4  645.6
   661.2  741.7  743.7  762.6  796.4  798.0  827.8  839.1  846.8  888.7
   920.8  994.3  999.1 1018.1 1020.8 1029.8 1031.5 1052.4 1060.2 1104.7
  1118.9 1191.3 1191.8 1268.0 1278.2 1282.2 1289.3 1307.3 1339.2 1358.1
  1453.2 1477.9 1494.4 1497.6 1600.4 1618.1 1620.8 1630.9 1753.6 1760.1
  1779.9 1784.1 3184.1 3184.1 3198.5 3198.7 3204.0 3204.1
 recalc symmetries=
     B1g    B2u    B3u    B3g    B1u    B2g    Au     B2g    B1u    B1u
     B3g    Au     B2g    B3u    B2u    B1g    Ag     B3g    B1g    B2u
     Ag     B1u    Ag     Au     B2u    B1u    B3u    B2g    B3g    B1g
     B3u    B2g    B1u    B1g    Ag     B2g    B2u    B1u    Au     B2g
     B3u    B3g    Au     Ag     B3u    B1u    B2g    B1g    B2u    Ag 
     B3u    B1g    B2u    B1g    B3u    Ag     B2u    Ag     B1g    B2u
     B3u    B2u    Ag     B1g    B2u    Ag     B3u    B1g    B2u    Ag 
     B1g    B3u    B3u    Ag     B1g    B2u    B3u    Ag 
 recalc freqs check OK
 Zero-point lengths:
 10.0000 10.0000 10.0000 10.0000 10.0000 10.0000 41.6114 33.2167 32.6728 20.8740
 19.0096 18.5624 14.7803 14.4832 13.8568 13.5293 13.3091 12.8941 12.8641 12.7809
 12.7425 11.7814 11.6865 11.3920 11.0107 11.0076 10.7756 10.4250 10.0020  9.7567
  9.6411  9.1031  9.0908  8.9775  8.7848  8.7760  8.6164  8.5582  8.5196  8.3163
  8.1699  7.8619  7.8431  7.7694  7.7592  7.7252  7.7189  7.6420  7.6137  7.4587
  7.4115  7.1827  7.1811  6.9621  6.9342  6.9234  6.9044  6.8565  6.7744  6.7271
  6.5033  6.4487  6.4130  6.4063  6.1970  6.1630  6.1579  6.1387  5.9201  5.9091
  5.8763  5.8693  4.3934  4.3934  4.3835  4.3834  4.3798  4.3797
 highest evec of mol 1
 -0.0011  0.0006  0.0000
  0.0014 -0.0014  0.0000
 -0.0014 -0.0014  0.0000
  0.0011  0.0006  0.0000
  0.0040 -0.0004  0.0000
 -0.0549 -0.1107  0.0000
 -0.1164  0.0000  0.0000
 -0.0549  0.1107  0.0000
  0.0040  0.0004  0.0000
 -0.0014  0.0014  0.0000
  0.0011 -0.0006  0.0000
  0.0014  0.0014  0.0000
 -0.0011 -0.0006  0.0000
 -0.0040  0.0004  0.0000
  0.0549  0.1107  0.0000
  0.1164  0.0000  0.0000
  0.0549 -0.1107  0.0000
 -0.0040 -0.0004  0.0000
 -0.0012  0.0000  0.0000
  0.0012  0.0000  0.0000
  0.1913  0.3513  0.0000
  0.3686  0.0000  0.0000
  0.1913 -0.3513  0.0000
 -0.1913 -0.3513  0.0000
 -0.3686  0.0000  0.0000
 -0.1913  0.3513  0.0000
 generating redundant internal coords
         300        3600          26
 Adding extra bonds for z output only
           8           6           6           8           6           6
           6           6           6           6           8           6
           8           6           6           6           6           6
           6           6           1           1           1           1
           1           1
 search for int coords
   1 str   2   1   1.209
   2 str   3   2   1.549
   3 str   4   3   1.209
   4 str   5   3   1.486
   5 str   6   5   1.399
   6 str   7   6   1.389
   7 str   8   7   1.389
   8 str   9   8   1.399
   9 str  10   9   1.486
  10 str  11  10   1.209
  11 str  12  10   1.549
  12 str  13  12   1.209
  13 str  14  12   1.486
  14 str  15  14   1.399
  15 str  16  15   1.389
  16 str  17  16   1.389
  17 str  18   2   1.486
  18 str  18  17   1.399
  19 str  19  14   1.410
  20 str  19  18   1.410
  21 str  20   5   1.410
  22 str  20   9   1.410
  23 str  20  19   1.476
  24 str  21   6   1.083
  25 str  22   7   1.083
  26 str  23   8   1.083
  27 str  24  15   1.083
  28 str  25  16   1.083
  29 str  26  17   1.083
 nber stretches=          29
  30 ben   1   2   3
  31 prop tor   1   2   3   4
  32 prop tor   1   2   3   5
  33 ben   1   2  18
  34 prop tor   1   2  18  17
  35 prop tor   1   2  18  19
  36 ben   2   3   4
  37 ben   2   3   5
  38 prop tor   2   3   5   6
  39 prop tor   2   3   5  20
  40 ben   2  18  17
  41 ben   2  18  19
  42 prop tor   2  18  19  14
  43 prop tor   2  18  19  20
  44 ben   3   2  18
  45 prop tor   3   2  18  17
  46 prop tor   3   2  18  19
  47 ben   3   5   6
  48 prop tor   3   5   6   7
  49 prop tor   3   5   6  21
  50 ben   3   5  20
  51 prop tor   3   5  20   9
  52 prop tor   3   5  20  19
  53 ben   4   3   5
  54 prop tor   4   3   5   6
  55 prop tor   4   3   5  20
  56 ben   5   6   7
  57 prop tor   5   6   7   8
  58 prop tor   5   6   7  22
  59 ben   5   6  21
  60 ben   5  20   9
  61 ben   5  20  19
  62 ben   6   5  20
  63 prop tor   6   5  20   9
  64 prop tor   6   5  20  19
  65 ben   6   7   8
  66 prop tor   6   7   8   9
  67 prop tor   6   7   8  23
  68 ben   6   7  22
  69 ben   7   6  21
  70 ben   7   8   9
  71 prop tor   7   8   9  10
  72 prop tor   7   8   9  20
  73 ben   7   8  23
  74 ben   8   7  22
  75 ben   8   9  10
  76 prop tor   8   9  10  11
  77 prop tor   8   9  10  12
  78 ben   8   9  20
  79 prop tor   8   9  20   5
  80 prop tor   8   9  20  19
  81 ben   9   8  23
  82 ben   9  10  11
  83 ben   9  10  12
  84 prop tor   9  10  12  13
  85 prop tor   9  10  12  14
  86 ben   9  20  19
  87 ben  10   9  20
  88 prop tor  10   9  20   5
  89 prop tor  10   9  20  19
  90 ben  10  12  13
  91 ben  10  12  14
  92 prop tor  10  12  14  15
  93 prop tor  10  12  14  19
  94 ben  11  10  12
  95 prop tor  11  10  12  13
  96 prop tor  11  10  12  14
  97 ben  12  14  15
  98 prop tor  12  14  15  16
  99 prop tor  12  14  15  24
 100 ben  12  14  19
 101 prop tor  12  14  19  18
 102 prop tor  12  14  19  20
 103 ben  13  12  14
 104 prop tor  13  12  14  15
 105 prop tor  13  12  14  19
 106 ben  14  15  16
 107 prop tor  14  15  16  17
 108 prop tor  14  15  16  25
 109 ben  14  15  24
 110 ben  14  19  18
 111 ben  14  19  20
 112 prop tor  14  19  20   5
 113 prop tor  14  19  20   9
 114 ben  15  14  19
 115 prop tor  15  14  19  18
 116 prop tor  15  14  19  20
 117 ben  15  16  17
 118 prop tor  15  16  17  18
 119 prop tor  15  16  17  26
 120 ben  15  16  25
 121 ben  16  15  24
 122 ben  16  17  18
 123 prop tor  16  17  18   2
 124 prop tor  16  17  18  19
 125 ben  16  17  26
 126 ben  17  16  25
 127 ben  17  18  19
 128 prop tor  17  18  19  14
 129 prop tor  17  18  19  20
 130 prop tor  18   2   3   4
 131 prop tor  18   2   3   5
 132 ben  18  17  26
 133 ben  18  19  20
 134 prop tor  18  19  20   5
 135 prop tor  18  19  20   9
 136 prop tor  19  14  15  16
 137 prop tor  19  14  15  24
 138 prop tor  20   5   6   7
 139 prop tor  20   5   6  21
 140 prop tor  20   9  10  11
 141 prop tor  20   9  10  12
 142 prop tor  21   6   7   8
 143 prop tor  21   6   7  22
 144 prop tor  22   7   8   9
 145 prop tor  22   7   8  23
 146 prop tor  23   8   9  10
 147 prop tor  23   8   9  20
 148 prop tor  24  15  16  17
 149 prop tor  24  15  16  25
 150 prop tor  25  16  17  18
 151 prop tor  25  16  17  26
 152 prop tor  26  17  18   2
 153 prop tor  26  17  18  19
 nber bend=              48
 nber lin bend=           0
 nber prop tor=          76
 nber impr tor=           0
 nber tot redund int=         153
 Reading file: 
 ./conjugated_carbonyls_0_C-1S0.log                                             
                                          
  Entering Gaussian System, Link 0=g16                                          
  
 Gaussian format, type: g94, g98, g03= F F F
  #P Geom=AllCheck Guess=TCheck SCRF=Check Test GenChk UB3LYP/6-311G(d,p    
 energy type= B3LYP   
 Original G94 input coords:
  8  1.377945 -3.606382  0.000000
  6  0.760426 -2.541846  0.000000
  6 -0.760426 -2.541846  0.000000
  8 -1.377945 -3.606382  0.000000
  6 -1.439800 -1.228466  0.000000
  6 -2.836614 -1.202901  0.000000
  6 -3.537274  0.000000  0.000000
  6 -2.836614  1.202901  0.000000
  6 -1.439800  1.228466  0.000000
  6 -0.760426  2.541846  0.000000
  8 -1.377945  3.606382  0.000000
  6  0.760426  2.541846  0.000000
  8  1.377945  3.606382  0.000000
  6  1.439800  1.228466  0.000000
  6  2.836614  1.202901  0.000000
  6  3.537274  0.000000  0.000000
  6  2.836614 -1.202901  0.000000
  6  1.439800 -1.228466  0.000000
  6  0.714880  0.000000  0.000000
  6 -0.714880  0.000000  0.000000
  1 -3.350246 -2.158289  0.000000
  1 -4.622917  0.000000  0.000000
  1 -3.350246  2.158289  0.000000
  1  3.350246  2.158289  0.000000
  1  4.622917  0.000000  0.000000
  1  3.350246 -2.158289  0.000000
 nber atoms=          26
  SCF Done:  E(UB3LYP) =  -914.517416607     A.U. after    3 cycles             
  
          23          40 "  -914.517416607"
After scan for Atom:   Atom  AN      X      Y      Z        X      Y      Z        X      Y      Z   
After scan for Atom:   Atom  AN      X      Y      Z        X      Y      Z        X      Y      Z   
After scan for Atom:   Atom  AN      X      Y      Z        X      Y      Z        X      Y      Z   
After scan for Atom:   Atom  AN      X      Y      Z        X      Y      Z        X      Y      Z   
After scan for Atom:   Atom  AN      X      Y      Z        X      Y      Z        X      Y      Z   
After scan for Atom:   Atom  AN      X      Y      Z        X      Y      Z        X      Y      Z   
After scan for Atom:   Atom  AN      X      Y      Z        X      Y      Z        X      Y      Z   
After scan for Atom:   Atom  AN      X      Y      Z        X      Y      Z        X      Y      Z   
After scan for Atom:   Atom  AN      X      Y      Z        X      Y      Z        X      Y      Z   
After scan for Atom:   Atom  AN      X      Y      Z        X      Y      Z        X      Y      Z   
After scan for Atom:   Atom  AN      X      Y      Z        X      Y      Z        X      Y      Z   
After scan for Atom:   Atom  AN      X      Y      Z        X      Y      Z        X      Y      Z   
After scan for Atom:   Atom  AN      X      Y      Z        X      Y      Z        X      Y      Z   
After scan for Atom:   Atom  AN      X      Y      Z        X      Y      Z        X      Y      Z   
After scan for Atom:   Atom  AN      X      Y      Z        X      Y      Z        X      Y      Z   
After scan for Atom:   Atom  AN      X      Y      Z        X      Y      Z        X      Y      Z   
After scan for Atom:   Atom  AN      X      Y      Z        X      Y      Z        X      Y      Z   
After scan for Atom:   Atom  AN      X      Y      Z        X      Y      Z        X      Y      Z   
After scan for Atom:   Atom  AN      X      Y      Z        X      Y      Z        X      Y      Z   
After scan for Atom:   Atom  AN      X      Y      Z        X      Y      Z        X      Y      Z   
After scan for Atom:   Atom  AN      X      Y      Z        X      Y      Z        X      Y      Z   
After scan for Atom:   Atom  AN      X      Y      Z        X      Y      Z        X      Y      Z   
After scan for Atom:   Atom  AN      X      Y      Z        X      Y      Z        X      Y      Z   
After scan for Atom:   Atom  AN      X      Y      Z        X      Y      Z        X      Y      Z   
 g94    frequencies=
     0.0    0.0    0.0    0.0    0.0    0.0   53.3   63.8   73.9  136.8
   185.8  202.6  280.8  290.5  291.3  341.4  351.5  370.1  374.1  376.5
   376.7  425.3  461.2  486.2  500.4  512.6  525.7  562.3  619.6  647.8
   658.0  726.8  737.8  762.8  775.3  802.5  804.5  820.2  821.9  848.8
   919.8  973.4  985.1  988.7  998.9 1002.7 1015.2 1024.3 1051.1 1092.9
  1099.6 1174.8 1182.7 1247.6 1256.4 1258.2 1268.2 1319.2 1337.9 1346.8
  1417.4 1425.9 1483.2 1497.1 1519.9 1576.2 1581.9 1598.6 1599.1 1663.4
  1677.7 1682.2 3147.5 3147.6 3177.1 3177.2 3181.1 3181.4
 g94    symmetries=
                                                 A      A      A      A
       A      A      A      A      A      A      A      A      A      A
       A      A      A      A      A      A      A      A      A      A
       A      A      A      A      A      A      A      A      A      A
       A      A      A      A      A      A      A      A      A      A
       A      A      A      A      A      A      A      A      A      A
       A      A      A      A      A      A      A      A      A      A
       A      A      A      A      A      A      A      A
 atomic masses:
 15.9949 12.0000 12.0000 15.9949 12.0000 12.0000 12.0000 12.0000 12.0000 12.0000
 15.9949 12.0000 15.9949 12.0000 12.0000 12.0000 12.0000 12.0000 12.0000 12.0000
  1.0078  1.0078  1.0078  1.0078  1.0078  1.0078
 looking for force constants in 
 ./conjugated_carbonyls_0_C-1S0.fchk                                            
  
 Cartesian Force Constants                  R   N=        3081                  
  
 n3=          78        3081
 g94-fc frequencies=
    -4.2   -3.6   -1.2   -0.0    0.0    0.0   53.3   63.8   73.9  136.8
   185.8  202.6  280.8  290.5  291.3  341.4  351.5  370.1  374.1  376.5
   376.7  425.3  461.2  486.2  500.5  512.6  525.7  562.3  619.7  647.8
   658.0  726.8  737.8  762.8  775.3  802.6  804.5  820.2  821.9  848.8
   919.8  973.4  985.1  988.7  998.9 1002.7 1015.2 1024.3 1051.1 1093.0
  1099.6 1174.8 1182.7 1247.7 1256.5 1258.2 1268.2 1319.3 1337.9 1346.9
  1417.4 1425.9 1483.2 1497.2 1520.0 1576.2 1581.9 1598.6 1599.2 1663.4
  1677.8 1682.2 3147.6 3147.7 3177.2 3177.3 3181.2 3181.5
 at 99999: n3=          78
 symm operator            1 :  T  nop=           1
 symm operator            2 :  T  nop=           2
 symm operator            3 :  T  nop=           3
 symm operator            4 :  T  nop=           4
 symm operator            5 :  T  nop=           5
 symm operator            6 :  T  nop=           6
 symm operator            7 :  T  nop=           7
 The point group of the molecule is D2H
 enforcing symm op           1  jsymt=          -1          -1           1
 enforcing symm op           2  jsymt=          -1           1          -1
 enforcing symm op           3  jsymt=           1          -1          -1
 enforcing symm op           4  jsymt=          -1          -1          -1
 enforcing symm op           5  jsymt=           1           1          -1
 enforcing symm op           6  jsymt=           1          -1           1
 enforcing symm op           7  jsymt=          -1           1           1
 cartesian coord symmetries:
 Ag :   13 Au :    5 B1g:   13 B1u:    8 B2g:    8 B2u:   13 B3g:    5 B3u:   13
 Symmetry rotation matrix:
   1.00000   0.00000   0.00000
   0.00000   1.00000   0.00000
   0.00000   0.00000   1.00000

 Projecting out zero-frequency components
 generating redundant internal coords
         300        3600          26
 search for int coords
   1 str   2   1   1.231
   2 str   3   2   1.521
   3 str   4   3   1.231
   4 str   5   3   1.479
   5 str   6   5   1.397
   6 str   7   6   1.392
   7 str   8   7   1.392
   8 str   9   8   1.397
   9 str  10   9   1.479
  10 str  11  10   1.231
  11 str  12  10   1.521
  12 str  13  12   1.231
  13 str  14  12   1.479
  14 str  15  14   1.397
  15 str  16  15   1.392
  16 str  17  16   1.392
  17 str  18   2   1.479
  18 str  18  17   1.397
  19 str  19  14   1.426
  20 str  19  18   1.426
  21 str  20   5   1.426
  22 str  20   9   1.426
  23 str  20  19   1.430
  24 str  21   6   1.085
  25 str  22   7   1.086
  26 str  23   8   1.085
  27 str  24  15   1.085
  28 str  25  16   1.086
  29 str  26  17   1.085
 nber stretches=          29
  30 ben   1   2   3
  31 prop tor   1   2   3   4
  32 prop tor   1   2   3   5
  33 ben   1   2  18
  34 prop tor   1   2  18  17
  35 prop tor   1   2  18  19
  36 ben   2   3   4
  37 ben   2   3   5
  38 prop tor   2   3   5   6
  39 prop tor   2   3   5  20
  40 ben   2  18  17
  41 ben   2  18  19
  42 prop tor   2  18  19  14
  43 prop tor   2  18  19  20
  44 ben   3   2  18
  45 prop tor   3   2  18  17
  46 prop tor   3   2  18  19
  47 ben   3   5   6
  48 prop tor   3   5   6   7
  49 prop tor   3   5   6  21
  50 ben   3   5  20
  51 prop tor   3   5  20   9
  52 prop tor   3   5  20  19
  53 ben   4   3   5
  54 prop tor   4   3   5   6
  55 prop tor   4   3   5  20
  56 ben   5   6   7
  57 prop tor   5   6   7   8
  58 prop tor   5   6   7  22
  59 ben   5   6  21
  60 ben   5  20   9
  61 ben   5  20  19
  62 ben   6   5  20
  63 prop tor   6   5  20   9
  64 prop tor   6   5  20  19
  65 ben   6   7   8
  66 prop tor   6   7   8   9
  67 prop tor   6   7   8  23
  68 ben   6   7  22
  69 ben   7   6  21
  70 ben   7   8   9
  71 prop tor   7   8   9  10
  72 prop tor   7   8   9  20
  73 ben   7   8  23
  74 ben   8   7  22
  75 ben   8   9  10
  76 prop tor   8   9  10  11
  77 prop tor   8   9  10  12
  78 ben   8   9  20
  79 prop tor   8   9  20   5
  80 prop tor   8   9  20  19
  81 ben   9   8  23
  82 ben   9  10  11
  83 ben   9  10  12
  84 prop tor   9  10  12  13
  85 prop tor   9  10  12  14
  86 ben   9  20  19
  87 ben  10   9  20
  88 prop tor  10   9  20   5
  89 prop tor  10   9  20  19
  90 ben  10  12  13
  91 ben  10  12  14
  92 prop tor  10  12  14  15
  93 prop tor  10  12  14  19
  94 ben  11  10  12
  95 prop tor  11  10  12  13
  96 prop tor  11  10  12  14
  97 ben  12  14  15
  98 prop tor  12  14  15  16
  99 prop tor  12  14  15  24
 100 ben  12  14  19
 101 prop tor  12  14  19  18
 102 prop tor  12  14  19  20
 103 ben  13  12  14
 104 prop tor  13  12  14  15
 105 prop tor  13  12  14  19
 106 ben  14  15  16
 107 prop tor  14  15  16  17
 108 prop tor  14  15  16  25
 109 ben  14  15  24
 110 ben  14  19  18
 111 ben  14  19  20
 112 prop tor  14  19  20   5
 113 prop tor  14  19  20   9
 114 ben  15  14  19
 115 prop tor  15  14  19  18
 116 prop tor  15  14  19  20
 117 ben  15  16  17
 118 prop tor  15  16  17  18
 119 prop tor  15  16  17  26
 120 ben  15  16  25
 121 ben  16  15  24
 122 ben  16  17  18
 123 prop tor  16  17  18   2
 124 prop tor  16  17  18  19
 125 ben  16  17  26
 126 ben  17  16  25
 127 ben  17  18  19
 128 prop tor  17  18  19  14
 129 prop tor  17  18  19  20
 130 prop tor  18   2   3   4
 131 prop tor  18   2   3   5
 132 ben  18  17  26
 133 ben  18  19  20
 134 prop tor  18  19  20   5
 135 prop tor  18  19  20   9
 136 prop tor  19  14  15  16
 137 prop tor  19  14  15  24
 138 prop tor  20   5   6   7
 139 prop tor  20   5   6  21
 140 prop tor  20   9  10  11
 141 prop tor  20   9  10  12
 142 prop tor  21   6   7   8
 143 prop tor  21   6   7  22
 144 prop tor  22   7   8   9
 145 prop tor  22   7   8  23
 146 prop tor  23   8   9  10
 147 prop tor  23   8   9  20
 148 prop tor  24  15  16  17
 149 prop tor  24  15  16  25
 150 prop tor  25  16  17  18
 151 prop tor  25  16  17  26
 152 prop tor  26  17  18   2
 153 prop tor  26  17  18  19
 nber bend=              48
 nber lin bend=           0
 nber prop tor=          76
 nber impr tor=           0
 nber tot redund int=         153
 Eigenvalues of G in red int coords
    Gval -0.00000000 -0.00000000 -0.00000000 -0.00000000 -0.00000000 -0.00000000 -0.00000000 -0.00000000
    Gval -0.00000000 -0.00000000 -0.00000000 -0.00000000 -0.00000000 -0.00000000 -0.00000000 -0.00000000
    Gval -0.00000000 -0.00000000 -0.00000000 -0.00000000 -0.00000000 -0.00000000 -0.00000000 -0.00000000
    Gval -0.00000000 -0.00000000 -0.00000000 -0.00000000 -0.00000000 -0.00000000 -0.00000000 -0.00000000
    Gval -0.00000000 -0.00000000 -0.00000000 -0.00000000  0.00000000  0.00000000  0.00000000  0.00000000
    Gval  0.00000000  0.00000000  0.00000000  0.00000000  0.00000000  0.00000000  0.00000000  0.00000000
    Gval  0.00000000  0.00000000  0.00000000  0.00000000  0.00000000  0.00000000  0.00000000  0.00000000
    Gval  0.00000000  0.00000000  0.00000000  0.00000000  0.00000000  0.00000000  0.00000000  0.00000000
    Gval  0.00000000  0.00000000  0.00000000  0.00000000  0.00000000  0.00000000  0.00000000  0.00000000
    Gval  0.00000000  0.00000000  0.00000000  0.00000000  0.00000000  0.00000000  0.00000000  0.00000000
    Gval  0.00000000  0.00000943  0.00000975  0.00001160  0.00001379  0.00001485  0.00001941  0.00002371
    Gval  0.00002442  0.00002607  0.00003123  0.00003949  0.00004546  0.00004753  0.00005382  0.00006173
    Gval  0.00006342  0.00006395  0.00006683  0.00008527  0.00008946  0.00009292  0.00009841  0.00010949
    Gval  0.00011161  0.00011760  0.00013383  0.00014987  0.00015882  0.00017452  0.00021056  0.00021155
    Gval  0.00021465  0.00025829  0.00030532  0.00032007  0.00032332  0.00032528  0.00037640  0.00038673
    Gval  0.00038705  0.00040593  0.00040912  0.00044538  0.00046332  0.00047739  0.00055385  0.00059427
    Gval  0.00059428  0.00060904  0.00061025  0.00065044  0.00065081  0.00075645  0.00076949  0.00101675
    Gval  0.00106472  0.00106517  0.00111042  0.00113826  0.00113828  0.00116842  0.00116849  0.00124746
    Gval  0.00160671  0.00171979  0.00194077  0.00212704  0.00262237  0.00308596  0.00309385  0.00393745
    Gval  0.00393794
  9.428901111271964E-006  9.428901111271964E-006
  9.752292869728463E-006  9.428901111271964E-006
  1.159908823178647E-005  9.428901111271964E-006
  1.378857067033026E-005  9.428901111271964E-006
  1.484869553918618E-005  9.428901111271964E-006
  1.941382855844877E-005  9.428901111271964E-006
  2.370588961711542E-005  9.428901111271964E-006
  2.441620455418411E-005  9.428901111271964E-006
  2.607375456096105E-005  9.428901111271964E-006
  3.123202322971473E-005  9.428901111271964E-006
  3.949358362213319E-005  9.428901111271964E-006
  4.545879873117090E-005  9.428901111271964E-006
  4.753066081220107E-005  9.428901111271964E-006
  5.381710495989841E-005  9.428901111271964E-006
  6.173259616027224E-005  9.428901111271964E-006
  6.341711676844391E-005  9.428901111271964E-006
  6.394722136950471E-005  9.428901111271964E-006
  6.683359993145400E-005  9.428901111271964E-006
  8.526693433565075E-005  9.428901111271964E-006
  8.945590983990324E-005  9.428901111271964E-006
  9.291558722921656E-005  9.428901111271964E-006
  9.840602860778448E-005  9.428901111271964E-006
  1.094893424803767E-004  9.428901111271964E-006
  1.116102036489478E-004  9.428901111271964E-006
  1.176044339064138E-004  9.428901111271964E-006
  1.338259113314819E-004  9.428901111271964E-006
  1.498747014171551E-004  9.428901111271964E-006
  1.588199894348636E-004  9.428901111271964E-006
  1.745190921034104E-004  9.428901111271964E-006
  2.105644417456236E-004  9.428901111271964E-006
  2.115549737184981E-004  9.428901111271964E-006
  2.146519421337985E-004  9.428901111271964E-006
  2.582851571667749E-004  9.428901111271964E-006
  3.053186533490053E-004  9.428901111271964E-006
  3.200680850831048E-004  9.428901111271964E-006
  3.233174218441639E-004  9.428901111271964E-006
  3.252752632383017E-004  9.428901111271964E-006
  3.763966148029813E-004  9.428901111271964E-006
  3.867252150208875E-004  9.428901111271964E-006
  3.870480942732968E-004  9.428901111271964E-006
  4.059264940707250E-004  9.428901111271964E-006
  4.091152180600543E-004  9.428901111271964E-006
  4.453753818777094E-004  9.428901111271964E-006
  4.633214738033717E-004  9.428901111271964E-006
  4.773880811561281E-004  9.428901111271964E-006
  5.538500532825399E-004  9.428901111271964E-006
  5.942723944966184E-004  9.428901111271964E-006
  5.942781920606830E-004  9.428901111271964E-006
  6.090357768354913E-004  9.428901111271964E-006
  6.102497126494861E-004  9.428901111271964E-006
  6.504383394546108E-004  9.428901111271964E-006
  6.508075060912247E-004  9.428901111271964E-006
  7.564523352732717E-004  9.428901111271964E-006
  7.694887508604776E-004  9.428901111271964E-006
  1.016749434164353E-003  9.428901111271964E-006
  1.064718180427235E-003  9.428901111271964E-006
  1.065171956636199E-003  9.428901111271964E-006
  1.110418804553221E-003  9.428901111271964E-006
  1.138255619978126E-003  9.428901111271964E-006
  1.138282230665194E-003  9.428901111271964E-006
  1.168416171869802E-003  9.428901111271964E-006
  1.168490676798047E-003  9.428901111271964E-006
  1.247462482742330E-003  9.428901111271964E-006
  1.606714881702950E-003  9.428901111271964E-006
  1.719794984066860E-003  9.428901111271964E-006
  1.940770405145532E-003  9.428901111271964E-006
  2.127035582974226E-003  9.428901111271964E-006
  2.622367670892719E-003  9.428901111271964E-006
  3.085959766789438E-003  9.428901111271964E-006
  3.093853615508027E-003  9.428901111271964E-006
  3.937448097210770E-003  9.428901111271964E-006
  3.937939542597124E-003  9.428901111271964E-006
 cut=1d-8, nber non-redundant internal coords=          72
 Check on Eigenvals of non-red overlap matrix:
  0.00000943  0.00000975  0.00001160  0.00001379  0.00001485  0.00001941  0.00002371  0.00002442
  0.00002607  0.00003123  0.00003949  0.00004546  0.00004753  0.00005382  0.00006173  0.00006342
  0.00006395  0.00006683  0.00008527  0.00008946  0.00009292  0.00009841  0.00010949  0.00011161
  0.00011760  0.00013383  0.00014987  0.00015882  0.00017452  0.00021056  0.00021155  0.00021465
  0.00025829  0.00030532  0.00032007  0.00032332  0.00032528  0.00037640  0.00038673  0.00038705
  0.00040593  0.00040912  0.00044538  0.00046332  0.00047739  0.00055385  0.00059427  0.00059428
  0.00060904  0.00061025  0.00065044  0.00065081  0.00075645  0.00076949  0.00101675  0.00106472
  0.00106517  0.00111042  0.00113826  0.00113828  0.00116842  0.00116849  0.00124746  0.00160671
  0.00171979  0.00194077  0.00212704  0.00262237  0.00308596  0.00309385  0.00393745  0.00393794
 Checking for correct frequencies
 recalc frequencies=
    -0.0   -0.0   -0.0   -0.0   -0.0    0.0   53.3   63.8   73.9  136.8
   185.8  202.6  280.8  290.5  291.3  341.4  351.5  370.1  374.1  376.5
   376.7  425.3  461.2  486.2  500.5  512.6  525.7  562.3  619.7  647.8
   658.0  726.8  737.8  762.8  775.3  802.6  804.5  820.2  821.9  848.8
   919.8  973.4  985.1  988.7  998.9 1002.7 1015.2 1024.3 1051.1 1093.0
  1099.6 1174.8 1182.7 1247.7 1256.5 1258.2 1268.2 1319.3 1337.9 1346.9
  1417.4 1425.9 1483.2 1497.2 1520.0 1576.2 1581.9 1598.6 1599.2 1663.4
  1677.8 1682.2 3147.6 3147.7 3177.2 3177.3 3181.2 3181.5
 recalc symmetries=
     B3u    B2u    B2g    B1u    B3g    B1g    Au     B1u    B2g    B1u
     B3g    Au     B2g    B3u    B2u    B1g    Ag     B2u    B1g    Ag 
     B3g    B1u    Ag     B2u    Au     B1u    B3u    B2g    B3g    B1g
     B3u    B1u    B2g    B1g    B2g    B2u    Ag     Au     B1u    B2g
     B3u    B2u    B3g    Au     B1u    B2g    B3u    Ag     B1g    Ag 
     B3u    B2u    B1g    B1g    Ag     B2u    B3u    Ag     B1g    B2u
     B2u    B3u    B1g    Ag     B2u    B1g    B2u    B3u    Ag     B1g
     Ag     B3u    B3u    Ag     B2u    B1g    B3u    Ag 
 recalc freqs check OK
 Zero-point lengths:
 10.0000 10.0000 10.0000 10.0000 10.0000 10.0000 33.9602 31.0299 28.8341 21.1931
 18.1866 17.4179 14.7943 14.5447 14.5261 13.4167 13.2228 12.8865 12.8177 12.7757
 12.7731 12.0216 11.5433 11.2434 11.0818 10.9494 10.8124 10.4543  9.9590  9.7403
  9.6644  9.1958  9.1268  8.9760  8.9037  8.7510  8.7403  8.6561  8.6476  8.5092
  8.1741  7.9460  7.8988  7.8843  7.8440  7.8289  7.7808  7.7460  7.6468  7.4988
  7.4761  7.2328  7.2086  7.0186  6.9939  6.9890  6.9615  6.8254  6.7778  6.7551
  6.5848  6.5652  6.4372  6.4071  6.3588  6.2444  6.2331  6.2005  6.1994  6.0784
  6.0524  6.0444  4.4188  4.4188  4.3982  4.3981  4.3954  4.3952
 highest evec of mol 2
 -0.0014  0.0008  0.0000
  0.0015 -0.0019  0.0000
 -0.0015 -0.0019  0.0000
  0.0014  0.0008  0.0000
  0.0036 -0.0010  0.0000
 -0.0623 -0.1204  0.0000
 -0.0786  0.0000  0.0000
 -0.0623  0.1204  0.0000
  0.0036  0.0010  0.0000
 -0.0015  0.0019  0.0000
  0.0014 -0.0008  0.0000
  0.0015  0.0019  0.0000
 -0.0014 -0.0008  0.0000
 -0.0036  0.0010  0.0000
  0.0623  0.1204  0.0000
  0.0786  0.0000  0.0000
  0.0623 -0.1204  0.0000
 -0.0036 -0.0010  0.0000
 -0.0012  0.0000  0.0000
  0.0012  0.0000  0.0000
  0.2153  0.3904  0.0000
  0.2439  0.0000  0.0000
  0.2153 -0.3904  0.0000
 -0.2153 -0.3904  0.0000
 -0.2439  0.0000  0.0000
 -0.2153  0.3904  0.0000
 Enter nber and list of atoms to keep of mol #2
 keep list:          26           1           2           3           4
           5           6           7           8           9          10
          11          12          13          14          15          16
          17          18          19          20          21          22
          23          24          25          26
 reordering atoms
           1  -3.60638200000000     
           2  -2.54184600000000     
           3  -2.54184600000000     
           4  -3.60638200000000     
           5  -1.22846600000000     
           6  -1.20290100000000     
           7  5.551556645365234E-017
           8   1.20290100000000     
           9   1.22846600000000     
          10   2.54184600000000     
          11   3.60638200000000     
          12   2.54184600000000     
          13   3.60638200000000     
          14   1.22846600000000     
          15   1.20290100000000     
          16  5.551556645365234E-017
          17  -1.20290100000000     
          18  -1.22846600000000     
          19  5.551556645365234E-017
          20  5.551556645365234E-017
          21  -2.15828900000000     
          22  5.551556645365234E-017
          23   2.15828900000000     
          24   2.15828900000000     
          25  5.551556645365234E-017
          26  -2.15828900000000     
           1           1
           2           2
           3           3
           4           4
           5           5
           6           6
           7           7
           8           8
           9           9
          10          10
          11          11
          12          12
          13          13
          14          14
          15          15
          16          16
          17          17
          18          18
          19          19
          20          20
          21          21
          22          22
          23          23
          24          24
          25          25
          26          26
 initial cartes coords mol 1
   8   0.00000   1.36768  -3.57949
   6   0.00000   0.77435  -2.52580
   6   0.00000  -0.77435  -2.52580
   8   0.00000  -1.36768  -3.57949
   6   0.00000  -1.46321  -1.20903
   6   0.00000  -2.86207  -1.19847
   6   0.00000  -3.56476  -0.00000
   6   0.00000  -2.86207   1.19847
   6   0.00000  -1.46321   1.20903
   6   0.00000  -0.77435   2.52580
   8   0.00000  -1.36768   3.57949
   6   0.00000   0.77435   2.52580
   8   0.00000   1.36768   3.57949
   6   0.00000   1.46321   1.20903
   6   0.00000   2.86207   1.19847
   6   0.00000   3.56476  -0.00000
   6   0.00000   2.86207  -1.19847
   6   0.00000   1.46321  -1.20903
   6   0.00000   0.73789  -0.00000
   6   0.00000  -0.73789  -0.00000
   1   0.00000  -3.37344  -2.15350
   1   0.00000  -4.64798  -0.00000
   1   0.00000  -3.37344   2.15350
   1   0.00000   3.37344   2.15350
   1   0.00000   4.64798  -0.00000
   1   0.00000   3.37344  -2.15350
 initial cartes coords mol 2
   8   0.00000   1.37794  -3.60638
   6   0.00000   0.76043  -2.54185
   6   0.00000  -0.76043  -2.54185
   8   0.00000  -1.37794  -3.60638
   6   0.00000  -1.43980  -1.22847
   6   0.00000  -2.83661  -1.20290
   6   0.00000  -3.53727   0.00000
   6   0.00000  -2.83661   1.20290
   6   0.00000  -1.43980   1.22847
   6   0.00000  -0.76043   2.54185
   8   0.00000  -1.37794   3.60638
   6   0.00000   0.76043   2.54185
   8   0.00000   1.37794   3.60638
   6   0.00000   1.43980   1.22847
   6   0.00000   2.83661   1.20290
   6   0.00000   3.53727   0.00000
   6   0.00000   2.83661  -1.20290
   6   0.00000   1.43980  -1.22847
   6   0.00000   0.71488   0.00000
   6   0.00000  -0.71488   0.00000
   1   0.00000  -3.35025  -2.15829
   1   0.00000  -4.62292   0.00000
   1   0.00000  -3.35025   2.15829
   1   0.00000   3.35025   2.15829
   1   0.00000   4.62292   0.00000
   1   0.00000   3.35025  -2.15829
 loop 1 0
 mod cartes coords mol 2
   8   0.00000   1.37794  -3.60638
   6   0.00000   0.76043  -2.54185
   6   0.00000  -0.76043  -2.54185
   8   0.00000  -1.37794  -3.60638
   6   0.00000  -1.43980  -1.22847
   6   0.00000  -2.83661  -1.20290
   6   0.00000  -3.53727   0.00000
   6   0.00000  -2.83661   1.20290
   6   0.00000  -1.43980   1.22847
   6   0.00000  -0.76043   2.54185
   8   0.00000  -1.37794   3.60638
   6   0.00000   0.76043   2.54185
   8   0.00000   1.37794   3.60638
   6   0.00000   1.43980   1.22847
   6   0.00000   2.83661   1.20290
   6   0.00000   3.53727   0.00000
   6   0.00000   2.83661  -1.20290
   6   0.00000   1.43980  -1.22847
   6   0.00000   0.71488   0.00000
   6   0.00000  -0.71488   0.00000
   1   0.00000  -3.35025  -2.15829
   1   0.00000  -4.62292   0.00000
   1   0.00000  -3.35025   2.15829
   1   0.00000   3.35025   2.15829
   1   0.00000   4.62292   0.00000
   1   0.00000   3.35025  -2.15829
 read in order, maxerr=  0.03 for atom   5
 final axis swaps:           1           1           1
 final xyz swap pattern=           1
 reorder list:
   1   2   3   4   5   6   7   8   9  10  11  12  13  14  15  16  17  18  19  20
  21  22  23  24  25  26
 axis signs=           1           1           1
  8     0.000000  1.377945 -3.606382     0.000000  1.367680 -3.579487
  6     0.000000  0.760426 -2.541846     0.000000  0.774346 -2.525803
  6     0.000000 -0.760426 -2.541846     0.000000 -0.774346 -2.525803
  8     0.000000 -1.377945 -3.606382     0.000000 -1.367680 -3.579487
  6     0.000000 -1.439800 -1.228466     0.000000 -1.463210 -1.209034
  6     0.000000 -2.836614 -1.202901     0.000000 -2.862071 -1.198466
  6     0.000000 -3.537274  0.000000     0.000000 -3.564760 -0.000000
  6     0.000000 -2.836614  1.202901     0.000000 -2.862071  1.198466
  6     0.000000 -1.439800  1.228466     0.000000 -1.463210  1.209034
  6     0.000000 -0.760426  2.541846     0.000000 -0.774346  2.525803
  8     0.000000 -1.377945  3.606382     0.000000 -1.367680  3.579487
  6     0.000000  0.760426  2.541846     0.000000  0.774346  2.525803
  8     0.000000  1.377945  3.606382     0.000000  1.367680  3.579487
  6     0.000000  1.439800  1.228466     0.000000  1.463210  1.209034
  6     0.000000  2.836614  1.202901     0.000000  2.862071  1.198466
  6     0.000000  3.537274  0.000000     0.000000  3.564760 -0.000000
  6     0.000000  2.836614 -1.202901     0.000000  2.862071 -1.198466
  6     0.000000  1.439800 -1.228466     0.000000  1.463210 -1.209034
  6     0.000000  0.714880  0.000000     0.000000  0.737892 -0.000000
  6     0.000000 -0.714880  0.000000     0.000000 -0.737892 -0.000000
  1     0.000000 -3.350246 -2.158289     0.000000 -3.373441 -2.153498
  1     0.000000 -4.622917  0.000000     0.000000 -4.647978 -0.000000
  1     0.000000 -3.350246  2.158289     0.000000 -3.373441  2.153498
  1     0.000000  3.350246  2.158289     0.000000  3.373441  2.153498
  1     0.000000  4.622917  0.000000     0.000000  4.647978 -0.000000
  1     0.000000  3.350246 -2.158289     0.000000  3.373441 -2.153498
 generating redundant internal coords
         300        3600          26
 Adding extra bonds for z output only
           8           6           6           8           6           6
           6           6           6           6           8           6
           8           6           6           6           6           6
           6           6           1           1           1           1
           1           1
 search for int coords
   1 str   2   1   1.231
   2 str   3   2   1.521
   3 str   4   3   1.231
   4 str   5   3   1.479
   5 str   6   5   1.397
   6 str   7   6   1.392
   7 str   8   7   1.392
   8 str   9   8   1.397
   9 str  10   9   1.479
  10 str  11  10   1.231
  11 str  12  10   1.521
  12 str  13  12   1.231
  13 str  14  12   1.479
  14 str  15  14   1.397
  15 str  16  15   1.392
  16 str  17  16   1.392
  17 str  18   2   1.479
  18 str  18  17   1.397
  19 str  19  14   1.426
  20 str  19  18   1.426
  21 str  20   5   1.426
  22 str  20   9   1.426
  23 str  20  19   1.430
  24 str  21   6   1.085
  25 str  22   7   1.086
  26 str  23   8   1.085
  27 str  24  15   1.085
  28 str  25  16   1.086
  29 str  26  17   1.085
 nber stretches=          29
  30 ben   1   2   3
  31 prop tor   1   2   3   4
  32 prop tor   1   2   3   5
  33 ben   1   2  18
  34 prop tor   1   2  18  17
  35 prop tor   1   2  18  19
  36 ben   2   3   4
  37 ben   2   3   5
  38 prop tor   2   3   5   6
  39 prop tor   2   3   5  20
  40 ben   2  18  17
  41 ben   2  18  19
  42 prop tor   2  18  19  14
  43 prop tor   2  18  19  20
  44 ben   3   2  18
  45 prop tor   3   2  18  17
  46 prop tor   3   2  18  19
  47 ben   3   5   6
  48 prop tor   3   5   6   7
  49 prop tor   3   5   6  21
  50 ben   3   5  20
  51 prop tor   3   5  20   9
  52 prop tor   3   5  20  19
  53 ben   4   3   5
  54 prop tor   4   3   5   6
  55 prop tor   4   3   5  20
  56 ben   5   6   7
  57 prop tor   5   6   7   8
  58 prop tor   5   6   7  22
  59 ben   5   6  21
  60 ben   5  20   9
  61 ben   5  20  19
  62 ben   6   5  20
  63 prop tor   6   5  20   9
  64 prop tor   6   5  20  19
  65 ben   6   7   8
  66 prop tor   6   7   8   9
  67 prop tor   6   7   8  23
  68 ben   6   7  22
  69 ben   7   6  21
  70 ben   7   8   9
  71 prop tor   7   8   9  10
  72 prop tor   7   8   9  20
  73 ben   7   8  23
  74 ben   8   7  22
  75 ben   8   9  10
  76 prop tor   8   9  10  11
  77 prop tor   8   9  10  12
  78 ben   8   9  20
  79 prop tor   8   9  20   5
  80 prop tor   8   9  20  19
  81 ben   9   8  23
  82 ben   9  10  11
  83 ben   9  10  12
  84 prop tor   9  10  12  13
  85 prop tor   9  10  12  14
  86 ben   9  20  19
  87 ben  10   9  20
  88 prop tor  10   9  20   5
  89 prop tor  10   9  20  19
  90 ben  10  12  13
  91 ben  10  12  14
  92 prop tor  10  12  14  15
  93 prop tor  10  12  14  19
  94 ben  11  10  12
  95 prop tor  11  10  12  13
  96 prop tor  11  10  12  14
  97 ben  12  14  15
  98 prop tor  12  14  15  16
  99 prop tor  12  14  15  24
 100 ben  12  14  19
 101 prop tor  12  14  19  18
 102 prop tor  12  14  19  20
 103 ben  13  12  14
 104 prop tor  13  12  14  15
 105 prop tor  13  12  14  19
 106 ben  14  15  16
 107 prop tor  14  15  16  17
 108 prop tor  14  15  16  25
 109 ben  14  15  24
 110 ben  14  19  18
 111 ben  14  19  20
 112 prop tor  14  19  20   5
 113 prop tor  14  19  20   9
 114 ben  15  14  19
 115 prop tor  15  14  19  18
 116 prop tor  15  14  19  20
 117 ben  15  16  17
 118 prop tor  15  16  17  18
 119 prop tor  15  16  17  26
 120 ben  15  16  25
 121 ben  16  15  24
 122 ben  16  17  18
 123 prop tor  16  17  18   2
 124 prop tor  16  17  18  19
 125 ben  16  17  26
 126 ben  17  16  25
 127 ben  17  18  19
 128 prop tor  17  18  19  14
 129 prop tor  17  18  19  20
 130 prop tor  18   2   3   4
 131 prop tor  18   2   3   5
 132 ben  18  17  26
 133 ben  18  19  20
 134 prop tor  18  19  20   5
 135 prop tor  18  19  20   9
 136 prop tor  19  14  15  16
 137 prop tor  19  14  15  24
 138 prop tor  20   5   6   7
 139 prop tor  20   5   6  21
 140 prop tor  20   9  10  11
 141 prop tor  20   9  10  12
 142 prop tor  21   6   7   8
 143 prop tor  21   6   7  22
 144 prop tor  22   7   8   9
 145 prop tor  22   7   8  23
 146 prop tor  23   8   9  10
 147 prop tor  23   8   9  20
 148 prop tor  24  15  16  17
 149 prop tor  24  15  16  25
 150 prop tor  25  16  17  18
 151 prop tor  25  16  17  26
 152 prop tor  26  17  18   2
 153 prop tor  26  17  18  19
 nber bend=              48
 nber lin bend=           0
 nber prop tor=          76
 nber impr tor=           0
 nber tot redund int=         153
 generating redundant internal coords
         300        3600          26
 search for int coords
   1 str   2   1   1.209
   2 str   3   2   1.549
   3 str   4   3   1.209
   4 str   5   3   1.486
   5 str   6   5   1.399
   6 str   7   6   1.389
   7 str   8   7   1.389
   8 str   9   8   1.399
   9 str  10   9   1.486
  10 str  11  10   1.209
  11 str  12  10   1.549
  12 str  13  12   1.209
  13 str  14  12   1.486
  14 str  15  14   1.399
  15 str  16  15   1.389
  16 str  17  16   1.389
  17 str  18   2   1.486
  18 str  18  17   1.399
  19 str  19  14   1.410
  20 str  19  18   1.410
  21 str  20   5   1.410
  22 str  20   9   1.410
  23 str  20  19   1.476
  24 str  21   6   1.083
  25 str  22   7   1.083
  26 str  23   8   1.083
  27 str  24  15   1.083
  28 str  25  16   1.083
  29 str  26  17   1.083
 nber stretches=          29
  30 ben   1   2   3
  31 prop tor   1   2   3   4
  32 prop tor   1   2   3   5
  33 ben   1   2  18
  34 prop tor   1   2  18  17
  35 prop tor   1   2  18  19
  36 ben   2   3   4
  37 ben   2   3   5
  38 prop tor   2   3   5   6
  39 prop tor   2   3   5  20
  40 ben   2  18  17
  41 ben   2  18  19
  42 prop tor   2  18  19  14
  43 prop tor   2  18  19  20
  44 ben   3   2  18
  45 prop tor   3   2  18  17
  46 prop tor   3   2  18  19
  47 ben   3   5   6
  48 prop tor   3   5   6   7
  49 prop tor   3   5   6  21
  50 ben   3   5  20
  51 prop tor   3   5  20   9
  52 prop tor   3   5  20  19
  53 ben   4   3   5
  54 prop tor   4   3   5   6
  55 prop tor   4   3   5  20
  56 ben   5   6   7
  57 prop tor   5   6   7   8
  58 prop tor   5   6   7  22
  59 ben   5   6  21
  60 ben   5  20   9
  61 ben   5  20  19
  62 ben   6   5  20
  63 prop tor   6   5  20   9
  64 prop tor   6   5  20  19
  65 ben   6   7   8
  66 prop tor   6   7   8   9
  67 prop tor   6   7   8  23
  68 ben   6   7  22
  69 ben   7   6  21
  70 ben   7   8   9
  71 prop tor   7   8   9  10
  72 prop tor   7   8   9  20
  73 ben   7   8  23
  74 ben   8   7  22
  75 ben   8   9  10
  76 prop tor   8   9  10  11
  77 prop tor   8   9  10  12
  78 ben   8   9  20
  79 prop tor   8   9  20   5
  80 prop tor   8   9  20  19
  81 ben   9   8  23
  82 ben   9  10  11
  83 ben   9  10  12
  84 prop tor   9  10  12  13
  85 prop tor   9  10  12  14
  86 ben   9  20  19
  87 ben  10   9  20
  88 prop tor  10   9  20   5
  89 prop tor  10   9  20  19
  90 ben  10  12  13
  91 ben  10  12  14
  92 prop tor  10  12  14  15
  93 prop tor  10  12  14  19
  94 ben  11  10  12
  95 prop tor  11  10  12  13
  96 prop tor  11  10  12  14
  97 ben  12  14  15
  98 prop tor  12  14  15  16
  99 prop tor  12  14  15  24
 100 ben  12  14  19
 101 prop tor  12  14  19  18
 102 prop tor  12  14  19  20
 103 ben  13  12  14
 104 prop tor  13  12  14  15
 105 prop tor  13  12  14  19
 106 ben  14  15  16
 107 prop tor  14  15  16  17
 108 prop tor  14  15  16  25
 109 ben  14  15  24
 110 ben  14  19  18
 111 ben  14  19  20
 112 prop tor  14  19  20   5
 113 prop tor  14  19  20   9
 114 ben  15  14  19
 115 prop tor  15  14  19  18
 116 prop tor  15  14  19  20
 117 ben  15  16  17
 118 prop tor  15  16  17  18
 119 prop tor  15  16  17  26
 120 ben  15  16  25
 121 ben  16  15  24
 122 ben  16  17  18
 123 prop tor  16  17  18   2
 124 prop tor  16  17  18  19
 125 ben  16  17  26
 126 ben  17  16  25
 127 ben  17  18  19
 128 prop tor  17  18  19  14
 129 prop tor  17  18  19  20
 130 prop tor  18   2   3   4
 131 prop tor  18   2   3   5
 132 ben  18  17  26
 133 ben  18  19  20
 134 prop tor  18  19  20   5
 135 prop tor  18  19  20   9
 136 prop tor  19  14  15  16
 137 prop tor  19  14  15  24
 138 prop tor  20   5   6   7
 139 prop tor  20   5   6  21
 140 prop tor  20   9  10  11
 141 prop tor  20   9  10  12
 142 prop tor  21   6   7   8
 143 prop tor  21   6   7  22
 144 prop tor  22   7   8   9
 145 prop tor  22   7   8  23
 146 prop tor  23   8   9  10
 147 prop tor  23   8   9  20
 148 prop tor  24  15  16  17
 149 prop tor  24  15  16  25
 150 prop tor  25  16  17  18
 151 prop tor  25  16  17  26
 152 prop tor  26  17  18   2
 153 prop tor  26  17  18  19
 nber bend=              48
 nber lin bend=           0
 nber prop tor=          76
 nber impr tor=           0
 nber tot redund int=         153
 Eigenvalues of G in red int coords
    Gval -0.00000000 -0.00000000 -0.00000000 -0.00000000 -0.00000000 -0.00000000 -0.00000000 -0.00000000
    Gval -0.00000000 -0.00000000 -0.00000000 -0.00000000 -0.00000000 -0.00000000 -0.00000000 -0.00000000
    Gval -0.00000000 -0.00000000 -0.00000000 -0.00000000 -0.00000000 -0.00000000 -0.00000000 -0.00000000
    Gval -0.00000000 -0.00000000 -0.00000000 -0.00000000 -0.00000000 -0.00000000 -0.00000000 -0.00000000
    Gval -0.00000000 -0.00000000 -0.00000000 -0.00000000 -0.00000000 -0.00000000 -0.00000000 -0.00000000
    Gval  0.00000000  0.00000000  0.00000000  0.00000000  0.00000000  0.00000000  0.00000000  0.00000000
    Gval  0.00000000  0.00000000  0.00000000  0.00000000  0.00000000  0.00000000  0.00000000  0.00000000
    Gval  0.00000000  0.00000000  0.00000000  0.00000000  0.00000000  0.00000000  0.00000000  0.00000000
    Gval  0.00000000  0.00000000  0.00000000  0.00000000  0.00000000  0.00000000  0.00000000  0.00000000
    Gval  0.00000000  0.00000000  0.00000000  0.00000000  0.00000000  0.00000000  0.00000000  0.00000000
    Gval  0.00000000  0.00000962  0.00000976  0.00001153  0.00001378  0.00001487  0.00001945  0.00002409
    Gval  0.00002486  0.00002600  0.00003113  0.00003944  0.00004530  0.00004822  0.00005391  0.00006202
    Gval  0.00006330  0.00006402  0.00006737  0.00008496  0.00008946  0.00009454  0.00009869  0.00011003
    Gval  0.00011204  0.00011793  0.00013402  0.00015166  0.00016000  0.00017515  0.00020950  0.00021279
    Gval  0.00021529  0.00026051  0.00030515  0.00032034  0.00032110  0.00032280  0.00038366  0.00038682
    Gval  0.00038711  0.00040291  0.00040635  0.00044562  0.00045785  0.00048163  0.00056480  0.00059431
    Gval  0.00059431  0.00060899  0.00061014  0.00065044  0.00065074  0.00074933  0.00077002  0.00100238
    Gval  0.00106834  0.00106879  0.00110209  0.00114166  0.00114168  0.00117345  0.00117352  0.00125089
    Gval  0.00160258  0.00174283  0.00195232  0.00213872  0.00261980  0.00310108  0.00310860  0.00396413
    Gval  0.00396465
  9.616377724311596E-006  9.616377724311596E-006
  9.760754718762974E-006  9.616377724311596E-006
  1.153393765766237E-005  9.616377724311596E-006
  1.377872948333587E-005  9.616377724311596E-006
  1.487033723968851E-005  9.616377724311596E-006
  1.944830727176225E-005  9.616377724311596E-006
  2.408629584371653E-005  9.616377724311596E-006
  2.485713737434344E-005  9.616377724311596E-006
  2.600473315097066E-005  9.616377724311596E-006
  3.113059342309611E-005  9.616377724311596E-006
  3.943855919503740E-005  9.616377724311596E-006
  4.530465545552927E-005  9.616377724311596E-006
  4.821878717451659E-005  9.616377724311596E-006
  5.390779088283285E-005  9.616377724311596E-006
  6.202406699070357E-005  9.616377724311596E-006
  6.329624094704522E-005  9.616377724311596E-006
  6.401617834533529E-005  9.616377724311596E-006
  6.736791650707827E-005  9.616377724311596E-006
  8.495565340209064E-005  9.616377724311596E-006
  8.946074532160889E-005  9.616377724311596E-006
  9.453798452642881E-005  9.616377724311596E-006
  9.868990481178347E-005  9.616377724311596E-006
  1.100285819627971E-004  9.616377724311596E-006
  1.120406095832757E-004  9.616377724311596E-006
  1.179251529244400E-004  9.616377724311596E-006
  1.340178596425266E-004  9.616377724311596E-006
  1.516592876508999E-004  9.616377724311596E-006
  1.599957453937101E-004  9.616377724311596E-006
  1.751539729330659E-004  9.616377724311596E-006
  2.094985488915117E-004  9.616377724311596E-006
  2.127912483537045E-004  9.616377724311596E-006
  2.152926337486666E-004  9.616377724311596E-006
  2.605064871800400E-004  9.616377724311596E-006
  3.051486650854666E-004  9.616377724311596E-006
  3.203384873742021E-004  9.616377724311596E-006
  3.211045688272535E-004  9.616377724311596E-006
  3.227967004190828E-004  9.616377724311596E-006
  3.836558627163219E-004  9.616377724311596E-006
  3.868179911369451E-004  9.616377724311596E-006
  3.871062814613903E-004  9.616377724311596E-006
  4.029114070484680E-004  9.616377724311596E-006
  4.063515268191875E-004  9.616377724311596E-006
  4.456218478756603E-004  9.616377724311596E-006
  4.578510379877402E-004  9.616377724311596E-006
  4.816321890557136E-004  9.616377724311596E-006
  5.648024338925170E-004  9.616377724311596E-006
  5.943050446013967E-004  9.616377724311596E-006
  5.943084273997677E-004  9.616377724311596E-006
  6.089866784367667E-004  9.616377724311596E-006
  6.101425875717590E-004  9.616377724311596E-006
  6.504447590821419E-004  9.616377724311596E-006
  6.507350892841640E-004  9.616377724311596E-006
  7.493289846877828E-004  9.616377724311596E-006
  7.700162466397302E-004  9.616377724311596E-006
  1.002375531829674E-003  9.616377724311596E-006
  1.068337272062301E-003  9.616377724311596E-006
  1.068785543062954E-003  9.616377724311596E-006
  1.102092705530509E-003  9.616377724311596E-006
  1.141657070219995E-003  9.616377724311596E-006
  1.141677759941884E-003  9.616377724311596E-006
  1.173452546228577E-003  9.616377724311596E-006
  1.173523780029482E-003  9.616377724311596E-006
  1.250894465558750E-003  9.616377724311596E-006
  1.602583734882927E-003  9.616377724311596E-006
  1.742825003281112E-003  9.616377724311596E-006
  1.952317206923633E-003  9.616377724311596E-006
  2.138718189938055E-003  9.616377724311596E-006
  2.619801606114220E-003  9.616377724311596E-006
  3.101082625861235E-003  9.616377724311596E-006
  3.108596734902657E-003  9.616377724311596E-006
  3.964134672354221E-003  9.616377724311596E-006
  3.964645289584364E-003  9.616377724311596E-006
 cut=1d-8, nber non-redundant internal coords=          72
 Check on Eigenvals of non-red overlap matrix:
  0.00000962  0.00000976  0.00001153  0.00001378  0.00001487  0.00001945  0.00002409  0.00002486
  0.00002600  0.00003113  0.00003944  0.00004530  0.00004822  0.00005391  0.00006202  0.00006330
  0.00006402  0.00006737  0.00008496  0.00008946  0.00009454  0.00009869  0.00011003  0.00011204
  0.00011793  0.00013402  0.00015166  0.00016000  0.00017515  0.00020950  0.00021279  0.00021529
  0.00026051  0.00030515  0.00032034  0.00032110  0.00032280  0.00038366  0.00038682  0.00038711
  0.00040291  0.00040635  0.00044562  0.00045785  0.00048163  0.00056480  0.00059431  0.00059431
  0.00060899  0.00061014  0.00065044  0.00065074  0.00074933  0.00077002  0.00100238  0.00106834
  0.00106879  0.00110209  0.00114166  0.00114168  0.00117345  0.00117352  0.00125089  0.00160258
  0.00174283  0.00195232  0.00213872  0.00261980  0.00310108  0.00310860  0.00396413  0.00396465
 generating redundant internal coords
         300        3600          26
 search for int coords
   1 str   2   1   1.231
   2 str   3   2   1.521
   3 str   4   3   1.231
   4 str   5   3   1.479
   5 str   6   5   1.397
   6 str   7   6   1.392
   7 str   8   7   1.392
   8 str   9   8   1.397
   9 str  10   9   1.479
  10 str  11  10   1.231
  11 str  12  10   1.521
  12 str  13  12   1.231
  13 str  14  12   1.479
  14 str  15  14   1.397
  15 str  16  15   1.392
  16 str  17  16   1.392
  17 str  18   2   1.479
  18 str  18  17   1.397
  19 str  19  14   1.426
  20 str  19  18   1.426
  21 str  20   5   1.426
  22 str  20   9   1.426
  23 str  20  19   1.430
  24 str  21   6   1.085
  25 str  22   7   1.086
  26 str  23   8   1.085
  27 str  24  15   1.085
  28 str  25  16   1.086
  29 str  26  17   1.085
 nber stretches=          29
  30 ben   1   2   3
  31 prop tor   1   2   3   4
  32 prop tor   1   2   3   5
  33 ben   1   2  18
  34 prop tor   1   2  18  17
  35 prop tor   1   2  18  19
  36 ben   2   3   4
  37 ben   2   3   5
  38 prop tor   2   3   5   6
  39 prop tor   2   3   5  20
  40 ben   2  18  17
  41 ben   2  18  19
  42 prop tor   2  18  19  14
  43 prop tor   2  18  19  20
  44 ben   3   2  18
  45 prop tor   3   2  18  17
  46 prop tor   3   2  18  19
  47 ben   3   5   6
  48 prop tor   3   5   6   7
  49 prop tor   3   5   6  21
  50 ben   3   5  20
  51 prop tor   3   5  20   9
  52 prop tor   3   5  20  19
  53 ben   4   3   5
  54 prop tor   4   3   5   6
  55 prop tor   4   3   5  20
  56 ben   5   6   7
  57 prop tor   5   6   7   8
  58 prop tor   5   6   7  22
  59 ben   5   6  21
  60 ben   5  20   9
  61 ben   5  20  19
  62 ben   6   5  20
  63 prop tor   6   5  20   9
  64 prop tor   6   5  20  19
  65 ben   6   7   8
  66 prop tor   6   7   8   9
  67 prop tor   6   7   8  23
  68 ben   6   7  22
  69 ben   7   6  21
  70 ben   7   8   9
  71 prop tor   7   8   9  10
  72 prop tor   7   8   9  20
  73 ben   7   8  23
  74 ben   8   7  22
  75 ben   8   9  10
  76 prop tor   8   9  10  11
  77 prop tor   8   9  10  12
  78 ben   8   9  20
  79 prop tor   8   9  20   5
  80 prop tor   8   9  20  19
  81 ben   9   8  23
  82 ben   9  10  11
  83 ben   9  10  12
  84 prop tor   9  10  12  13
  85 prop tor   9  10  12  14
  86 ben   9  20  19
  87 ben  10   9  20
  88 prop tor  10   9  20   5
  89 prop tor  10   9  20  19
  90 ben  10  12  13
  91 ben  10  12  14
  92 prop tor  10  12  14  15
  93 prop tor  10  12  14  19
  94 ben  11  10  12
  95 prop tor  11  10  12  13
  96 prop tor  11  10  12  14
  97 ben  12  14  15
  98 prop tor  12  14  15  16
  99 prop tor  12  14  15  24
 100 ben  12  14  19
 101 prop tor  12  14  19  18
 102 prop tor  12  14  19  20
 103 ben  13  12  14
 104 prop tor  13  12  14  15
 105 prop tor  13  12  14  19
 106 ben  14  15  16
 107 prop tor  14  15  16  17
 108 prop tor  14  15  16  25
 109 ben  14  15  24
 110 ben  14  19  18
 111 ben  14  19  20
 112 prop tor  14  19  20   5
 113 prop tor  14  19  20   9
 114 ben  15  14  19
 115 prop tor  15  14  19  18
 116 prop tor  15  14  19  20
 117 ben  15  16  17
 118 prop tor  15  16  17  18
 119 prop tor  15  16  17  26
 120 ben  15  16  25
 121 ben  16  15  24
 122 ben  16  17  18
 123 prop tor  16  17  18   2
 124 prop tor  16  17  18  19
 125 ben  16  17  26
 126 ben  17  16  25
 127 ben  17  18  19
 128 prop tor  17  18  19  14
 129 prop tor  17  18  19  20
 130 prop tor  18   2   3   4
 131 prop tor  18   2   3   5
 132 ben  18  17  26
 133 ben  18  19  20
 134 prop tor  18  19  20   5
 135 prop tor  18  19  20   9
 136 prop tor  19  14  15  16
 137 prop tor  19  14  15  24
 138 prop tor  20   5   6   7
 139 prop tor  20   5   6  21
 140 prop tor  20   9  10  11
 141 prop tor  20   9  10  12
 142 prop tor  21   6   7   8
 143 prop tor  21   6   7  22
 144 prop tor  22   7   8   9
 145 prop tor  22   7   8  23
 146 prop tor  23   8   9  10
 147 prop tor  23   8   9  20
 148 prop tor  24  15  16  17
 149 prop tor  24  15  16  25
 150 prop tor  25  16  17  18
 151 prop tor  25  16  17  26
 152 prop tor  26  17  18   2
 153 prop tor  26  17  18  19
 nber bend=              48
 nber lin bend=           0
 nber prop tor=          76
 nber impr tor=           0
 nber tot redund int=         153
 Eigenvalues of G in red int coords
    Gval -0.00000000 -0.00000000 -0.00000000 -0.00000000 -0.00000000 -0.00000000 -0.00000000 -0.00000000
    Gval -0.00000000 -0.00000000 -0.00000000 -0.00000000 -0.00000000 -0.00000000 -0.00000000 -0.00000000
    Gval -0.00000000 -0.00000000 -0.00000000 -0.00000000 -0.00000000 -0.00000000 -0.00000000 -0.00000000
    Gval -0.00000000 -0.00000000 -0.00000000 -0.00000000 -0.00000000 -0.00000000 -0.00000000 -0.00000000
    Gval -0.00000000 -0.00000000 -0.00000000 -0.00000000  0.00000000  0.00000000  0.00000000  0.00000000
    Gval  0.00000000  0.00000000  0.00000000  0.00000000  0.00000000  0.00000000  0.00000000  0.00000000
    Gval  0.00000000  0.00000000  0.00000000  0.00000000  0.00000000  0.00000000  0.00000000  0.00000000
    Gval  0.00000000  0.00000000  0.00000000  0.00000000  0.00000000  0.00000000  0.00000000  0.00000000
    Gval  0.00000000  0.00000000  0.00000000  0.00000000  0.00000000  0.00000000  0.00000000  0.00000000
    Gval  0.00000000  0.00000000  0.00000000  0.00000000  0.00000000  0.00000000  0.00000000  0.00000000
    Gval  0.00000000  0.00000943  0.00000975  0.00001160  0.00001379  0.00001485  0.00001941  0.00002371
    Gval  0.00002442  0.00002607  0.00003123  0.00003949  0.00004546  0.00004753  0.00005382  0.00006173
    Gval  0.00006342  0.00006395  0.00006683  0.00008527  0.00008946  0.00009292  0.00009841  0.00010949
    Gval  0.00011161  0.00011760  0.00013383  0.00014987  0.00015882  0.00017452  0.00021056  0.00021155
    Gval  0.00021465  0.00025829  0.00030532  0.00032007  0.00032332  0.00032528  0.00037640  0.00038673
    Gval  0.00038705  0.00040593  0.00040912  0.00044538  0.00046332  0.00047739  0.00055385  0.00059427
    Gval  0.00059428  0.00060904  0.00061025  0.00065044  0.00065081  0.00075645  0.00076949  0.00101675
    Gval  0.00106472  0.00106517  0.00111042  0.00113826  0.00113828  0.00116842  0.00116849  0.00124746
    Gval  0.00160671  0.00171979  0.00194077  0.00212704  0.00262237  0.00308596  0.00309385  0.00393745
    Gval  0.00393794
  9.428901111271964E-006  9.428901111271964E-006
  9.752292869728463E-006  9.428901111271964E-006
  1.159908823178647E-005  9.428901111271964E-006
  1.378857067033026E-005  9.428901111271964E-006
  1.484869553918618E-005  9.428901111271964E-006
  1.941382855844877E-005  9.428901111271964E-006
  2.370588961711542E-005  9.428901111271964E-006
  2.441620455418411E-005  9.428901111271964E-006
  2.607375456096105E-005  9.428901111271964E-006
  3.123202322971473E-005  9.428901111271964E-006
  3.949358362213319E-005  9.428901111271964E-006
  4.545879873117090E-005  9.428901111271964E-006
  4.753066081220107E-005  9.428901111271964E-006
  5.381710495989841E-005  9.428901111271964E-006
  6.173259616027224E-005  9.428901111271964E-006
  6.341711676844391E-005  9.428901111271964E-006
  6.394722136950471E-005  9.428901111271964E-006
  6.683359993145400E-005  9.428901111271964E-006
  8.526693433565075E-005  9.428901111271964E-006
  8.945590983990324E-005  9.428901111271964E-006
  9.291558722921656E-005  9.428901111271964E-006
  9.840602860778448E-005  9.428901111271964E-006
  1.094893424803767E-004  9.428901111271964E-006
  1.116102036489478E-004  9.428901111271964E-006
  1.176044339064138E-004  9.428901111271964E-006
  1.338259113314819E-004  9.428901111271964E-006
  1.498747014171551E-004  9.428901111271964E-006
  1.588199894348636E-004  9.428901111271964E-006
  1.745190921034104E-004  9.428901111271964E-006
  2.105644417456236E-004  9.428901111271964E-006
  2.115549737184981E-004  9.428901111271964E-006
  2.146519421337985E-004  9.428901111271964E-006
  2.582851571667749E-004  9.428901111271964E-006
  3.053186533490053E-004  9.428901111271964E-006
  3.200680850831048E-004  9.428901111271964E-006
  3.233174218441639E-004  9.428901111271964E-006
  3.252752632383017E-004  9.428901111271964E-006
  3.763966148029813E-004  9.428901111271964E-006
  3.867252150208875E-004  9.428901111271964E-006
  3.870480942732968E-004  9.428901111271964E-006
  4.059264940707250E-004  9.428901111271964E-006
  4.091152180600543E-004  9.428901111271964E-006
  4.453753818777094E-004  9.428901111271964E-006
  4.633214738033717E-004  9.428901111271964E-006
  4.773880811561281E-004  9.428901111271964E-006
  5.538500532825399E-004  9.428901111271964E-006
  5.942723944966184E-004  9.428901111271964E-006
  5.942781920606830E-004  9.428901111271964E-006
  6.090357768354913E-004  9.428901111271964E-006
  6.102497126494861E-004  9.428901111271964E-006
  6.504383394546108E-004  9.428901111271964E-006
  6.508075060912247E-004  9.428901111271964E-006
  7.564523352732717E-004  9.428901111271964E-006
  7.694887508604776E-004  9.428901111271964E-006
  1.016749434164353E-003  9.428901111271964E-006
  1.064718180427235E-003  9.428901111271964E-006
  1.065171956636199E-003  9.428901111271964E-006
  1.110418804553221E-003  9.428901111271964E-006
  1.138255619978126E-003  9.428901111271964E-006
  1.138282230665194E-003  9.428901111271964E-006
  1.168416171869802E-003  9.428901111271964E-006
  1.168490676798047E-003  9.428901111271964E-006
  1.247462482742330E-003  9.428901111271964E-006
  1.606714881702950E-003  9.428901111271964E-006
  1.719794984066860E-003  9.428901111271964E-006
  1.940770405145532E-003  9.428901111271964E-006
  2.127035582974226E-003  9.428901111271964E-006
  2.622367670892719E-003  9.428901111271964E-006
  3.085959766789438E-003  9.428901111271964E-006
  3.093853615508027E-003  9.428901111271964E-006
  3.937448097210770E-003  9.428901111271964E-006
  3.937939542597124E-003  9.428901111271964E-006
 cut=1d-8, nber non-redundant internal coords=          72
 Check on Eigenvals of non-red overlap matrix:
  0.00000943  0.00000975  0.00001160  0.00001379  0.00001485  0.00001941  0.00002371  0.00002442
  0.00002607  0.00003123  0.00003949  0.00004546  0.00004753  0.00005382  0.00006173  0.00006342
  0.00006395  0.00006683  0.00008527  0.00008946  0.00009292  0.00009841  0.00010949  0.00011161
  0.00011760  0.00013383  0.00014987  0.00015882  0.00017452  0.00021056  0.00021155  0.00021465
  0.00025829  0.00030532  0.00032007  0.00032332  0.00032528  0.00037640  0.00038673  0.00038705
  0.00040593  0.00040912  0.00044538  0.00046332  0.00047739  0.00055385  0.00059427  0.00059428
  0.00060904  0.00061025  0.00065044  0.00065081  0.00075645  0.00076949  0.00101675  0.00106472
  0.00106517  0.00111042  0.00113826  0.00113828  0.00116842  0.00116849  0.00124746  0.00160671
  0.00171979  0.00194077  0.00212704  0.00262237  0.00308596  0.00309385  0.00393745  0.00393794
 d1=
   0.0   6.2  -0.0  -0.0  15.3  -0.0  -4.1   0.0  -0.0   0.0  -0.0   0.0   0.0   0.0   2.9  -0.0  -0.0   0.0  -0.0   5.3
  -0.0   0.3  -0.0  -0.0   0.0   0.0  -0.0   0.0  -1.8   0.0   0.0  -0.0   1.6  -0.0  -0.0   0.0   0.0  -0.0   0.0  -2.3
  -0.0  -0.0  -0.0   0.0  -0.1  -0.0  -0.2  -0.0   0.0  -0.0   0.6   0.0   0.0   0.0   0.0   0.0  -0.0  -0.0  -0.6  -0.0
   0.0   0.0   0.0   0.0   0.0  -0.0  -0.0   0.0   0.0  -0.0  -0.0  -0.0
 d2=
[...]
 nber times 1st assigned=           4           0
 nber times 1st assigned=           5           0
 nber times 1st assigned=           6           0
 nber times 1st assigned=           7           0
 nber times 1st assigned=          10           0
 nber times 1st assigned=          12           0
 nber times 1st assigned=          13           0
 nber times 1st assigned=          17           0
 nber times 1st assigned=          18           0
 nber times 1st assigned=          19           0
 nber times 1st assigned=          20           0
 nber times 1st assigned=          21           0
 nber times 1st assigned=          22           0
 nber times 1st assigned=          23           0
 nber times 1st assigned=          24           0
 nber times 1st assigned=          25           0
 nber times 1st assigned=          26           0
 nber times 1st assigned=          27           0
 nber times 1st assigned=          28           0
 nber times 1st assigned=          29           0
 nber times 1st assigned=          30           0
 nber times 1st assigned=          31           0
 nber times 1st assigned=          32           0
 nber times 1st assigned=          33           0
 nber times 1st assigned=          34           0
 nber times 1st assigned=          35           0
 nber times 1st assigned=          36           0
 nber times 1st assigned=          37           0
 nber times 1st assigned=          38           0
 nber times 1st assigned=          39           0
 nber times 1st assigned=          40           0
 nber times 1st assigned=          41           0
 nber times 1st assigned=          42           0
 nber times 1st assigned=          43           0
 nber times 1st assigned=          44           0
 nber times 1st assigned=          45           0
 nber times 1st assigned=          46           0
 nber times 1st assigned=          47           0
 nber times 1st assigned=          48           0
 nber times 1st assigned=          49           0
 nber times 1st assigned=          50           0
 nber times 1st assigned=          51           0
 nber times 1st assigned=          52           0
 nber times 1st assigned=          53           0
 nber times 1st assigned=          54           0
 nber times 1st assigned=          55           0
 nber times 1st assigned=          56           0
 nber times 1st assigned=          57           0
 nber times 1st assigned=          58           0
 nber times 1st assigned=          59           0
 nber times 1st assigned=          60           0
 nber times 1st assigned=          61           0
 nber times 1st assigned=          62           0
 nber times 1st assigned=          63           0
 nber times 1st assigned=          64           0
 nber times 1st assigned=          65           0
 nber times 1st assigned=          66           0
 nber times 1st assigned=          67           0
 nber times 1st assigned=          68           0
 nber times 1st assigned=          69           0
 nber times 1st assigned=          70           0
 nber times 1st assigned=          71           0
 nber times 1st assigned=          72           0
 nber times 1st assigned=          73           0
 nber times 1st assigned=          74           0
 nber times 1st assigned=          75           0
 nber times 1st assigned=          76           0
 nber times 1st assigned=          77           0
 nber times 1st assigned=          78           0
 Dushinsky matrix written to .out file
 modes represented=   71.8370825754681     

 Dushinsky matrix, ncs 1 in terms of ncs 2

   mode   freq    coeff     %      %tot     of    at

   7 Au     35.  0.9997    99.9    98.0   7 Au     53.
   8 B2g    56.  0.9990    99.8    98.3   9 B2g    74.
   9 B1u    58.  0.9994    99.9   100.6   8 B1u    64.
  10 B1u   141.  0.9989    99.8    99.6  10 B1u   137.
  11 B3g   170.  0.9993    99.9    99.8  11 B3g   186.
  12 Au    178.  0.9978    99.6   100.4  12 Au    203.
  13 B2g   281.  0.9988    99.8   101.7  13 B2g   281.
  14 B3u   293.  0.9998   100.0    97.8  14 B3u   291.
  15 B2u   320.  0.9187    84.4   100.4  15 B2u   291.
                -0.3858    14.9          18 B2u   370.
  16 B1g   336.  0.9964    99.3    99.2  16 B1g   341.
  17 Ag    347.  0.9988    99.8   100.3  17 Ag    352.
  18 B3g   370.  0.9999   100.0    98.0  21 B3g   377.
  19 B1g   371.  0.9958    99.2   101.8  19 B1g   374.
  20 B2u   376.  0.3401    11.6    98.1  15 B2u   291.
                 0.9124    83.2          18 B2u   370.
  21 Ag    379.  0.9975    99.5    97.1  20 Ag    377.
  22 B1u   443.  0.9948    99.0    98.7  22 B1u   425.
  23 Ag    450.  0.9975    99.5   100.1  23 Ag    461.
  24 Au    474.  0.9977    99.5    99.3  25 Au    500.
  25 B2u   507.  0.9703    94.2    99.8  24 B2u   486.
  26 B1u   507.  0.9964    99.3   100.0  26 B1u   513.
  27 B3u   529.  0.9989    99.8   100.9  27 B3u   526.
  28 B2g   565.  0.9974    99.5   101.5  28 B2g   562.
  29 B3g   614.  0.9997    99.9    99.4  29 B3g   620.
  30 B1g   646. -0.9990    99.8   100.2  30 B1g   648.
  31 B3u   661.  0.9995    99.9    99.1  31 B3u   658.
  32 B2g   742.  0.9967    99.3   100.2  33 B2g   738.
  33 B1u   744.  0.9945    98.9    98.6  32 B1u   727.
  34 B1g   763. -0.9987    99.7   100.1  34 B1g   763.
  35 Ag    796.  0.9982    99.6    99.9  37 Ag    805.
  36 B2g   798.  0.9927    98.6    99.5  35 B2g   775.
  37 B2u   828.  0.9628    92.7    99.6  36 B2u   803.
  38 B1u   839.  0.9926    98.5    99.4  39 B1u   822.
  39 Au    847.  0.9992    99.8   100.7  38 Au    820.
  40 B2g   889.  0.9907    98.2   100.3  40 B2g   849.
  41 B3u   921. -0.9982    99.6   100.3  41 B3u   920.
  42 B3g   994.  0.9999   100.0    99.5  43 B3g   985.
  43 Au    999.  0.9996    99.9    99.6  44 Au    989.
  44 Ag   1018. -0.9937    98.7    99.1  48 Ag   1024.
  45 B3u  1021.  0.9988    99.8    99.2  47 B3u  1015.
  46 B1u  1030.  0.9932    98.6    99.4  45 B1u   999.
  47 B2g  1031.  0.9920    98.4    99.5  46 B2g  1003.
  48 B1g  1052. -0.9905    98.1   101.4  49 B1g  1051.
  49 B2u  1060. -0.9192    84.5    99.1  42 B2u   973.
  50 Ag   1105. -0.9935    98.7    99.9  50 Ag   1093.
  51 B3u  1119. -0.9997    99.9    99.9  51 B3u  1100.
  52 B1g  1191.  0.9871    97.4   100.0  53 B1g  1183.
  53 B2u  1192.  0.9915    98.3    99.8  52 B2u  1175.
  54 B1g  1268. -0.9807    96.2    99.6  54 B1g  1248.
  55 B3u  1278.  0.9983    99.7   100.2  57 B3u  1268.
  56 Ag   1282. -0.9554    91.3    99.3  58 Ag   1319.
  57 B2u  1289.  0.9267    85.9    99.5  56 B2u  1258.
  58 Ag   1307.  0.9660    93.3    99.9  55 Ag   1256.
  59 B1g  1339. -0.9734    94.8   100.4  59 B1g  1338.
  60 B2u  1358.  0.9147    83.7    99.9  60 B2u  1347.
                 0.3327    11.1          61 B2u  1417.
  61 B3u  1453.  0.9964    99.3    99.9  62 B3u  1426.
  62 B2u  1478.  0.7374    54.4    99.5  61 B2u  1417.
                 0.6427    41.3          65 B2u  1520.
  63 Ag   1494.  0.9552    91.2    99.7  64 Ag   1497.
  64 B1g  1498.  0.9724    94.6    99.6  63 B1g  1483.
  65 B2u  1600. -0.3560    12.7   100.1  61 B2u  1417.
                 0.4789    22.9          65 B2u  1520.
                 0.7830    61.3          67 B2u  1582.
  66 Ag   1618.  0.9201    84.7    99.6  69 Ag   1599.
                -0.3771    14.2          71 Ag   1678.
  67 B3u  1621. -0.9356    87.5    99.7  68 B3u  1599.
                 0.3463    12.0          72 B3u  1682.
  68 B1g  1631.  0.9660    93.3   100.8  66 B1g  1576.
  69 B2u  1754. -0.3697    13.7   100.1  61 B2u  1417.
                 0.5511    30.4          65 B2u  1520.
                -0.6023    36.3          67 B2u  1582.
  70 Ag   1760.  0.3727    13.9   100.1  69 Ag   1599.
                 0.9179    84.3          71 Ag   1678.
  71 B1g  1780.  0.9762    95.3   100.2  70 B1g  1663.
  72 B3u  1784.  0.3454    11.9   100.2  68 B3u  1599.
                 0.9364    87.7          72 B3u  1682.
  73 B3u  3184.  0.9781    95.7   100.0  73 B3u  3148.
  74 Ag   3184.  0.9785    95.7   100.0  74 Ag   3148.
  75 B1g  3198.  1.0000   100.0   100.0  76 B1g  3177.
  76 B2u  3199.  1.0000   100.0   100.0  75 B2u  3177.
  77 B3u  3204.  0.9781    95.7   100.0  77 B3u  3181.
  78 Ag   3204.  0.9785    95.7   100.0  78 Ag   3181.
 nber times 1st assigned=           1           0
 nber times 1st assigned=           2           0
 nber times 1st assigned=           3           0
 nber times 1st assigned=           4           0
 nber times 1st assigned=           5           0
 nber times 1st assigned=           6           0
 nber times 1st assigned=           7           0
 nber times 1st assigned=           8           0
 nber times 1st assigned=           9           0
 nber times 1st assigned=          10           0
 nber times 1st assigned=          11           0
 nber times 1st assigned=          12           0
 nber times 1st assigned=          13           0
 nber times 1st assigned=          14           0
 nber times 1st assigned=          15           0
 nber times 1st assigned=          16           0
 nber times 1st assigned=          17           0
 nber times 1st assigned=          18           0
 nber times 1st assigned=          19           0
 nber times 1st assigned=          20           0
 nber times 1st assigned=          21           0
 nber times 1st assigned=          22           0
 nber times 1st assigned=          23           0
 nber times 1st assigned=          24           0
 nber times 1st assigned=          25           0
 nber times 1st assigned=          26           0
 nber times 1st assigned=          27           0
 nber times 1st assigned=          28           0
 nber times 1st assigned=          29           0
 nber times 1st assigned=          30           0
 nber times 1st assigned=          31           0
 nber times 1st assigned=          32           0
 nber times 1st assigned=          33           0
 nber times 1st assigned=          34           0
 nber times 1st assigned=          35           0
 nber times 1st assigned=          36           0
 nber times 1st assigned=          37           0
 nber times 1st assigned=          38           0
 nber times 1st assigned=          39           0
 nber times 1st assigned=          40           0
 nber times 1st assigned=          41           0
 nber times 1st assigned=          42           0
 nber times 1st assigned=          43           0
 nber times 1st assigned=          44           0
 nber times 1st assigned=          45           0
 nber times 1st assigned=          46           0
 nber times 1st assigned=          47           0
 nber times 1st assigned=          48           0
 nber times 1st assigned=          49           0
 nber times 1st assigned=          50           0
 nber times 1st assigned=          51           0
 nber times 1st assigned=          52           0
 nber times 1st assigned=          53           0
 nber times 1st assigned=          54           0
 nber times 1st assigned=          55           0
 nber times 1st assigned=          56           0
 nber times 1st assigned=          57           0
 nber times 1st assigned=          58           0
 nber times 1st assigned=          59           0
 nber times 1st assigned=          60           0
 nber times 1st assigned=          61           0
 nber times 1st assigned=          62           0
 nber times 1st assigned=          63           0
 nber times 1st assigned=          64           0
 nber times 1st assigned=          65           0
 nber times 1st assigned=          66           0
 nber times 1st assigned=          67           0
 nber times 1st assigned=          68           0
 nber times 1st assigned=          69           0
 nber times 1st assigned=          70           0
 nber times 1st assigned=          71           0
 nber times 1st assigned=          72           0
 nber times 1st assigned=          73           0
 nber times 1st assigned=          74           0
 nber times 1st assigned=          75           0
 nber times 1st assigned=          76           0
 nber times 1st assigned=          77           0
 nber times 1st assigned=          78           0
 modes represented=   71.8370825754681     
 p1=
    0.    0.    0.   -0.    0.   -0.   -0.    0.   -0.    0.    0.   -0.    0.    0.   -0.    0.   16.   -0.   -0.    0.
   -5.   -0.    4.   -0.   -0.   -0.   -0.   -0.    0.    0.    0.   -0.   -0.   -0.    1.    0.    0.    0.    0.    0.
   -0.   -0.   -0.   -3.   -0.    0.   -0.   -0.    0.   -0.   -0.    0.    0.   -0.    0.   -1.   -0.    2.   -0.   -0.
    0.   -0.    3.    0.   -0.    0.   -0.    0.    0.    5.    0.   -0.    0.   -0.    0.    0.   -0.   -0.
 p2=
   -0.    0.   -0.    0.    0.   -0.    0.    0.   -0.   -0.   -0.    0.   -0.    0.    0.    0.  -16.   -0.    0.    4.
    0.    0.   -4.   -0.    0.    0.   -0.    0.   -0.    0.   -0.    0.    0.    0.   -0.    0.   -1.   -0.   -0.   -0.
   -0.    0.    0.    0.   -0.    0.    0.   -2.   -0.   -0.    0.   -0.   -0.    0.   -2.   -0.   -0.   -1.    0.    0.
    0.    0.   -0.   -2.   -0.   -0.   -0.    0.   -2.   -0.   -5.    0.   -0.    0.    0.   -0.    0.    0.

 Displacement: in terms of nc of 1 THEN of nc of 2

   1 B1g freq=    -0. Q=  0.000 lam=    -0.0 B3u freq=    -0. Q=  0.000 lam=    -0.0
   2 B2u freq=    -0. Q=  0.000 lam=    -0.0 B2u freq=    -0. Q=  0.000 lam=    -0.0
   3 B3u freq=    -0. Q=  0.000 lam=    -0.0 B2g freq=    -0. Q=  0.000 lam=    -0.0
   4 B3g freq=    -0. Q= -0.000 lam=    -0.0 B1u freq=    -0. Q= -0.000 lam=    -0.0
   5 B1u freq=     0. Q=  0.000 lam=     0.0 B3g freq=    -0. Q=  0.000 lam=    -0.0
   6 B2g freq=     0. Q= -0.000 lam=     0.0 B1g freq=     0. Q= -0.000 lam=     0.0
   7 Au  freq=    35. Q= -0.000 lam=     0.0 Au  freq=    53. Q= -0.000 lam=     0.0
   8 B2g freq=    56. Q=  0.000 lam=     0.0 B1u freq=    64. Q=  0.000 lam=     0.0
   9 B1u freq=    58. Q= -0.000 lam=     0.0 B2g freq=    74. Q= -0.000 lam=     0.0
  10 B1u freq=   141. Q=  0.000 lam=     0.0 B1u freq=   137. Q=  0.000 lam=     0.0
  11 B3g freq=   170. Q=  0.000 lam=     0.0 B3g freq=   186. Q=  0.000 lam=     0.0
  12 Au  freq=   178. Q= -0.000 lam=     0.0 Au  freq=   203. Q= -0.000 lam=     0.0
  13 B2g freq=   281. Q=  0.000 lam=     0.0 B2g freq=   281. Q=  0.000 lam=     0.0
  14 B3u freq=   293. Q=  0.000 lam=     0.0 B3u freq=   291. Q=  0.000 lam=     0.0
  15 B2u freq=   320. Q= -0.000 lam=     0.0 B2u freq=   291. Q= -0.000 lam=     0.0
  16 B1g freq=   336. Q=  0.000 lam=     0.0 B1g freq=   341. Q=  0.000 lam=     0.0
  17 Ag  freq=   347. Q=  1.212 lam=   255.0 Ag  freq=   352. Q=  1.226 lam=   264.1
  18 B3g freq=   370. Q= -0.000 lam=     0.0 B2u freq=   370. Q= -0.000 lam=     0.0
  19 B1g freq=   371. Q= -0.000 lam=     0.0 B1g freq=   374. Q= -0.000 lam=     0.0
  20 B2u freq=   376. Q=  0.000 lam=     0.0 Ag  freq=   377. Q=  0.292 lam=    16.0
  21 Ag  freq=   379. Q= -0.357 lam=    24.1 B3g freq=   377. Q= -0.000 lam=     0.0
  22 B1u freq=   443. Q= -0.000 lam=     0.0 B1u freq=   425. Q= -0.000 lam=     0.0
  23 Ag  freq=   450. Q=  0.320 lam=    23.1 Ag  freq=   461. Q=  0.353 lam=    28.8
  24 Au  freq=   474. Q= -0.000 lam=     0.0 B2u freq=   486. Q= -0.000 lam=     0.0
  25 B2u freq=   507. Q= -0.000 lam=     0.0 Au  freq=   500. Q= -0.000 lam=     0.0
  26 B1u freq=   507. Q= -0.000 lam=     0.0 B1u freq=   513. Q= -0.000 lam=     0.0
  27 B3u freq=   529. Q= -0.000 lam=     0.0 B3u freq=   526. Q= -0.000 lam=     0.0
  28 B2g freq=   565. Q= -0.000 lam=     0.0 B2g freq=   562. Q= -0.000 lam=     0.0
  29 B3g freq=   614. Q=  0.000 lam=     0.0 B3g freq=   620. Q=  0.000 lam=     0.0
  30 B1g freq=   646. Q=  0.000 lam=     0.0 B1g freq=   648. Q=  0.000 lam=     0.0
  31 B3u freq=   661. Q=  0.000 lam=     0.0 B3u freq=   658. Q=  0.000 lam=     0.0
  32 B2g freq=   742. Q= -0.000 lam=     0.0 B1u freq=   727. Q= -0.000 lam=     0.0
  33 B1u freq=   744. Q= -0.000 lam=     0.0 B2g freq=   738. Q= -0.000 lam=     0.0
  34 B1g freq=   763. Q= -0.000 lam=     0.0 B1g freq=   763. Q= -0.000 lam=     0.0
  35 Ag  freq=   796. Q=  0.097 lam=     3.7 B2g freq=   775. Q=  0.000 lam=     0.0
  36 B2g freq=   798. Q=  0.000 lam=     0.0 B2u freq=   803. Q=  0.000 lam=     0.0
  37 B2u freq=   828. Q=  0.000 lam=     0.0 Ag  freq=   805. Q=  0.117 lam=     5.5
  38 B1u freq=   839. Q=  0.000 lam=     0.0 Au  freq=   820. Q=  0.000 lam=     0.0
  39 Au  freq=   847. Q=  0.000 lam=     0.0 B1u freq=   822. Q=  0.000 lam=     0.0
  40 B2g freq=   889. Q=  0.000 lam=     0.0 B2g freq=   849. Q=  0.000 lam=     0.0
  41 B3u freq=   921. Q= -0.000 lam=     0.0 B3u freq=   920. Q= -0.000 lam=     0.0
  42 B3g freq=   994. Q= -0.000 lam=     0.0 B2u freq=   973. Q= -0.000 lam=     0.0
  43 Au  freq=   999. Q= -0.000 lam=     0.0 B3g freq=   985. Q= -0.000 lam=     0.0
  44 Ag  freq=  1018. Q= -0.332 lam=    56.0 Au  freq=   989. Q= -0.000 lam=     0.0
  45 B3u freq=  1021. Q= -0.000 lam=     0.0 B1u freq=   999. Q= -0.000 lam=     0.0
  46 B1u freq=  1030. Q=  0.000 lam=     0.0 B2g freq=  1003. Q=  0.000 lam=     0.0
  47 B2g freq=  1031. Q= -0.000 lam=     0.0 B3u freq=  1015. Q= -0.000 lam=     0.0
  48 B1g freq=  1052. Q= -0.000 lam=     0.0 Ag  freq=  1024. Q= -0.304 lam=    47.3
  49 B2u freq=  1060. Q=  0.000 lam=     0.0 B1g freq=  1051. Q=  0.000 lam=     0.0
  50 Ag  freq=  1105. Q= -0.054 lam=     1.6 Ag  freq=  1093. Q= -0.020 lam=     0.2
  51 B3u freq=  1119. Q= -0.000 lam=     0.0 B3u freq=  1100. Q= -0.000 lam=     0.0
  52 B1g freq=  1191. Q=  0.000 lam=     0.0 B2u freq=  1175. Q=  0.000 lam=     0.0
  53 B2u freq=  1192. Q=  0.000 lam=     0.0 B1g freq=  1183. Q=  0.000 lam=     0.0
  54 B1g freq=  1268. Q= -0.000 lam=     0.0 B1g freq=  1248. Q= -0.000 lam=     0.0
  55 B3u freq=  1278. Q=  0.000 lam=     0.0 Ag  freq=  1256. Q=  0.311 lam=    60.8
  56 Ag  freq=  1282. Q= -0.143 lam=    13.0 B2u freq=  1258. Q= -0.000 lam=     0.0
  57 B2u freq=  1289. Q= -0.000 lam=     0.0 B3u freq=  1268. Q= -0.000 lam=     0.0
  58 Ag  freq=  1307. Q=  0.309 lam=    62.6 Ag  freq=  1319. Q=  0.170 lam=    19.1
  59 B1g freq=  1339. Q= -0.000 lam=     0.0 B1g freq=  1338. Q= -0.000 lam=     0.0
  60 B2u freq=  1358. Q= -0.000 lam=     0.0 B2u freq=  1347. Q= -0.000 lam=     0.0
  61 B3u freq=  1453. Q=  0.000 lam=     0.0 B2u freq=  1417. Q=  0.000 lam=     0.0
  62 B2u freq=  1478. Q= -0.000 lam=     0.0 B3u freq=  1426. Q= -0.000 lam=     0.0
  63 Ag  freq=  1494. Q=  0.406 lam=   123.3 B1g freq=  1483. Q=  0.000 lam=     0.0
  64 B1g freq=  1498. Q=  0.000 lam=     0.0 Ag  freq=  1497. Q=  0.345 lam=    89.2
  65 B2u freq=  1600. Q= -0.000 lam=     0.0 B2u freq=  1520. Q= -0.000 lam=     0.0
  66 Ag  freq=  1618. Q=  0.002 lam=     0.0 B1g freq=  1576. Q=  0.000 lam=     0.0
  67 B3u freq=  1621. Q= -0.000 lam=     0.0 B2u freq=  1582. Q= -0.000 lam=     0.0
  68 B1g freq=  1631. Q=  0.000 lam=     0.0 B3u freq=  1599. Q=  0.000 lam=     0.0
  69 B2u freq=  1754. Q=  0.000 lam=     0.0 Ag  freq=  1599. Q=  0.322 lam=    82.9
  70 Ag  freq=  1760. Q=  0.814 lam=   583.1 B1g freq=  1663. Q=  0.000 lam=     0.0
  71 B1g freq=  1780. Q=  0.000 lam=     0.0 Ag  freq=  1678. Q=  0.801 lam=   537.7
  72 B3u freq=  1784. Q= -0.000 lam=     0.0 B3u freq=  1682. Q= -0.000 lam=     0.0
  73 B3u freq=  3184. Q=  0.000 lam=     0.0 B3u freq=  3148. Q=  0.000 lam=     0.0
  74 Ag  freq=  3184. Q= -0.013 lam=     0.3 Ag  freq=  3148. Q= -0.021 lam=     0.7
  75 B1g freq=  3198. Q=  0.000 lam=     0.0 B2u freq=  3177. Q=  0.000 lam=     0.0
  76 B2u freq=  3199. Q=  0.000 lam=     0.0 B1g freq=  3177. Q=  0.000 lam=     0.0
  77 B3u freq=  3204. Q= -0.000 lam=     0.0 B3u freq=  3181. Q= -0.000 lam=     0.0
  78 Ag  freq=  3204. Q= -0.038 lam=     2.3 Ag  freq=  3181. Q= -0.034 lam=     1.9

 total reorg energy (cm**-1, kcal/mol)=     1148.     1154.      3.28      3.30
 Nber of molecules processed=           2
