 Enter ifcurve (0=recti, 1=orth curvi, 2=apprx curvi, -1 = skip
 And atom ordering flag, 0= never changes, 1= use the first order thenceforth,
  2= deduce it (does read on fail), 3= always read it
 Reading file: 
 ./TT-PDI_2_C0S1.log                                                            
                                          
  Entering Gaussian System, Link 0=g16                                          
  
 Gaussian format, type: g94, g98, g03= F F F
  #P Geom=AllCheck Guess=TCheck SCRF=Check GenChk RB3LYP TD(FC,Read)/6-3    
 energy type= TD      
 Original G94 input coords:
  6  1.293567  0.850495  0.232004
  6  2.508453 -0.062708  0.033261
  6  3.725503  0.665205 -0.548364
  7  2.851012 -0.810912  1.279024
  6  2.726878 -2.216175  1.231430
  8  2.355333 -2.783120  0.212221
  6  3.063150 -2.957759  2.456411
  6  2.957573 -4.348781  2.462595
  6  3.266086 -5.075265  3.597480
  6  3.697427 -4.449490  4.788986
  6  4.023249 -5.198790  5.982942
  6  3.925646 -6.612784  6.021321
  6  4.235141 -7.321179  7.152399
  6  4.663089 -6.666953  8.322485
  6  4.970384 -7.480143  9.469601
  8  4.913769 -8.681887  9.581386
  7  5.413049 -6.699142 10.654473
  6  5.711359 -7.380678 11.736602
  6  5.986666 -8.022980 12.736945
  6  6.294516 -8.752040 13.855078
  6  6.232648-10.158062 13.990213
  6  6.614765-10.560189 15.259807
 16  6.761440-12.105458 16.068393
  6  7.291226-11.302018 17.513463
  6  7.360461 -9.928242 17.409054
  6  6.976595 -9.502731 16.129147
 16  6.837535 -7.954858 15.343012
  6  5.550554 -5.221227 10.729064
  8  5.924322 -4.747111 11.775593
  6  5.208057 -4.546020  9.505096
  6  5.308832 -3.142532  9.481764
  6  4.999916 -2.431906  8.351930
  6  4.568160 -3.077185  7.165507
  6  4.241960 -2.327952  5.971632
  6  4.332545 -0.918796  5.914507
  6  4.018241 -0.213719  4.767637
  6  3.596625 -0.878094  3.616057
  6  3.270024 -0.096306  2.412332
  8  3.356730  1.125462  2.389981
  6  3.489714 -2.285268  3.621719
  6  3.812577 -3.027666  4.804824
  6  4.455101 -4.503791  7.157092
  6  4.781171 -5.252137  8.349292
  1  0.993664  1.263629 -0.735504
  1  1.517621  1.672843  0.910140
  1  0.447757  0.283299  0.629539
  1  2.226114 -0.853080 -0.658850
  1  4.050278  1.480582  0.096590
  1  3.463620  1.074303 -1.528537
  1  4.557967 -0.029519 -0.688061
  1  2.628353 -4.841454  1.556635
  1  3.169279 -6.150678  3.554494
  1  3.601202 -7.155233  5.145845
  1  4.156917 -8.400846  7.169735
  1  5.920223-10.793634 13.175076
  1  7.529146-11.896032 18.383064
  1  7.671930 -9.285221 18.219088
  1  5.637591 -2.638604 10.381811
  1  5.091460 -1.356305  8.378341
  1  4.654738 -0.360879  6.782082
  1  4.091978  0.865931  4.737438
 nber atoms=          61
  Total Energy, E(TD-HF/TD-DFT) =  -2551.81966913                               
  
          32          49 "  -2551.81966913"
After scan for Atom:   Atom  AN      X      Y      Z        X      Y      Z        X      Y      Z   
After scan for Atom:   Atom  AN      X      Y      Z        X      Y      Z        X      Y      Z   
After scan for Atom:   Atom  AN      X      Y      Z        X      Y      Z        X      Y      Z   
After scan for Atom:   Atom  AN      X      Y      Z        X      Y      Z        X      Y      Z   
After scan for Atom:   Atom  AN      X      Y      Z        X      Y      Z        X      Y      Z   
After scan for Atom:   Atom  AN      X      Y      Z        X      Y      Z        X      Y      Z   
After scan for Atom:   Atom  AN      X      Y      Z        X      Y      Z        X      Y      Z   
After scan for Atom:   Atom  AN      X      Y      Z        X      Y      Z        X      Y      Z   
After scan for Atom:   Atom  AN      X      Y      Z        X      Y      Z        X      Y      Z   
After scan for Atom:   Atom  AN      X      Y      Z        X      Y      Z        X      Y      Z   
After scan for Atom:   Atom  AN      X      Y      Z        X      Y      Z        X      Y      Z   
After scan for Atom:   Atom  AN      X      Y      Z        X      Y      Z        X      Y      Z   
After scan for Atom:   Atom  AN      X      Y      Z        X      Y      Z        X      Y      Z   
After scan for Atom:   Atom  AN      X      Y      Z        X      Y      Z        X      Y      Z   
After scan for Atom:   Atom  AN      X      Y      Z        X      Y      Z        X      Y      Z   
After scan for Atom:   Atom  AN      X      Y      Z        X      Y      Z        X      Y      Z   
After scan for Atom:   Atom  AN      X      Y      Z        X      Y      Z        X      Y      Z   
After scan for Atom:   Atom  AN      X      Y      Z        X      Y      Z        X      Y      Z   
After scan for Atom:   Atom  AN      X      Y      Z        X      Y      Z        X      Y      Z   
After scan for Atom:   Atom  AN      X      Y      Z        X      Y      Z        X      Y      Z   
After scan for Atom:   Atom  AN      X      Y      Z        X      Y      Z        X      Y      Z   
After scan for Atom:   Atom  AN      X      Y      Z        X      Y      Z        X      Y      Z   
After scan for Atom:   Atom  AN      X      Y      Z        X      Y      Z        X      Y      Z   
After scan for Atom:   Atom  AN      X      Y      Z        X      Y      Z        X      Y      Z   
After scan for Atom:   Atom  AN      X      Y      Z        X      Y      Z        X      Y      Z   
After scan for Atom:   Atom  AN      X      Y      Z        X      Y      Z        X      Y      Z   
After scan for Atom:   Atom  AN      X      Y      Z        X      Y      Z        X      Y      Z   
After scan for Atom:   Atom  AN      X      Y      Z        X      Y      Z        X      Y      Z   
After scan for Atom:   Atom  AN      X      Y      Z        X      Y      Z        X      Y      Z   
After scan for Atom:   Atom  AN      X      Y      Z        X      Y      Z        X      Y      Z   
After scan for Atom:   Atom  AN      X      Y      Z        X      Y      Z        X      Y      Z   
After scan for Atom:   Atom  AN      X      Y      Z        X      Y      Z        X      Y      Z   
After scan for Atom:   Atom  AN      X      Y      Z        X      Y      Z        X      Y      Z   
After scan for Atom:   Atom  AN      X      Y      Z        X      Y      Z        X      Y      Z   
After scan for Atom:   Atom  AN      X      Y      Z        X      Y      Z        X      Y      Z   
After scan for Atom:   Atom  AN      X      Y      Z        X      Y      Z        X      Y      Z   
After scan for Atom:   Atom  AN      X      Y      Z        X      Y      Z        X      Y      Z   
After scan for Atom:   Atom  AN      X      Y      Z        X      Y      Z        X      Y      Z   
After scan for Atom:   Atom  AN      X      Y      Z        X      Y      Z        X      Y      Z   
After scan for Atom:   Atom  AN      X      Y      Z        X      Y      Z        X      Y      Z   
After scan for Atom:   Atom  AN      X      Y      Z        X      Y      Z        X      Y      Z   
After scan for Atom:   Atom  AN      X      Y      Z        X      Y      Z        X      Y      Z   
After scan for Atom:   Atom  AN      X      Y      Z        X      Y      Z        X      Y      Z   
After scan for Atom:   Atom  AN      X      Y      Z        X      Y      Z        X      Y      Z   
After scan for Atom:   Atom  AN      X      Y      Z        X      Y      Z        X      Y      Z   
After scan for Atom:   Atom  AN      X      Y      Z        X      Y      Z        X      Y      Z   
After scan for Atom:   Atom  AN      X      Y      Z        X      Y      Z        X      Y      Z   
After scan for Atom:   Atom  AN      X      Y      Z        X      Y      Z        X      Y      Z   
After scan for Atom:   Atom  AN      X      Y      Z        X      Y      Z        X      Y      Z   
After scan for Atom:   Atom  AN      X      Y      Z        X      Y      Z        X      Y      Z   
After scan for Atom:   Atom  AN      X      Y      Z        X      Y      Z        X      Y      Z   
After scan for Atom:   Atom  AN      X      Y      Z        X      Y      Z        X      Y      Z   
After scan for Atom:   Atom  AN      X      Y      Z        X      Y      Z        X      Y      Z   
After scan for Atom:   Atom  AN      X      Y      Z        X      Y      Z        X      Y      Z   
After scan for Atom:   Atom  AN      X      Y      Z        X      Y      Z        X      Y      Z   
After scan for Atom:   Atom  AN      X      Y      Z        X      Y      Z        X      Y      Z   
After scan for Atom:   Atom  AN      X      Y      Z        X      Y      Z        X      Y      Z   
After scan for Atom:   Atom  AN      X      Y      Z        X      Y      Z        X      Y      Z   
After scan for Atom:   Atom  AN      X      Y      Z        X      Y      Z        X      Y      Z   
 g94    frequencies=
     0.0    0.0    0.0    0.0    0.0    0.0    8.8   12.3   17.5   26.9
    30.7   48.2   55.1   64.8   79.1   80.1   88.7  100.3  124.3  127.1
   140.5  168.3  178.6  194.7  201.2  201.6  212.5  225.6  234.0  235.8
   240.9  258.1  280.4  295.0  296.6  308.2  332.6  342.4  358.1  386.8
   393.1  416.6  425.2  431.5  436.2  441.6  444.8  448.9  453.3  453.8
   459.0  483.3  493.0  494.5  501.5  506.1  515.7  533.5  535.5  558.6
   564.4  578.5  585.2  593.0  622.8  622.9  625.2  630.9  662.7  667.1
   669.2  709.1  711.7  726.8  741.9  747.5  755.4  759.7  763.0  769.5
   786.2  799.0  803.1  814.2  816.1  823.4  824.4  830.2  832.9  844.9
   851.2  852.0  891.1  895.9  897.4  917.6  943.3  947.0  953.7  955.7
   973.5  976.9  977.9  986.4  989.4 1015.7 1068.1 1077.0 1094.7 1104.0
  1127.2 1148.8 1154.9 1162.9 1165.8 1174.7 1190.0 1201.0 1215.2 1218.7
  1227.8 1236.4 1250.2 1269.5 1280.8 1287.1 1297.3 1322.8 1329.0 1359.2
  1360.6 1362.0 1370.4 1384.1 1391.6 1395.0 1397.6 1411.7 1424.5 1428.5
  1434.3 1437.4 1457.3 1469.6 1482.8 1483.3 1484.0 1492.4 1496.2 1506.4
  1523.5 1537.3 1546.4 1559.1 1574.9 1588.3 1597.8 1615.4 1620.3 1635.6
  1684.8 1721.7 1797.2 1813.2 2278.2 3030.0 3034.5 3087.3 3090.4 3109.7
  3131.8 3141.6 3193.4 3193.7 3198.3 3198.5 3209.3 3209.6 3226.2 3226.4
  3228.7 3239.3 3248.1
 g94    symmetries=
                                                 A      A      A      A
       A      A      A      A      A      A      A      A      A      A
       A      A      A      A      A      A      A      A      A      A
       A      A      A      A      A      A      A      A      A      A
       A      A      A      A      A      A      A      A      A      A
       A      A      A      A      A      A      A      A      A      A
       A      A      A      A      A      A      A      A      A      A
       A      A      A      A      A      A      A      A      A      A
       A      A      A      A      A      A      A      A      A      A
       A      A      A      A      A      A      A      A      A      A
       A      A      A      A      A      A      A      A      A      A
       A      A      A      A      A      A      A      A      A      A
       A      A      A      A      A      A      A      A      A      A
       A      A      A      A      A      A      A      A      A      A
       A      A      A      A      A      A      A      A      A      A
       A      A      A      A      A      A      A      A      A      A
       A      A      A      A      A      A      A      A      A      A
       A      A      A      A      A      A      A      A      A      A
       A      A      A
 atomic masses:
 12.0000 12.0000 12.0000 14.0031 12.0000 15.9949 12.0000 12.0000 12.0000 12.0000
 12.0000 12.0000 12.0000 12.0000 12.0000 15.9949 14.0031 12.0000 12.0000 12.0000
 12.0000 12.0000 31.9721 12.0000 12.0000 12.0000 31.9721 12.0000 15.9949 12.0000
 12.0000 12.0000 12.0000 12.0000 12.0000 12.0000 12.0000 12.0000 15.9949 12.0000
 12.0000 12.0000 12.0000  1.0078  1.0078  1.0078  1.0078  1.0078  1.0078  1.0078
  1.0078  1.0078  1.0078  1.0078  1.0078  1.0078  1.0078  1.0078  1.0078  1.0078
  1.0078
 looking for force constants in 
 ./TT-PDI_2_C0S1.fchk                                                           
  
 Cartesian Force Constants                  R   N=       16836                  
  
 n3=         183       16836
 g94-fc frequencies=
    -7.2   -1.1   -1.0    0.0    0.0    0.0    8.8   12.3   17.6   26.9
    30.7   48.2   55.1   64.8   79.1   80.1   88.7  100.3  124.3  127.1
   140.5  168.3  178.6  194.7  201.2  201.6  212.5  225.6  234.0  235.8
   240.9  258.1  280.4  295.0  296.6  308.2  332.6  342.4  358.1  386.8
   393.1  416.6  425.2  431.5  436.2  441.6  444.8  449.0  453.3  453.8
   459.0  483.3  493.0  494.5  501.5  506.2  515.7  533.5  535.5  558.6
   564.5  578.5  585.2  593.0  622.8  622.9  625.3  630.9  662.8  667.2
   669.2  709.1  711.7  726.8  741.9  747.5  755.4  759.7  763.0  769.5
   786.3  799.0  803.1  814.2  816.1  823.4  824.4  830.2  832.9  844.9
   851.2  852.0  891.2  895.9  897.5  917.7  943.4  947.0  953.7  955.7
   973.6  976.9  977.9  986.4  989.5 1015.7 1068.1 1077.0 1094.7 1104.0
  1127.3 1148.9 1155.0 1162.9 1165.8 1174.7 1190.1 1201.0 1215.2 1218.8
  1227.8 1236.5 1250.2 1269.5 1280.8 1287.2 1297.4 1322.8 1329.1 1359.2
  1360.6 1362.0 1370.4 1384.1 1391.6 1395.1 1397.6 1411.7 1424.5 1428.5
  1434.4 1437.5 1457.4 1469.6 1482.9 1483.3 1484.1 1492.4 1496.3 1506.5
  1523.6 1537.3 1546.4 1559.1 1574.9 1588.3 1597.9 1615.4 1620.4 1635.6
  1684.9 1721.7 1797.3 1813.2 2278.3 3030.1 3034.6 3087.3 3090.5 3109.7
  3131.8 3141.6 3193.5 3193.7 3198.3 3198.5 3209.3 3209.7 3226.3 3226.4
  3228.7 3239.4 3248.2
 at 99999: n3=         183
 symm operator            1 :  F  nop=           0
 symm operator            2 :  F  nop=           0
 symm operator            3 :  F  nop=           0
 symm operator            4 :  F  nop=           0
 symm operator            5 :  F  nop=           0
 symm operator            6 :  F  nop=           0
 symm operator            7 :  F  nop=           0
 The point group of the molecule is  C1
 Symmetry rotation matrix:
   1.00000   0.00000   0.00000
   0.00000   1.00000   0.00000
   0.00000   0.00000   1.00000

 Projecting out zero-frequency components
 generating redundant internal coords
         300        3600          61
 search for int coords
   1 str   2   1   1.533
   2 str   3   2   1.533
   3 str   4   2   1.493
   4 str   5   4   1.412
   5 str   6   5   1.224
   6 str   7   5   1.471
   7 str   8   7   1.395
   8 str   9   8   1.382
   9 str  10   9   1.413
  10 str  11  10   1.447
  11 str  12  11   1.418
  12 str  13  12   1.370
  13 str  14  13   1.407
  14 str  15  14   1.439
  15 str  16  15   1.208
  16 str  17  15   1.487
  17 str  18  17   1.313
  18 str  19  18   1.220
  19 str  20  19   1.370
  20 str  21  20   1.414
  21 str  22  21   1.385
  22 str  23  22   1.750
  23 str  24  23   1.736
  24 str  25  24   1.379
  25 str  26  22   1.416
  26 str  26  25   1.402
  27 str  27  20   1.773
  28 str  27  26   1.742
  29 str  28  17   1.486
  30 str  29  28   1.208
  31 str  30  28   1.439
  32 str  31  30   1.407
  33 str  32  31   1.370
  34 str  33  32   1.418
  35 str  34  33   1.447
  36 str  35  34   1.413
  37 str  36  35   1.382
  38 str  37  36   1.395
  39 str  38   4   1.404
  40 str  38  37   1.472
  41 str  39  38   1.225
  42 str  40   7   1.411
  43 str  40  37   1.411
  44 str  41  10   1.427
  45 str  41  34   1.427
  46 str  41  40   1.434
  47 str  42  11   1.431
  48 str  42  33   1.431
  49 str  43  14   1.420
  50 str  43  30   1.420
  51 str  43  42   1.445
  52 str  44   1   1.094
  53 str  45   1   1.089
  54 str  46   1   1.093
  55 str  47   2   1.088
  56 str  48   3   1.089
  57 str  49   3   1.094
  58 str  50   3   1.093
  59 str  51   8   1.083
  60 str  52   9   1.081
  61 str  53  12   1.080
  62 str  54  13   1.083
  63 str  55  21   1.080
  64 str  56  24   1.080
  65 str  57  25   1.080
  66 str  58  31   1.083
  67 str  59  32   1.080
  68 str  60  35   1.081
  69 str  61  36   1.083
 nber stretches=          69
  70 ben   1   2   3
  71 prop tor   1   2   3  48
  72 prop tor   1   2   3  49
  73 prop tor   1   2   3  50
  74 ben   1   2   4
  75 prop tor   1   2   4   5
  76 prop tor   1   2   4  38
  77 ben   1   2  47
  78 ben   2   1  44
  79 ben   2   1  45
  80 ben   2   1  46
  81 ben   2   3  48
  82 ben   2   3  49
  83 ben   2   3  50
  84 ben   2   4   5
  85 prop tor   2   4   5   6
  86 prop tor   2   4   5   7
  87 ben   2   4  38
  88 prop tor   2   4  38  37
  89 prop tor   2   4  38  39
  90 ben   3   2   4
  91 prop tor   3   2   4   5
  92 prop tor   3   2   4  38
  93 ben   3   2  47
  94 prop tor   4   2   3  48
  95 prop tor   4   2   3  49
  96 prop tor   4   2   3  50
  97 ben   4   2  47
  98 ben   4   5   6
  99 ben   4   5   7
 100 prop tor   4   5   7   8
 101 prop tor   4   5   7  40
 102 ben   4  38  37
 103 ben   4  38  39
 104 ben   5   4  38
 105 prop tor   5   4  38  37
 106 prop tor   5   4  38  39
 107 ben   5   7   8
 108 prop tor   5   7   8   9
 109 prop tor   5   7   8  51
 110 ben   5   7  40
 111 prop tor   5   7  40  37
 112 prop tor   5   7  40  41
 113 ben   6   5   7
 114 prop tor   6   5   7   8
 115 prop tor   6   5   7  40
 116 ben   7   8   9
 117 prop tor   7   8   9  10
 118 prop tor   7   8   9  52
 119 ben   7   8  51
 120 ben   7  40  37
 121 ben   7  40  41
 122 prop tor   7  40  41  10
 123 prop tor   7  40  41  34
 124 ben   8   7  40
 125 prop tor   8   7  40  37
 126 prop tor   8   7  40  41
 127 ben   8   9  10
 128 prop tor   8   9  10  11
 129 prop tor   8   9  10  41
 130 ben   8   9  52
 131 ben   9   8  51
 132 ben   9  10  11
 133 prop tor   9  10  11  12
 134 prop tor   9  10  11  42
 135 ben   9  10  41
 136 prop tor   9  10  41  34
 137 prop tor   9  10  41  40
 138 ben  10   9  52
 139 ben  10  11  12
 140 prop tor  10  11  12  13
 141 prop tor  10  11  12  53
 142 ben  10  11  42
 143 prop tor  10  11  42  33
 144 prop tor  10  11  42  43
 145 ben  10  41  34
 146 ben  10  41  40
 147 ben  11  10  41
 148 prop tor  11  10  41  34
 149 prop tor  11  10  41  40
 150 ben  11  12  13
 151 prop tor  11  12  13  14
 152 prop tor  11  12  13  54
 153 ben  11  12  53
 154 ben  11  42  33
 155 ben  11  42  43
 156 prop tor  11  42  43  14
 157 prop tor  11  42  43  30
 158 ben  12  11  42
 159 prop tor  12  11  42  33
 160 prop tor  12  11  42  43
 161 ben  12  13  14
 162 prop tor  12  13  14  15
 163 prop tor  12  13  14  43
 164 ben  12  13  54
 165 ben  13  12  53
 166 ben  13  14  15
 167 prop tor  13  14  15  16
 168 prop tor  13  14  15  17
 169 ben  13  14  43
 170 prop tor  13  14  43  30
 171 prop tor  13  14  43  42
 172 ben  14  13  54
 173 ben  14  15  16
 174 ben  14  15  17
 175 prop tor  14  15  17  18
 176 prop tor  14  15  17  28
 177 ben  14  43  30
 178 ben  14  43  42
 179 ben  15  14  43
 180 prop tor  15  14  43  30
 181 prop tor  15  14  43  42
 182 ben  15  17  18
 183 prop tor  15  17  18  19
 184 ben  15  17  28
 185 prop tor  15  17  28  29
 186 prop tor  15  17  28  30
 187 ben  16  15  17
 188 prop tor  16  15  17  18
 189 prop tor  16  15  17  28
 190 lin ben  17  18  19
 192 ben  17  28  29
 193 ben  17  28  30
 194 prop tor  17  28  30  31
 195 prop tor  17  28  30  43
 196 ben  18  17  28
 197 prop tor  18  17  28  29
 198 prop tor  18  17  28  30
 Extend lin bond           1          17          18          20
 199 lin ben  18  19  20
 201 ben  19  20  21
 202 prop tor  19  20  21  22
 203 prop tor  19  20  21  55
 204 ben  19  20  27
 205 prop tor  19  20  27  26
 206 ben  20  21  22
 207 prop tor  20  21  22  23
 208 prop tor  20  21  22  26
 209 ben  20  21  55
 210 ben  20  27  26
 211 ben  21  20  27
 212 prop tor  21  20  27  26
 213 ben  21  22  23
 214 prop tor  21  22  23  24
 215 ben  21  22  26
 216 prop tor  21  22  26  25
 217 prop tor  21  22  26  27
 218 ben  22  21  55
 219 ben  22  23  24
 220 prop tor  22  23  24  25
 221 prop tor  22  23  24  56
 222 ben  22  26  25
 223 ben  22  26  27
 224 prop tor  22  26  27  20
 225 ben  23  22  26
 226 prop tor  23  22  26  25
 227 prop tor  23  22  26  27
 228 ben  23  24  25
 229 prop tor  23  24  25  26
 230 prop tor  23  24  25  57
 231 ben  23  24  56
 232 ben  24  25  26
 233 prop tor  24  25  26  22
 234 prop tor  24  25  26  27
 235 ben  24  25  57
 236 ben  25  24  56
 237 ben  25  26  27
 238 prop tor  25  26  27  20
 239 prop tor  26  22  23  24
 240 ben  26  25  57
 241 prop tor  27  20  21  22
 242 prop tor  27  20  21  55
 243 prop tor  28  17  18  19
 244 ben  28  30  31
 245 prop tor  28  30  31  32
 246 prop tor  28  30  31  58
 247 ben  28  30  43
 248 prop tor  28  30  43  14
 249 prop tor  28  30  43  42
 250 ben  29  28  30
 251 prop tor  29  28  30  31
 252 prop tor  29  28  30  43
 253 ben  30  31  32
 254 prop tor  30  31  32  33
 255 prop tor  30  31  32  59
 256 ben  30  31  58
 257 ben  30  43  42
 258 ben  31  30  43
 259 prop tor  31  30  43  14
 260 prop tor  31  30  43  42
 261 ben  31  32  33
 262 prop tor  31  32  33  34
 263 prop tor  31  32  33  42
 264 ben  31  32  59
 265 ben  32  31  58
 266 ben  32  33  34
 267 prop tor  32  33  34  35
 268 prop tor  32  33  34  41
 269 ben  32  33  42
 270 prop tor  32  33  42  11
 271 prop tor  32  33  42  43
 272 ben  33  32  59
 273 ben  33  34  35
 274 prop tor  33  34  35  36
 275 prop tor  33  34  35  60
 276 ben  33  34  41
 277 prop tor  33  34  41  10
 278 prop tor  33  34  41  40
 279 ben  33  42  43
 280 prop tor  33  42  43  14
 281 prop tor  33  42  43  30
 282 ben  34  33  42
 283 prop tor  34  33  42  11
 284 prop tor  34  33  42  43
 285 ben  34  35  36
 286 prop tor  34  35  36  37
 287 prop tor  34  35  36  61
 288 ben  34  35  60
 289 ben  34  41  40
 290 ben  35  34  41
 291 prop tor  35  34  41  10
 292 prop tor  35  34  41  40
 293 ben  35  36  37
 294 prop tor  35  36  37  38
 295 prop tor  35  36  37  40
 296 ben  35  36  61
 297 ben  36  35  60
 298 ben  36  37  38
 299 prop tor  36  37  38   4
 300 prop tor  36  37  38  39
 301 ben  36  37  40
 302 prop tor  36  37  40   7
 303 prop tor  36  37  40  41
 304 ben  37  36  61
 305 ben  37  38  39
 306 ben  37  40  41
 307 prop tor  37  40  41  10
 308 prop tor  37  40  41  34
 309 prop tor  38   4   5   6
 310 prop tor  38   4   5   7
 311 ben  38  37  40
 312 prop tor  38  37  40   7
 313 prop tor  38  37  40  41
 314 prop tor  40   7   8   9
 315 prop tor  40   7   8  51
 316 prop tor  40  37  38   4
 317 prop tor  40  37  38  39
 318 prop tor  41  10  11  12
 319 prop tor  41  10  11  42
 320 prop tor  41  34  35  36
 321 prop tor  41  34  35  60
 322 prop tor  42  11  12  13
 323 prop tor  42  11  12  53
 324 prop tor  42  33  34  35
 325 prop tor  42  33  34  41
 326 prop tor  43  14  15  16
 327 prop tor  43  14  15  17
 328 prop tor  43  30  31  32
 329 prop tor  43  30  31  58
 330 prop tor  44   1   2   3
 331 prop tor  44   1   2   4
 332 prop tor  44   1   2  47
 333 ben  44   1  45
 334 ben  44   1  46
 335 prop tor  45   1   2   3
 336 prop tor  45   1   2   4
 337 prop tor  45   1   2  47
 338 ben  45   1  46
 339 prop tor  46   1   2   3
 340 prop tor  46   1   2   4
 341 prop tor  46   1   2  47
 342 prop tor  47   2   3  48
 343 prop tor  47   2   3  49
 344 prop tor  47   2   3  50
 345 prop tor  47   2   4   5
 346 prop tor  47   2   4  38
 347 ben  48   3  49
 348 ben  48   3  50
 349 ben  49   3  50
 350 prop tor  51   8   9  10
 351 prop tor  51   8   9  52
 352 prop tor  52   9  10  11
 353 prop tor  52   9  10  41
 354 prop tor  53  12  13  14
 355 prop tor  53  12  13  54
 356 prop tor  54  13  14  15
 357 prop tor  54  13  14  43
 358 prop tor  55  21  22  23
 359 prop tor  55  21  22  26
 360 prop tor  56  24  25  26
 361 prop tor  56  24  25  57
 362 prop tor  57  25  26  22
 363 prop tor  57  25  26  27
 364 prop tor  58  31  32  33
 365 prop tor  58  31  32  59
 366 prop tor  59  32  33  34
 367 prop tor  59  32  33  42
 368 prop tor  60  35  36  37
 369 prop tor  60  35  36  61
 370 prop tor  61  36  37  38
 371 prop tor  61  36  37  40
 372 lin bend prop tor  15  17  20  19
 373 lin bend prop tor  15  17  20  21
 374 lin bend prop tor  15  17  20  27
 375 lin bend prop tor  18  17  20  19
 376 lin bend prop tor  18  17  20  21
 377 lin bend prop tor  18  17  20  27
 378 lin bend prop tor  28  17  20  19
 379 lin bend prop tor  28  17  20  21
 380 lin bend prop tor  28  17  20  27
 nber bend=             120
 nber lin bend=           1
 nber prop tor=         191
 nber impr tor=           0
 nber tot redund int=         380
 Eigenvalues of G in red int coords
    Gval -0.00000000 -0.00000000 -0.00000000 -0.00000000 -0.00000000 -0.00000000 -0.00000000 -0.00000000
    Gval -0.00000000 -0.00000000 -0.00000000 -0.00000000 -0.00000000 -0.00000000 -0.00000000 -0.00000000
    Gval -0.00000000 -0.00000000 -0.00000000 -0.00000000 -0.00000000 -0.00000000 -0.00000000 -0.00000000
    Gval -0.00000000 -0.00000000 -0.00000000 -0.00000000 -0.00000000 -0.00000000 -0.00000000 -0.00000000
    Gval -0.00000000 -0.00000000 -0.00000000 -0.00000000 -0.00000000 -0.00000000 -0.00000000 -0.00000000
    Gval -0.00000000 -0.00000000 -0.00000000 -0.00000000 -0.00000000 -0.00000000 -0.00000000 -0.00000000
    Gval -0.00000000 -0.00000000 -0.00000000 -0.00000000 -0.00000000 -0.00000000 -0.00000000 -0.00000000
    Gval -0.00000000 -0.00000000 -0.00000000 -0.00000000 -0.00000000 -0.00000000 -0.00000000 -0.00000000
    Gval -0.00000000 -0.00000000 -0.00000000 -0.00000000 -0.00000000 -0.00000000 -0.00000000 -0.00000000
    Gval -0.00000000 -0.00000000 -0.00000000 -0.00000000 -0.00000000 -0.00000000 -0.00000000 -0.00000000
    Gval -0.00000000 -0.00000000 -0.00000000 -0.00000000 -0.00000000 -0.00000000 -0.00000000 -0.00000000
    Gval -0.00000000 -0.00000000 -0.00000000 -0.00000000 -0.00000000 -0.00000000 -0.00000000 -0.00000000
    Gval -0.00000000  0.00000000  0.00000000  0.00000000  0.00000000  0.00000000  0.00000000  0.00000000
    Gval  0.00000000  0.00000000  0.00000000  0.00000000  0.00000000  0.00000000  0.00000000  0.00000000
    Gval  0.00000000  0.00000000  0.00000000  0.00000000  0.00000000  0.00000000  0.00000000  0.00000000
    Gval  0.00000000  0.00000000  0.00000000  0.00000000  0.00000000  0.00000000  0.00000000  0.00000000
    Gval  0.00000000  0.00000000  0.00000000  0.00000000  0.00000000  0.00000000  0.00000000  0.00000000
    Gval  0.00000000  0.00000000  0.00000000  0.00000000  0.00000000  0.00000000  0.00000000  0.00000000
    Gval  0.00000000  0.00000000  0.00000000  0.00000000  0.00000000  0.00000000  0.00000000  0.00000000
    Gval  0.00000000  0.00000000  0.00000000  0.00000000  0.00000000  0.00000000  0.00000000  0.00000000
    Gval  0.00000000  0.00000000  0.00000000  0.00000000  0.00000000  0.00000000  0.00000000  0.00000000
    Gval  0.00000000  0.00000000  0.00000000  0.00000000  0.00000000  0.00000000  0.00000000  0.00000000
    Gval  0.00000000  0.00000000  0.00000000  0.00000000  0.00000000  0.00000000  0.00000000  0.00000000
    Gval  0.00000000  0.00000000  0.00000000  0.00000000  0.00000000  0.00000000  0.00000000  0.00000000
    Gval  0.00000000  0.00000000  0.00000000  0.00000000  0.00000000  0.00000000  0.00000000  0.00000000
    Gval  0.00000000  0.00000000  0.00000000  0.00000013  0.00000066  0.00000095  0.00000123  0.00000342
    Gval  0.00000399  0.00000495  0.00000634  0.00000678  0.00000902  0.00001074  0.00001367  0.00001426
    Gval  0.00001594  0.00001712  0.00001724  0.00001804  0.00001831  0.00001841  0.00002141  0.00002337
    Gval  0.00002352  0.00002377  0.00002529  0.00002726  0.00002885  0.00003178  0.00003503  0.00003569
    Gval  0.00003743  0.00003995  0.00004690  0.00004867  0.00004889  0.00005111  0.00005259  0.00005580
    Gval  0.00005658  0.00005806  0.00006245  0.00006542  0.00006806  0.00007094  0.00007319  0.00008135
    Gval  0.00008221  0.00008312  0.00008594  0.00008712  0.00008840  0.00009301  0.00009474  0.00009578
    Gval  0.00011022  0.00011312  0.00011880  0.00012078  0.00012247  0.00013526  0.00013603  0.00013702
    Gval  0.00013747  0.00014197  0.00015342  0.00015767  0.00015931  0.00016297  0.00016908  0.00018224
    Gval  0.00018885  0.00019885  0.00020171  0.00022232  0.00022756  0.00023160  0.00025445  0.00027146
    Gval  0.00027864  0.00028725  0.00028986  0.00029985  0.00030523  0.00032680  0.00033198  0.00034329
    Gval  0.00035929  0.00038298  0.00038542  0.00038934  0.00039188  0.00040188  0.00040547  0.00041409
    Gval  0.00042280  0.00043058  0.00043548  0.00044099  0.00044210  0.00046377  0.00046553  0.00046946
    Gval  0.00049293  0.00051963  0.00053371  0.00053728  0.00055094  0.00055371  0.00055594  0.00055612
    Gval  0.00058801  0.00059658  0.00059852  0.00059924  0.00059957  0.00059985  0.00060221  0.00061410
    Gval  0.00062076  0.00062503  0.00064142  0.00064493  0.00064568  0.00064747  0.00066525  0.00066980
    Gval  0.00069341  0.00069708  0.00078769  0.00081458  0.00091378  0.00092421  0.00101251  0.00108245
    Gval  0.00109379  0.00109476  0.00109537  0.00109599  0.00114589  0.00114782  0.00116455  0.00116506
    Gval  0.00116685  0.00116736  0.00116891  0.00116947  0.00118443  0.00119159  0.00122669  0.00128451
    Gval  0.00129252  0.00131809  0.00150083  0.00151919  0.00172575  0.00175868  0.00191420  0.00206772
    Gval  0.00227707  0.00234178  0.00251986  0.00252799  0.00255934  0.00277731  0.00292467  0.00302233
    Gval  0.00304256  0.00308280  0.00309235  0.00353098  0.00366505  0.00366669  0.00371270  0.00371427
    Gval  0.00393423  0.00394715  1.74731106  6.20070877
  1.286907376981287E-007  1.286907376981287E-007
  6.589466036901963E-007  1.286907376981287E-007
  9.514967306697867E-007  1.286907376981287E-007
  1.233327204923093E-006  1.286907376981287E-007
  3.424267903873009E-006  1.286907376981287E-007
  3.987823292497864E-006  1.286907376981287E-007
  4.948209691403237E-006  1.286907376981287E-007
  6.336319809452210E-006  1.286907376981287E-007
  6.778530211535942E-006  1.286907376981287E-007
  9.022629260532506E-006  1.286907376981287E-007
  1.074209789545519E-005  1.286907376981287E-007
  1.366817650492002E-005  1.286907376981287E-007
  1.426093649929005E-005  1.286907376981287E-007
  1.593945376436220E-005  1.286907376981287E-007
  1.711626127331889E-005  1.286907376981287E-007
  1.724341418045462E-005  1.286907376981287E-007
  1.804217570715998E-005  1.286907376981287E-007
  1.831452328471949E-005  1.286907376981287E-007
  1.841444418553043E-005  1.286907376981287E-007
  2.140860654168367E-005  1.286907376981287E-007
  2.337325701265557E-005  1.286907376981287E-007
  2.351535798113937E-005  1.286907376981287E-007
  2.376820686708448E-005  1.286907376981287E-007
  2.529431103846940E-005  1.286907376981287E-007
  2.725891470602559E-005  1.286907376981287E-007
  2.885451771659528E-005  1.286907376981287E-007
  3.178431988354439E-005  1.286907376981287E-007
  3.503248521766223E-005  1.286907376981287E-007
  3.569029699906626E-005  1.286907376981287E-007
  3.743338690858162E-005  1.286907376981287E-007
  3.994876345454292E-005  1.286907376981287E-007
  4.690333793567599E-005  1.286907376981287E-007
  4.867429543894371E-005  1.286907376981287E-007
  4.889301578044581E-005  1.286907376981287E-007
  5.111110582279579E-005  1.286907376981287E-007
  5.259021516440650E-005  1.286907376981287E-007
  5.580167511120421E-005  1.286907376981287E-007
  5.658144579604799E-005  1.286907376981287E-007
  5.805908319929015E-005  1.286907376981287E-007
  6.245332939541793E-005  1.286907376981287E-007
  6.542040281588513E-005  1.286907376981287E-007
  6.806280081344817E-005  1.286907376981287E-007
  7.094450657610564E-005  1.286907376981287E-007
  7.318900017096690E-005  1.286907376981287E-007
  8.135008052484813E-005  1.286907376981287E-007
  8.221002771901124E-005  1.286907376981287E-007
  8.312189579957949E-005  1.286907376981287E-007
  8.594262101518766E-005  1.286907376981287E-007
  8.711502686013363E-005  1.286907376981287E-007
  8.839608724917681E-005  1.286907376981287E-007
  9.301355598145690E-005  1.286907376981287E-007
  9.473567612336309E-005  1.286907376981287E-007
  9.577765814398437E-005  1.286907376981287E-007
  1.102201373057441E-004  1.286907376981287E-007
  1.131151699904574E-004  1.286907376981287E-007
  1.187969533113255E-004  1.286907376981287E-007
  1.207755651301342E-004  1.286907376981287E-007
  1.224732867786535E-004  1.286907376981287E-007
  1.352606162915933E-004  1.286907376981287E-007
  1.360337022711293E-004  1.286907376981287E-007
  1.370246013491653E-004  1.286907376981287E-007
  1.374743955188281E-004  1.286907376981287E-007
  1.419735738700923E-004  1.286907376981287E-007
  1.534153835593685E-004  1.286907376981287E-007
  1.576727306961915E-004  1.286907376981287E-007
  1.593142879475135E-004  1.286907376981287E-007
  1.629688011633252E-004  1.286907376981287E-007
  1.690809891156456E-004  1.286907376981287E-007
  1.822380048675903E-004  1.286907376981287E-007
  1.888507770298354E-004  1.286907376981287E-007
  1.988506833238303E-004  1.286907376981287E-007
  2.017076795983162E-004  1.286907376981287E-007
  2.223175632422268E-004  1.286907376981287E-007
  2.275625514416507E-004  1.286907376981287E-007
  2.316027040491655E-004  1.286907376981287E-007
  2.544498212737551E-004  1.286907376981287E-007
  2.714550378079097E-004  1.286907376981287E-007
  2.786432458592558E-004  1.286907376981287E-007
  2.872525134662851E-004  1.286907376981287E-007
  2.898647139466744E-004  1.286907376981287E-007
  2.998532262244814E-004  1.286907376981287E-007
  3.052270822079632E-004  1.286907376981287E-007
  3.268003012848034E-004  1.286907376981287E-007
  3.319815324383121E-004  1.286907376981287E-007
  3.432854474004217E-004  1.286907376981287E-007
  3.592937836818608E-004  1.286907376981287E-007
  3.829809074469459E-004  1.286907376981287E-007
  3.854152964864030E-004  1.286907376981287E-007
  3.893432187418854E-004  1.286907376981287E-007
  3.918791023273703E-004  1.286907376981287E-007
  4.018788704879876E-004  1.286907376981287E-007
  4.054670369383187E-004  1.286907376981287E-007
  4.140884414637405E-004  1.286907376981287E-007
  4.228041071065924E-004  1.286907376981287E-007
  4.305764518318356E-004  1.286907376981287E-007
  4.354811239071145E-004  1.286907376981287E-007
  4.409850716106530E-004  1.286907376981287E-007
  4.421016861456917E-004  1.286907376981287E-007
  4.637662046021686E-004  1.286907376981287E-007
  4.655265406232727E-004  1.286907376981287E-007
  4.694626116586891E-004  1.286907376981287E-007
  4.929342406972760E-004  1.286907376981287E-007
  5.196289006441555E-004  1.286907376981287E-007
  5.337109448969744E-004  1.286907376981287E-007
  5.372772578457791E-004  1.286907376981287E-007
  5.509369958282265E-004  1.286907376981287E-007
  5.537118756602742E-004  1.286907376981287E-007
  5.559429901323327E-004  1.286907376981287E-007
  5.561162777152817E-004  1.286907376981287E-007
  5.880093762815403E-004  1.286907376981287E-007
  5.965755012350814E-004  1.286907376981287E-007
  5.985171567129897E-004  1.286907376981287E-007
  5.992390838660169E-004  1.286907376981287E-007
  5.995666759714293E-004  1.286907376981287E-007
  5.998476021885724E-004  1.286907376981287E-007
  6.022112250097223E-004  1.286907376981287E-007
  6.140978881577978E-004  1.286907376981287E-007
  6.207566022369560E-004  1.286907376981287E-007
  6.250349091341320E-004  1.286907376981287E-007
  6.414215301869710E-004  1.286907376981287E-007
  6.449251397838571E-004  1.286907376981287E-007
  6.456812519417075E-004  1.286907376981287E-007
  6.474720764424593E-004  1.286907376981287E-007
  6.652487533306196E-004  1.286907376981287E-007
  6.697968982073233E-004  1.286907376981287E-007
  6.934115616873586E-004  1.286907376981287E-007
  6.970818439181795E-004  1.286907376981287E-007
  7.876901518628472E-004  1.286907376981287E-007
  8.145795277910080E-004  1.286907376981287E-007
  9.137814039658126E-004  1.286907376981287E-007
  9.242081317948708E-004  1.286907376981287E-007
  1.012506119120719E-003  1.286907376981287E-007
  1.082454979113914E-003  1.286907376981287E-007
  1.093787176758119E-003  1.286907376981287E-007
  1.094757414852776E-003  1.286907376981287E-007
  1.095373762906551E-003  1.286907376981287E-007
  1.095988697309901E-003  1.286907376981287E-007
  1.145890616401713E-003  1.286907376981287E-007
  1.147819397877824E-003  1.286907376981287E-007
  1.164546746069852E-003  1.286907376981287E-007
  1.165059090635985E-003  1.286907376981287E-007
  1.166847285732787E-003  1.286907376981287E-007
  1.167358725871501E-003  1.286907376981287E-007
  1.168912051933795E-003  1.286907376981287E-007
  1.169474166937450E-003  1.286907376981287E-007
  1.184432245164941E-003  1.286907376981287E-007
  1.191587682541272E-003  1.286907376981287E-007
  1.226685051287853E-003  1.286907376981287E-007
  1.284507560940345E-003  1.286907376981287E-007
  1.292517753330689E-003  1.286907376981287E-007
  1.318090649604059E-003  1.286907376981287E-007
  1.500831880736518E-003  1.286907376981287E-007
  1.519186613668532E-003  1.286907376981287E-007
  1.725753429926262E-003  1.286907376981287E-007
  1.758675762815618E-003  1.286907376981287E-007
  1.914203926051188E-003  1.286907376981287E-007
  2.067716248524450E-003  1.286907376981287E-007
  2.277066428210810E-003  1.286907376981287E-007
  2.341783179802813E-003  1.286907376981287E-007
  2.519857914297271E-003  1.286907376981287E-007
  2.527986059318355E-003  1.286907376981287E-007
  2.559335572739221E-003  1.286907376981287E-007
  2.777312684789403E-003  1.286907376981287E-007
  2.924672674858277E-003  1.286907376981287E-007
  3.022332535597475E-003  1.286907376981287E-007
  3.042558982240866E-003  1.286907376981287E-007
  3.082801352792541E-003  1.286907376981287E-007
  3.092352266080426E-003  1.286907376981287E-007
  3.530980195874783E-003  1.286907376981287E-007
  3.665048690223736E-003  1.286907376981287E-007
  3.666687229450151E-003  1.286907376981287E-007
  3.712704455948844E-003  1.286907376981287E-007
  3.714274162094832E-003  1.286907376981287E-007
  3.934226594611633E-003  1.286907376981287E-007
  3.947147527366386E-003  1.286907376981287E-007
   1.74731106493770       1.286907376981287E-007
   6.20070876527490       1.286907376981287E-007
 cut=1d-8, nber non-redundant internal coords=         177
 Check on Eigenvals of non-red overlap matrix:
  0.00000013  0.00000066  0.00000095  0.00000123  0.00000342  0.00000399  0.00000495  0.00000634
  0.00000678  0.00000902  0.00001074  0.00001367  0.00001426  0.00001594  0.00001712  0.00001724
  0.00001804  0.00001831  0.00001841  0.00002141  0.00002337  0.00002352  0.00002377  0.00002529
  0.00002726  0.00002885  0.00003178  0.00003503  0.00003569  0.00003743  0.00003995  0.00004690
  0.00004867  0.00004889  0.00005111  0.00005259  0.00005580  0.00005658  0.00005806  0.00006245
  0.00006542  0.00006806  0.00007094  0.00007319  0.00008135  0.00008221  0.00008312  0.00008594
  0.00008712  0.00008840  0.00009301  0.00009474  0.00009578  0.00011022  0.00011312  0.00011880
  0.00012078  0.00012247  0.00013526  0.00013603  0.00013702  0.00013747  0.00014197  0.00015342
  0.00015767  0.00015931  0.00016297  0.00016908  0.00018224  0.00018885  0.00019885  0.00020171
  0.00022232  0.00022756  0.00023160  0.00025445  0.00027146  0.00027864  0.00028725  0.00028986
  0.00029985  0.00030523  0.00032680  0.00033198  0.00034329  0.00035929  0.00038298  0.00038542
  0.00038934  0.00039188  0.00040188  0.00040547  0.00041409  0.00042280  0.00043058  0.00043548
  0.00044099  0.00044210  0.00046377  0.00046553  0.00046946  0.00049293  0.00051963  0.00053371
  0.00053728  0.00055094  0.00055371  0.00055594  0.00055612  0.00058801  0.00059658  0.00059852
  0.00059924  0.00059957  0.00059985  0.00060221  0.00061410  0.00062076  0.00062503  0.00064142
  0.00064493  0.00064568  0.00064747  0.00066525  0.00066980  0.00069341  0.00069708  0.00078769
  0.00081458  0.00091378  0.00092421  0.00101251  0.00108245  0.00109379  0.00109476  0.00109537
  0.00109599  0.00114589  0.00114782  0.00116455  0.00116506  0.00116685  0.00116736  0.00116891
  0.00116947  0.00118443  0.00119159  0.00122669  0.00128451  0.00129252  0.00131809  0.00150083
  0.00151919  0.00172575  0.00175868  0.00191420  0.00206772  0.00227707  0.00234178  0.00251986
  0.00252799  0.00255934  0.00277731  0.00292467  0.00302233  0.00304256  0.00308280  0.00309235
  0.00353098  0.00366505  0.00366669  0.00371270  0.00371427  0.00393423  0.00394715  1.74731106
  6.20070877
 Checking for correct frequencies
 recalc frequencies=
    -0.0   -0.0   -0.0   -0.0    0.0    0.0    8.8   12.3   17.5   26.9
    30.7   48.2   55.1   64.8   79.1   80.1   88.7  100.3  124.3  127.1
   140.5  168.3  178.6  194.7  201.2  201.6  212.5  225.6  234.0  235.8
   240.9  258.1  280.4  295.0  296.6  308.2  332.6  342.4  358.1  386.8
   393.1  416.6  425.2  431.5  436.2  441.6  444.8  449.0  453.3  453.8
   459.0  483.3  493.0  494.5  501.5  506.2  515.7  533.5  535.5  558.6
   564.5  578.5  585.2  593.0  622.8  622.9  625.3  630.9  662.8  667.2
   669.2  709.1  711.7  726.8  741.9  747.5  755.4  759.7  763.0  769.5
   786.3  799.0  803.1  814.2  816.1  823.4  824.4  830.2  832.9  844.9
   851.2  852.0  891.2  895.9  897.5  917.7  943.4  947.0  953.7  955.7
   973.6  976.9  977.9  986.4  989.5 1015.7 1068.1 1077.0 1094.7 1104.0
  1127.3 1148.9 1155.0 1162.9 1165.8 1174.7 1190.1 1201.0 1215.2 1218.8
  1227.8 1236.5 1250.2 1269.5 1280.8 1287.2 1297.4 1322.8 1329.1 1359.2
  1360.6 1362.0 1370.4 1384.1 1391.6 1395.1 1397.6 1411.7 1424.5 1428.5
  1434.4 1437.5 1457.4 1469.6 1482.9 1483.3 1484.1 1492.4 1496.3 1506.5
  1523.6 1537.3 1546.4 1559.1 1574.9 1588.3 1597.9 1615.4 1620.4 1635.6
  1684.9 1721.7 1797.3 1813.2 2278.3 3030.1 3034.6 3087.3 3090.5 3109.7
  3131.8 3141.6 3193.5 3193.7 3198.3 3198.5 3209.3 3209.7 3226.3 3226.4
  3228.7 3239.4 3248.2
 recalc symmetries=
                                                                       
                                                                       
                                                                       
                                                                       
                                                                       
                                                                       
                                                                       
                                                                       
                                                                       
                                                                       
                                                                       
                                                                       
                                                                       
                                                                       
                                                                       
                                                                       
                                                                       
                                                                       
                      
 recalc freqs check OK
 Zero-point lengths:
 10.0000 10.0000 10.0000 10.0000 10.0000 10.0000 83.4024 70.6637 59.2396 47.8089
 44.7147 35.7117 33.4026 30.7901 27.8798 27.7078 26.3237 24.7496 22.2343 21.9867
 20.9148 19.1075 18.5499 17.7684 17.4782 17.4582 17.0073 16.5053 16.2062 16.1430
 15.9721 15.4318 14.8045 14.4339 14.3960 14.1205 13.5936 13.3978 13.1001 12.6056
 12.5039 12.1457 12.0229 11.9347 11.8697 11.7974 11.7546 11.7003 11.6441 11.6376
 11.5718 11.2763 11.1657 11.1484 11.0702 11.0194 10.9164 10.7329 10.7130 10.4888
 10.4347 10.3069 10.2479 10.1807  9.9340  9.9332  9.9144  9.8701  9.6298  9.5980
  9.5835  9.3100  9.2927  9.1958  9.1019  9.0673  9.0198  8.9942  8.9750  8.9370
  8.8412  8.7705  8.7480  8.6882  8.6782  8.6396  8.6344  8.6040  8.5900  8.5288
  8.4973  8.4932  8.3046  8.2825  8.2754  8.1838  8.0716  8.0561  8.0277  8.0193
  7.9454  7.9317  7.9278  7.8935  7.8812  7.7788  7.5855  7.5540  7.4929  7.4613
  7.3838  7.3141  7.2948  7.2697  7.2607  7.2332  7.1864  7.1536  7.1117  7.1013
  7.0751  7.0502  7.0113  6.9579  6.9271  6.9100  6.8828  6.8162  6.8002  6.7244
  6.7210  6.7175  6.6969  6.6636  6.6457  6.6374  6.6314  6.5982  6.5684  6.5592
  6.5458  6.5388  6.4940  6.4668  6.4379  6.4369  6.4353  6.4173  6.4090  6.3873
  6.3514  6.3229  6.3043  6.2785  6.2470  6.2205  6.2019  6.1682  6.1587  6.1299
  6.0396  5.9747  5.8478  5.8220  5.1939  4.5037  4.5003  4.4617  4.4595  4.4457
  4.4299  4.4230  4.3870  4.3868  4.3836  4.3835  4.3761  4.3759  4.3646  4.3645
  4.3629  4.3557  4.3499
 highest evec of mol 1
  0.0000 -0.0000  0.0000
  0.0000  0.0000  0.0000
  0.0000 -0.0000  0.0000
 -0.0000  0.0000 -0.0000
  0.0000 -0.0000  0.0000
 -0.0000 -0.0000 -0.0000
 -0.0000  0.0000 -0.0000
  0.0000  0.0000  0.0000
  0.0000  0.0000  0.0000
 -0.0000 -0.0000 -0.0000
  0.0000 -0.0000  0.0000
  0.0000  0.0001  0.0001
  0.0000  0.0000  0.0000
 -0.0000  0.0000 -0.0000
  0.0000  0.0000  0.0001
 -0.0000 -0.0000 -0.0000
 -0.0000  0.0001 -0.0001
 -0.0000  0.0001 -0.0002
  0.0001 -0.0001  0.0003
 -0.0001 -0.0008 -0.0002
  0.0034  0.0070  0.0089
 -0.0012  0.0010 -0.0040
 -0.0008 -0.0014 -0.0021
  0.0565 -0.1587  0.2106
  0.0361  0.0863  0.0912
 -0.0026  0.0028 -0.0087
  0.0001 -0.0002  0.0004
 -0.0000 -0.0001 -0.0000
  0.0000  0.0000  0.0000
 -0.0000  0.0000 -0.0000
 -0.0000 -0.0000 -0.0000
 -0.0000 -0.0001 -0.0000
  0.0000 -0.0000  0.0000
  0.0000  0.0000  0.0000
 -0.0000 -0.0000 -0.0000
 -0.0000 -0.0000  0.0000
 -0.0000  0.0000 -0.0000
  0.0000 -0.0000  0.0000
 -0.0000  0.0000 -0.0000
 -0.0000  0.0000 -0.0000
 -0.0000  0.0000 -0.0000
  0.0000  0.0000 -0.0000
 -0.0000 -0.0000 -0.0000
 -0.0000  0.0000 -0.0000
  0.0000 -0.0000  0.0000
 -0.0000 -0.0000  0.0000
 -0.0000 -0.0000 -0.0000
  0.0000 -0.0000  0.0000
 -0.0000  0.0000 -0.0000
 -0.0000  0.0000  0.0000
 -0.0000 -0.0000 -0.0001
 -0.0000 -0.0001  0.0000
 -0.0001 -0.0001 -0.0002
 -0.0000 -0.0001  0.0000
 -0.0105 -0.0215 -0.0274
 -0.1907  0.4808 -0.6982
 -0.1127 -0.2350 -0.2926
  0.0000  0.0000  0.0000
  0.0000  0.0003  0.0000
  0.0000  0.0000  0.0001
  0.0000  0.0001 -0.0000
 generating redundant internal coords
         300        3600          61
 Adding extra bonds for z output only
           6           6           6           7           6           8
           6           6           6           6           6           6
           6           6           6           8           7           6
           6           6           6           6          16           6
           6           6          16           6           8           6
           6           6           6           6           6           6
           6           6           8           6           6           6
           6           1           1           1           1           1
           1           1           1           1           1           1
           1           1           1           1           1           1
           1
 search for int coords
   1 str   2   1   1.533
   2 str   3   2   1.533
   3 str   4   2   1.493
   4 str   5   4   1.412
   5 str   6   5   1.224
   6 str   7   5   1.471
   7 str   8   7   1.395
   8 str   9   8   1.382
   9 str  10   9   1.413
  10 str  11  10   1.447
  11 str  12  11   1.418
  12 str  13  12   1.370
  13 str  14  13   1.407
  14 str  15  14   1.439
  15 str  16  15   1.208
  16 str  17  15   1.487
  17 str  18  17   1.313
  18 str  19  18   1.220
  19 str  20  19   1.370
  20 str  21  20   1.414
  21 str  22  21   1.385
  22 str  23  22   1.750
  23 str  24  23   1.736
  24 str  25  24   1.379
  25 str  26  22   1.416
  26 str  26  25   1.402
  27 str  27  20   1.773
  28 str  27  26   1.742
  29 str  28  17   1.486
  30 str  29  28   1.208
  31 str  30  28   1.439
  32 str  31  30   1.407
  33 str  32  31   1.370
  34 str  33  32   1.418
  35 str  34  33   1.447
  36 str  35  34   1.413
  37 str  36  35   1.382
  38 str  37  36   1.395
  39 str  38   4   1.404
  40 str  38  37   1.472
  41 str  39  38   1.225
  42 str  40   7   1.411
  43 str  40  37   1.411
  44 str  41  10   1.427
  45 str  41  34   1.427
  46 str  41  40   1.434
  47 str  42  11   1.431
  48 str  42  33   1.431
  49 str  43  14   1.420
  50 str  43  30   1.420
  51 str  43  42   1.445
  52 str  44   1   1.094
  53 str  45   1   1.089
  54 str  46   1   1.093
  55 str  47   2   1.088
  56 str  48   3   1.089
  57 str  49   3   1.094
  58 str  50   3   1.093
  59 str  51   8   1.083
  60 str  52   9   1.081
  61 str  53  12   1.080
  62 str  54  13   1.083
  63 str  55  21   1.080
  64 str  56  24   1.080
  65 str  57  25   1.080
  66 str  58  31   1.083
  67 str  59  32   1.080
  68 str  60  35   1.081
  69 str  61  36   1.083
 nber stretches=          69
  70 ben   1   2   3
  71 prop tor   1   2   3  48
  72 prop tor   1   2   3  49
  73 prop tor   1   2   3  50
  74 ben   1   2   4
  75 prop tor   1   2   4   5
  76 prop tor   1   2   4  38
  77 ben   1   2  47
  78 ben   2   1  44
  79 ben   2   1  45
  80 ben   2   1  46
  81 ben   2   3  48
  82 ben   2   3  49
  83 ben   2   3  50
  84 ben   2   4   5
  85 prop tor   2   4   5   6
  86 prop tor   2   4   5   7
  87 ben   2   4  38
  88 prop tor   2   4  38  37
  89 prop tor   2   4  38  39
  90 ben   3   2   4
  91 prop tor   3   2   4   5
  92 prop tor   3   2   4  38
  93 ben   3   2  47
  94 prop tor   4   2   3  48
  95 prop tor   4   2   3  49
  96 prop tor   4   2   3  50
  97 ben   4   2  47
  98 ben   4   5   6
  99 ben   4   5   7
 100 prop tor   4   5   7   8
 101 prop tor   4   5   7  40
 102 ben   4  38  37
 103 ben   4  38  39
 104 ben   5   4  38
 105 prop tor   5   4  38  37
 106 prop tor   5   4  38  39
 107 ben   5   7   8
 108 prop tor   5   7   8   9
 109 prop tor   5   7   8  51
 110 ben   5   7  40
 111 prop tor   5   7  40  37
 112 prop tor   5   7  40  41
 113 ben   6   5   7
 114 prop tor   6   5   7   8
 115 prop tor   6   5   7  40
 116 ben   7   8   9
 117 prop tor   7   8   9  10
 118 prop tor   7   8   9  52
 119 ben   7   8  51
 120 ben   7  40  37
 121 ben   7  40  41
 122 prop tor   7  40  41  10
 123 prop tor   7  40  41  34
 124 ben   8   7  40
 125 prop tor   8   7  40  37
 126 prop tor   8   7  40  41
 127 ben   8   9  10
 128 prop tor   8   9  10  11
 129 prop tor   8   9  10  41
 130 ben   8   9  52
 131 ben   9   8  51
 132 ben   9  10  11
 133 prop tor   9  10  11  12
 134 prop tor   9  10  11  42
 135 ben   9  10  41
 136 prop tor   9  10  41  34
 137 prop tor   9  10  41  40
 138 ben  10   9  52
 139 ben  10  11  12
 140 prop tor  10  11  12  13
 141 prop tor  10  11  12  53
 142 ben  10  11  42
 143 prop tor  10  11  42  33
 144 prop tor  10  11  42  43
 145 ben  10  41  34
 146 ben  10  41  40
 147 ben  11  10  41
 148 prop tor  11  10  41  34
 149 prop tor  11  10  41  40
 150 ben  11  12  13
 151 prop tor  11  12  13  14
 152 prop tor  11  12  13  54
 153 ben  11  12  53
 154 ben  11  42  33
 155 ben  11  42  43
 156 prop tor  11  42  43  14
 157 prop tor  11  42  43  30
 158 ben  12  11  42
 159 prop tor  12  11  42  33
 160 prop tor  12  11  42  43
 161 ben  12  13  14
 162 prop tor  12  13  14  15
 163 prop tor  12  13  14  43
 164 ben  12  13  54
 165 ben  13  12  53
 166 ben  13  14  15
 167 prop tor  13  14  15  16
 168 prop tor  13  14  15  17
 169 ben  13  14  43
 170 prop tor  13  14  43  30
 171 prop tor  13  14  43  42
 172 ben  14  13  54
 173 ben  14  15  16
 174 ben  14  15  17
 175 prop tor  14  15  17  18
 176 prop tor  14  15  17  28
 177 ben  14  43  30
 178 ben  14  43  42
 179 ben  15  14  43
 180 prop tor  15  14  43  30
 181 prop tor  15  14  43  42
 182 ben  15  17  18
 183 prop tor  15  17  18  19
 184 ben  15  17  28
 185 prop tor  15  17  28  29
 186 prop tor  15  17  28  30
 187 ben  16  15  17
 188 prop tor  16  15  17  18
 189 prop tor  16  15  17  28
 190 lin ben  17  18  19
 192 ben  17  28  29
 193 ben  17  28  30
 194 prop tor  17  28  30  31
 195 prop tor  17  28  30  43
 196 ben  18  17  28
 197 prop tor  18  17  28  29
 198 prop tor  18  17  28  30
 Extend lin bond           1          17          18          20
 199 lin ben  18  19  20
 201 ben  19  20  21
 202 prop tor  19  20  21  22
 203 prop tor  19  20  21  55
 204 ben  19  20  27
 205 prop tor  19  20  27  26
 206 ben  20  21  22
 207 prop tor  20  21  22  23
 208 prop tor  20  21  22  26
 209 ben  20  21  55
 210 ben  20  27  26
 211 ben  21  20  27
 212 prop tor  21  20  27  26
 213 ben  21  22  23
 214 prop tor  21  22  23  24
 215 ben  21  22  26
 216 prop tor  21  22  26  25
 217 prop tor  21  22  26  27
 218 ben  22  21  55
 219 ben  22  23  24
 220 prop tor  22  23  24  25
 221 prop tor  22  23  24  56
 222 ben  22  26  25
 223 ben  22  26  27
 224 prop tor  22  26  27  20
 225 ben  23  22  26
 226 prop tor  23  22  26  25
 227 prop tor  23  22  26  27
 228 ben  23  24  25
 229 prop tor  23  24  25  26
 230 prop tor  23  24  25  57
 231 ben  23  24  56
 232 ben  24  25  26
 233 prop tor  24  25  26  22
 234 prop tor  24  25  26  27
 235 ben  24  25  57
 236 ben  25  24  56
 237 ben  25  26  27
 238 prop tor  25  26  27  20
 239 prop tor  26  22  23  24
 240 ben  26  25  57
 241 prop tor  27  20  21  22
 242 prop tor  27  20  21  55
 243 prop tor  28  17  18  19
 244 ben  28  30  31
 245 prop tor  28  30  31  32
 246 prop tor  28  30  31  58
 247 ben  28  30  43
 248 prop tor  28  30  43  14
 249 prop tor  28  30  43  42
 250 ben  29  28  30
 251 prop tor  29  28  30  31
 252 prop tor  29  28  30  43
 253 ben  30  31  32
 254 prop tor  30  31  32  33
 255 prop tor  30  31  32  59
 256 ben  30  31  58
 257 ben  30  43  42
 258 ben  31  30  43
 259 prop tor  31  30  43  14
 260 prop tor  31  30  43  42
 261 ben  31  32  33
 262 prop tor  31  32  33  34
 263 prop tor  31  32  33  42
 264 ben  31  32  59
 265 ben  32  31  58
 266 ben  32  33  34
 267 prop tor  32  33  34  35
 268 prop tor  32  33  34  41
 269 ben  32  33  42
 270 prop tor  32  33  42  11
 271 prop tor  32  33  42  43
 272 ben  33  32  59
 273 ben  33  34  35
 274 prop tor  33  34  35  36
 275 prop tor  33  34  35  60
 276 ben  33  34  41
 277 prop tor  33  34  41  10
 278 prop tor  33  34  41  40
 279 ben  33  42  43
 280 prop tor  33  42  43  14
 281 prop tor  33  42  43  30
 282 ben  34  33  42
 283 prop tor  34  33  42  11
 284 prop tor  34  33  42  43
 285 ben  34  35  36
 286 prop tor  34  35  36  37
 287 prop tor  34  35  36  61
 288 ben  34  35  60
 289 ben  34  41  40
 290 ben  35  34  41
 291 prop tor  35  34  41  10
 292 prop tor  35  34  41  40
 293 ben  35  36  37
 294 prop tor  35  36  37  38
 295 prop tor  35  36  37  40
 296 ben  35  36  61
 297 ben  36  35  60
 298 ben  36  37  38
 299 prop tor  36  37  38   4
 300 prop tor  36  37  38  39
 301 ben  36  37  40
 302 prop tor  36  37  40   7
 303 prop tor  36  37  40  41
 304 ben  37  36  61
 305 ben  37  38  39
 306 ben  37  40  41
 307 prop tor  37  40  41  10
 308 prop tor  37  40  41  34
 309 prop tor  38   4   5   6
 310 prop tor  38   4   5   7
 311 ben  38  37  40
 312 prop tor  38  37  40   7
 313 prop tor  38  37  40  41
 314 prop tor  40   7   8   9
 315 prop tor  40   7   8  51
 316 prop tor  40  37  38   4
 317 prop tor  40  37  38  39
 318 prop tor  41  10  11  12
 319 prop tor  41  10  11  42
 320 prop tor  41  34  35  36
 321 prop tor  41  34  35  60
 322 prop tor  42  11  12  13
 323 prop tor  42  11  12  53
 324 prop tor  42  33  34  35
 325 prop tor  42  33  34  41
 326 prop tor  43  14  15  16
 327 prop tor  43  14  15  17
 328 prop tor  43  30  31  32
 329 prop tor  43  30  31  58
 330 prop tor  44   1   2   3
 331 prop tor  44   1   2   4
 332 prop tor  44   1   2  47
 333 ben  44   1  45
 334 ben  44   1  46
 335 prop tor  45   1   2   3
 336 prop tor  45   1   2   4
 337 prop tor  45   1   2  47
 338 ben  45   1  46
 339 prop tor  46   1   2   3
 340 prop tor  46   1   2   4
 341 prop tor  46   1   2  47
 342 prop tor  47   2   3  48
 343 prop tor  47   2   3  49
 344 prop tor  47   2   3  50
 345 prop tor  47   2   4   5
 346 prop tor  47   2   4  38
 347 ben  48   3  49
 348 ben  48   3  50
 349 ben  49   3  50
 350 prop tor  51   8   9  10
 351 prop tor  51   8   9  52
 352 prop tor  52   9  10  11
 353 prop tor  52   9  10  41
 354 prop tor  53  12  13  14
 355 prop tor  53  12  13  54
 356 prop tor  54  13  14  15
 357 prop tor  54  13  14  43
 358 prop tor  55  21  22  23
 359 prop tor  55  21  22  26
 360 prop tor  56  24  25  26
 361 prop tor  56  24  25  57
 362 prop tor  57  25  26  22
 363 prop tor  57  25  26  27
 364 prop tor  58  31  32  33
 365 prop tor  58  31  32  59
 366 prop tor  59  32  33  34
 367 prop tor  59  32  33  42
 368 prop tor  60  35  36  37
 369 prop tor  60  35  36  61
 370 prop tor  61  36  37  38
 371 prop tor  61  36  37  40
 372 lin bend prop tor  15  17  20  19
 373 lin bend prop tor  15  17  20  21
 374 lin bend prop tor  15  17  20  27
 375 lin bend prop tor  18  17  20  19
 376 lin bend prop tor  18  17  20  21
 377 lin bend prop tor  18  17  20  27
 378 lin bend prop tor  28  17  20  19
 379 lin bend prop tor  28  17  20  21
 380 lin bend prop tor  28  17  20  27
 nber bend=             120
 nber lin bend=           1
 nber prop tor=         191
 nber impr tor=           0
 nber tot redund int=         380
 Reading file: 
 ./TT-PDI_2_C0S3.log                                                            
                                          
  Entering Gaussian System, Link 0=g16                                          
  
 Gaussian format, type: g94, g98, g03= F F F
  #P Geom=AllCheck Guess=TCheck SCRF=Check GenChk RB3LYP TD(FC,Read)/6-3    
 energy type= TD      
 Original G94 input coords:
  6  1.027217 -0.351895  0.174817
  6  2.480849 -0.014084 -0.175491
  6  2.811840 -0.228243 -1.656838
  7  2.861818  1.351733  0.287892
  6  3.868843  1.430302  1.275263
  8  4.394580  0.417233  1.720306
  6  4.247661  2.773135  1.734161
  6  5.237781  2.908178  2.708762
  6  5.617781  4.156949  3.161929
  6  5.028445  5.341907  2.665287
  6  5.418330  6.655059  3.131354
  6  6.420451  6.829554  4.117716
  6  6.787248  8.076943  4.557355
  6  6.178271  9.233252  4.041841
  6  6.609186 10.516251  4.546434
  8  7.458233 10.735403  5.386910
  7  5.918401 11.654543  3.950365
  6  6.273955 12.870770  4.377365
  6  6.588006 13.969755  4.755991
  6  6.901015 15.273715  5.148381
  6  7.808259 15.745926  6.061265
  6  7.786948 17.184992  6.137971
 16  8.638846 18.353707  7.046781
  6  7.774486 19.681787  6.297967
  6  6.865745 19.239009  5.384140
  6  6.875327 17.802951  5.294425
 16  6.019440 16.629605  4.384072
  6  4.875886 11.602802  2.932785
  8  4.401439 12.651984  2.541425
  6  4.529819 10.267352  2.506844
  6  3.533591 10.117473  1.527513
  6  3.161815  8.873534  1.082512
  6  3.762458  7.693937  1.588144
  6  3.373652  6.380712  1.121468
  6  2.377014  6.191884  0.137086
  6  2.013808  4.932506 -0.300570
  6  2.625864  3.791790  0.220631
  6  2.215026  2.467678 -0.267852
  8  1.347051  2.329224 -1.122813
  6  3.627599  3.926409  1.206110
  6  4.013328  5.227796  1.668428
  6  4.780148  7.814538  2.587002
  6  5.168170  9.123020  3.051708
  1  0.838199 -1.405208 -0.052828
  1  0.327147  0.261124 -0.391248
  1  0.845678 -0.202928  1.242562
  1  3.127937 -0.662636  0.411210
  1  2.185629  0.389146 -2.299485
  1  2.651317 -1.279864 -1.912429
  1  3.861325  0.006955 -1.853033
  1  5.698072  2.009024  3.098173
  1  6.388499  4.211969  3.917548
  1  6.915220  5.967938  4.541435
  1  7.554598  8.197168  5.311684
  1  8.447379 15.094356  6.637490
  1  8.005470 20.692470  6.591702
  1  6.226402 19.891588  4.807432
  1  3.066758 11.011200  1.133132
  1  2.391444  8.805113  0.328482
  1  1.875589  7.046000 -0.295444
  1  1.248689  4.802058 -1.055337
 nber atoms=          61
  Total Energy, E(TD-HF/TD-DFT) =  -2551.78563301                               
  
          32          49 "  -2551.78563301"
After scan for Atom:   Atom  AN      X      Y      Z        X      Y      Z        X      Y      Z   
After scan for Atom:   Atom  AN      X      Y      Z        X      Y      Z        X      Y      Z   
After scan for Atom:   Atom  AN      X      Y      Z        X      Y      Z        X      Y      Z   
After scan for Atom:   Atom  AN      X      Y      Z        X      Y      Z        X      Y      Z   
After scan for Atom:   Atom  AN      X      Y      Z        X      Y      Z        X      Y      Z   
After scan for Atom:   Atom  AN      X      Y      Z        X      Y      Z        X      Y      Z   
After scan for Atom:   Atom  AN      X      Y      Z        X      Y      Z        X      Y      Z   
After scan for Atom:   Atom  AN      X      Y      Z        X      Y      Z        X      Y      Z   
After scan for Atom:   Atom  AN      X      Y      Z        X      Y      Z        X      Y      Z   
After scan for Atom:   Atom  AN      X      Y      Z        X      Y      Z        X      Y      Z   
After scan for Atom:   Atom  AN      X      Y      Z        X      Y      Z        X      Y      Z   
After scan for Atom:   Atom  AN      X      Y      Z        X      Y      Z        X      Y      Z   
After scan for Atom:   Atom  AN      X      Y      Z        X      Y      Z        X      Y      Z   
After scan for Atom:   Atom  AN      X      Y      Z        X      Y      Z        X      Y      Z   
After scan for Atom:   Atom  AN      X      Y      Z        X      Y      Z        X      Y      Z   
After scan for Atom:   Atom  AN      X      Y      Z        X      Y      Z        X      Y      Z   
After scan for Atom:   Atom  AN      X      Y      Z        X      Y      Z        X      Y      Z   
After scan for Atom:   Atom  AN      X      Y      Z        X      Y      Z        X      Y      Z   
After scan for Atom:   Atom  AN      X      Y      Z        X      Y      Z        X      Y      Z   
After scan for Atom:   Atom  AN      X      Y      Z        X      Y      Z        X      Y      Z   
After scan for Atom:   Atom  AN      X      Y      Z        X      Y      Z        X      Y      Z   
After scan for Atom:   Atom  AN      X      Y      Z        X      Y      Z        X      Y      Z   
After scan for Atom:   Atom  AN      X      Y      Z        X      Y      Z        X      Y      Z   
After scan for Atom:   Atom  AN      X      Y      Z        X      Y      Z        X      Y      Z   
After scan for Atom:   Atom  AN      X      Y      Z        X      Y      Z        X      Y      Z   
After scan for Atom:   Atom  AN      X      Y      Z        X      Y      Z        X      Y      Z   
After scan for Atom:   Atom  AN      X      Y      Z        X      Y      Z        X      Y      Z   
After scan for Atom:   Atom  AN      X      Y      Z        X      Y      Z        X      Y      Z   
After scan for Atom:   Atom  AN      X      Y      Z        X      Y      Z        X      Y      Z   
After scan for Atom:   Atom  AN      X      Y      Z        X      Y      Z        X      Y      Z   
After scan for Atom:   Atom  AN      X      Y      Z        X      Y      Z        X      Y      Z   
After scan for Atom:   Atom  AN      X      Y      Z        X      Y      Z        X      Y      Z   
After scan for Atom:   Atom  AN      X      Y      Z        X      Y      Z        X      Y      Z   
After scan for Atom:   Atom  AN      X      Y      Z        X      Y      Z        X      Y      Z   
After scan for Atom:   Atom  AN      X      Y      Z        X      Y      Z        X      Y      Z   
After scan for Atom:   Atom  AN      X      Y      Z        X      Y      Z        X      Y      Z   
After scan for Atom:   Atom  AN      X      Y      Z        X      Y      Z        X      Y      Z   
After scan for Atom:   Atom  AN      X      Y      Z        X      Y      Z        X      Y      Z   
After scan for Atom:   Atom  AN      X      Y      Z        X      Y      Z        X      Y      Z   
After scan for Atom:   Atom  AN      X      Y      Z        X      Y      Z        X      Y      Z   
After scan for Atom:   Atom  AN      X      Y      Z        X      Y      Z        X      Y      Z   
After scan for Atom:   Atom  AN      X      Y      Z        X      Y      Z        X      Y      Z   
After scan for Atom:   Atom  AN      X      Y      Z        X      Y      Z        X      Y      Z   
After scan for Atom:   Atom  AN      X      Y      Z        X      Y      Z        X      Y      Z   
After scan for Atom:   Atom  AN      X      Y      Z        X      Y      Z        X      Y      Z   
After scan for Atom:   Atom  AN      X      Y      Z        X      Y      Z        X      Y      Z   
After scan for Atom:   Atom  AN      X      Y      Z        X      Y      Z        X      Y      Z   
After scan for Atom:   Atom  AN      X      Y      Z        X      Y      Z        X      Y      Z   
After scan for Atom:   Atom  AN      X      Y      Z        X      Y      Z        X      Y      Z   
After scan for Atom:   Atom  AN      X      Y      Z        X      Y      Z        X      Y      Z   
After scan for Atom:   Atom  AN      X      Y      Z        X      Y      Z        X      Y      Z   
After scan for Atom:   Atom  AN      X      Y      Z        X      Y      Z        X      Y      Z   
After scan for Atom:   Atom  AN      X      Y      Z        X      Y      Z        X      Y      Z   
After scan for Atom:   Atom  AN      X      Y      Z        X      Y      Z        X      Y      Z   
After scan for Atom:   Atom  AN      X      Y      Z        X      Y      Z        X      Y      Z   
After scan for Atom:   Atom  AN      X      Y      Z        X      Y      Z        X      Y      Z   
After scan for Atom:   Atom  AN      X      Y      Z        X      Y      Z        X      Y      Z   
After scan for Atom:   Atom  AN      X      Y      Z        X      Y      Z        X      Y      Z   
After scan for Atom:   Atom  AN      X      Y      Z        X      Y      Z        X      Y      Z   
 g94    frequencies=
     0.0    0.0    0.0    0.0    0.0    0.0    9.4   10.7   11.5   23.9
    27.5   45.4   57.3   65.8   81.0   81.5   90.6  102.0  124.6  126.9
   128.6  160.3  169.3  182.3  195.8  202.3  210.9  224.9  227.3  234.7
   235.2  261.7  281.6  293.4  295.8  297.7  328.1  343.2  358.0  387.8
   392.5  417.7  424.5  429.7  437.5  442.4  446.1  446.6  453.6  459.5
   477.4  484.7  493.9  497.0  498.2  502.9  506.1  516.7  527.2  534.0
   563.5  579.1  585.0  590.9  593.1  602.8  623.8  625.4  660.4  666.9
   675.0  697.4  710.6  717.3  728.3  748.1  756.0  757.6  765.8  769.1
   785.7  802.7  809.1  815.4  818.7  822.3  827.2  828.3  830.1  831.8
   841.6  846.7  899.0  901.5  906.0  931.0  943.7  955.7  959.4  971.7
   972.3  975.2  984.4  987.7 1004.7 1022.9 1068.4 1078.0 1093.0 1114.4
  1140.5 1146.5 1155.3 1163.7 1171.1 1174.5 1188.5 1199.6 1204.1 1220.3
  1226.9 1235.9 1247.3 1261.8 1273.0 1285.9 1296.9 1315.0 1326.9 1338.3
  1357.9 1361.9 1370.4 1374.3 1384.3 1392.3 1392.8 1397.6 1410.9 1424.2
  1436.8 1446.2 1459.3 1468.0 1476.6 1482.8 1484.0 1495.7 1506.9 1523.7
  1534.1 1535.6 1560.6 1574.1 1579.6 1589.6 1613.4 1619.6 1632.2 1656.8
  1681.3 1717.8 1739.0 1766.1 2362.2 3028.6 3033.4 3085.9 3089.1 3108.6
  3131.4 3141.0 3191.2 3191.4 3196.7 3196.9 3207.4 3207.7 3222.6 3222.8
  3234.2 3245.6 3268.8
 g94    symmetries=
                                                 A      A      A      A
       A      A      A      A      A      A      A      A      A      A
       A      A      A      A      A      A      A      A      A      A
       A      A      A      A      A      A      A      A      A      A
       A      A      A      A      A      A      A      A      A      A
       A      A      A      A      A      A      A      A      A      A
       A      A      A      A      A      A      A      A      A      A
       A      A      A      A      A      A      A      A      A      A
       A      A      A      A      A      A      A      A      A      A
       A      A      A      A      A      A      A      A      A      A
       A      A      A      A      A      A      A      A      A      A
       A      A      A      A      A      A      A      A      A      A
       A      A      A      A      A      A      A      A      A      A
       A      A      A      A      A      A      A      A      A      A
       A      A      A      A      A      A      A      A      A      A
       A      A      A      A      A      A      A      A      A      A
       A      A      A      A      A      A      A      A      A      A
       A      A      A      A      A      A      A      A      A      A
       A      A      A
 atomic masses:
 12.0000 12.0000 12.0000 14.0031 12.0000 15.9949 12.0000 12.0000 12.0000 12.0000
 12.0000 12.0000 12.0000 12.0000 12.0000 15.9949 14.0031 12.0000 12.0000 12.0000
 12.0000 12.0000 31.9721 12.0000 12.0000 12.0000 31.9721 12.0000 15.9949 12.0000
 12.0000 12.0000 12.0000 12.0000 12.0000 12.0000 12.0000 12.0000 15.9949 12.0000
 12.0000 12.0000 12.0000  1.0078  1.0078  1.0078  1.0078  1.0078  1.0078  1.0078
  1.0078  1.0078  1.0078  1.0078  1.0078  1.0078  1.0078  1.0078  1.0078  1.0078
  1.0078
 looking for force constants in 
 ./TT-PDI_2_C0S3.fchk                                                           
  
 Cartesian Force Constants                  R   N=       16836                  
  
 n3=         183       16836
 g94-fc frequencies=
    -1.2   -0.0   -0.0    0.0    0.1    2.1    9.4   10.7   11.5   23.9
    27.5   45.4   57.3   65.8   81.0   81.5   90.6  102.0  124.6  126.9
   128.6  160.3  169.3  182.3  195.8  202.3  210.9  224.9  227.3  234.7
   235.2  261.7  281.6  293.4  295.8  297.7  328.1  343.2  358.0  387.8
   392.6  417.7  424.5  429.7  437.5  442.4  446.1  446.6  453.7  459.5
   477.5  484.7  493.9  497.0  498.2  502.9  506.1  516.7  527.2  534.0
   563.5  579.1  585.0  591.0  593.1  602.8  623.8  625.4  660.4  667.0
   675.0  697.5  710.7  717.3  728.3  748.1  756.0  757.6  765.8  769.1
   785.8  802.7  809.1  815.4  818.7  822.3  827.2  828.4  830.1  831.8
   841.6  846.7  899.1  901.5  906.0  931.0  943.7  955.7  959.5  971.7
   972.3  975.2  984.4  987.7 1004.7 1022.9 1068.4 1078.1 1093.1 1114.4
  1140.5 1146.5 1155.4 1163.7 1171.1 1174.5 1188.5 1199.7 1204.1 1220.4
  1226.9 1235.9 1247.3 1261.8 1273.0 1286.0 1297.0 1315.0 1326.9 1338.4
  1357.9 1361.9 1370.5 1374.4 1384.3 1392.4 1392.9 1397.6 1410.9 1424.3
  1436.8 1446.2 1459.3 1468.0 1476.7 1482.9 1484.0 1495.8 1506.9 1523.7
  1534.1 1535.7 1560.6 1574.2 1579.7 1589.6 1613.5 1619.7 1632.3 1656.8
  1681.3 1717.8 1739.0 1766.1 2362.3 3028.7 3033.4 3086.0 3089.1 3108.7
  3131.4 3141.1 3191.2 3191.5 3196.8 3197.0 3207.5 3207.8 3222.7 3222.9
  3234.2 3245.7 3268.9
 at 99999: n3=         183
 symm operator            1 :  F  nop=           0
 symm operator            2 :  F  nop=           0
 symm operator            3 :  F  nop=           0
 symm operator            4 :  F  nop=           0
 symm operator            5 :  F  nop=           0
 symm operator            6 :  F  nop=           0
 symm operator            7 :  F  nop=           0
 The point group of the molecule is  C1
 Symmetry rotation matrix:
   1.00000   0.00000   0.00000
   0.00000   1.00000   0.00000
   0.00000   0.00000   1.00000

 Projecting out zero-frequency components
 generating redundant internal coords
         300        3600          61
 search for int coords
   1 str   2   1   1.533
   2 str   3   2   1.533
   3 str   4   2   1.492
   4 str   5   4   1.413
   5 str   6   5   1.225
   6 str   7   5   1.469
   7 str   8   7   1.396
   8 str   9   8   1.382
   9 str  10   9   1.414
  10 str  11  10   1.447
  11 str  12  11   1.417
  12 str  13  12   1.373
  13 str  14  13   1.405
  14 str  15  14   1.444
  15 str  16  15   1.215
  16 str  17  15   1.459
  17 str  18  17   1.337
  18 str  19  18   1.204
  19 str  20  19   1.397
  20 str  21  20   1.371
  21 str  22  21   1.441
  22 str  23  22   1.708
  23 str  24  23   1.753
  24 str  25  24   1.363
  25 str  26  22   1.387
  26 str  26  23   2.546
  27 str  26  25   1.439
  28 str  27  20   1.789
  29 str  27  26   1.714
  30 str  28  17   1.458
  31 str  29  28   1.216
  32 str  30  28   1.444
  33 str  31  30   1.405
  34 str  32  31   1.372
  35 str  33  32   1.417
  36 str  34  33   1.447
  37 str  35  34   1.413
  38 str  36  35   1.382
  39 str  37  36   1.396
  40 str  38   4   1.404
  41 str  38  37   1.470
  42 str  39  38   1.226
  43 str  40   7   1.412
  44 str  40  37   1.412
  45 str  41  10   1.427
  46 str  41  34   1.427
  47 str  41  40   1.434
  48 str  42  11   1.431
  49 str  42  33   1.431
  50 str  43  14   1.419
  51 str  43  30   1.419
  52 str  43  42   1.442
  53 str  44   1   1.094
  54 str  45   1   1.089
  55 str  46   1   1.093
  56 str  47   2   1.088
  57 str  48   3   1.089
  58 str  49   3   1.094
  59 str  50   3   1.093
  60 str  51   8   1.083
  61 str  52   9   1.081
  62 str  53  12   1.080
  63 str  54  13   1.083
  64 str  55  21   1.079
  65 str  56  24   1.078
  66 str  57  25   1.080
  67 str  58  31   1.083
  68 str  59  32   1.080
  69 str  60  35   1.081
  70 str  61  36   1.083
 nber stretches=          70
  71 ben   1   2   3
  72 prop tor   1   2   3  48
  73 prop tor   1   2   3  49
  74 prop tor   1   2   3  50
  75 ben   1   2   4
  76 prop tor   1   2   4   5
  77 prop tor   1   2   4  38
  78 ben   1   2  47
  79 ben   2   1  44
  80 ben   2   1  45
  81 ben   2   1  46
  82 ben   2   3  48
  83 ben   2   3  49
  84 ben   2   3  50
  85 ben   2   4   5
  86 prop tor   2   4   5   6
  87 prop tor   2   4   5   7
  88 ben   2   4  38
  89 prop tor   2   4  38  37
  90 prop tor   2   4  38  39
  91 ben   3   2   4
  92 prop tor   3   2   4   5
  93 prop tor   3   2   4  38
  94 ben   3   2  47
  95 prop tor   4   2   3  48
  96 prop tor   4   2   3  49
  97 prop tor   4   2   3  50
  98 ben   4   2  47
  99 ben   4   5   6
 100 ben   4   5   7
 101 prop tor   4   5   7   8
 102 prop tor   4   5   7  40
 103 ben   4  38  37
 104 ben   4  38  39
 105 ben   5   4  38
 106 prop tor   5   4  38  37
 107 prop tor   5   4  38  39
 108 ben   5   7   8
 109 prop tor   5   7   8   9
 110 prop tor   5   7   8  51
 111 ben   5   7  40
 112 prop tor   5   7  40  37
 113 prop tor   5   7  40  41
 114 ben   6   5   7
 115 prop tor   6   5   7   8
 116 prop tor   6   5   7  40
 117 ben   7   8   9
 118 prop tor   7   8   9  10
 119 prop tor   7   8   9  52
 120 ben   7   8  51
 121 ben   7  40  37
 122 ben   7  40  41
 123 prop tor   7  40  41  10
 124 prop tor   7  40  41  34
 125 ben   8   7  40
 126 prop tor   8   7  40  37
 127 prop tor   8   7  40  41
 128 ben   8   9  10
 129 prop tor   8   9  10  11
 130 prop tor   8   9  10  41
 131 ben   8   9  52
 132 ben   9   8  51
 133 ben   9  10  11
 134 prop tor   9  10  11  12
 135 prop tor   9  10  11  42
 136 ben   9  10  41
 137 prop tor   9  10  41  34
 138 prop tor   9  10  41  40
 139 ben  10   9  52
 140 ben  10  11  12
 141 prop tor  10  11  12  13
 142 prop tor  10  11  12  53
 143 ben  10  11  42
 144 prop tor  10  11  42  33
 145 prop tor  10  11  42  43
 146 ben  10  41  34
 147 ben  10  41  40
 148 ben  11  10  41
 149 prop tor  11  10  41  34
 150 prop tor  11  10  41  40
 151 ben  11  12  13
 152 prop tor  11  12  13  14
 153 prop tor  11  12  13  54
 154 ben  11  12  53
 155 ben  11  42  33
 156 ben  11  42  43
 157 prop tor  11  42  43  14
 158 prop tor  11  42  43  30
 159 ben  12  11  42
 160 prop tor  12  11  42  33
 161 prop tor  12  11  42  43
 162 ben  12  13  14
 163 prop tor  12  13  14  15
 164 prop tor  12  13  14  43
 165 ben  12  13  54
 166 ben  13  12  53
 167 ben  13  14  15
 168 prop tor  13  14  15  16
 169 prop tor  13  14  15  17
 170 ben  13  14  43
 171 prop tor  13  14  43  30
 172 prop tor  13  14  43  42
 173 ben  14  13  54
 174 ben  14  15  16
 175 ben  14  15  17
 176 prop tor  14  15  17  18
 177 prop tor  14  15  17  28
 178 ben  14  43  30
 179 ben  14  43  42
 180 ben  15  14  43
 181 prop tor  15  14  43  30
 182 prop tor  15  14  43  42
 183 ben  15  17  18
 184 prop tor  15  17  18  19
 185 ben  15  17  28
 186 prop tor  15  17  28  29
 187 prop tor  15  17  28  30
 188 ben  16  15  17
 189 prop tor  16  15  17  18
 190 prop tor  16  15  17  28
 191 lin ben  17  18  19
 193 ben  17  28  29
 194 ben  17  28  30
 195 prop tor  17  28  30  31
 196 prop tor  17  28  30  43
 197 ben  18  17  28
 198 prop tor  18  17  28  29
 199 prop tor  18  17  28  30
 Extend lin bond           1          17          18          20
 200 lin ben  18  19  20
 202 ben  19  20  21
 203 prop tor  19  20  21  22
 204 prop tor  19  20  21  55
 205 ben  19  20  27
 206 prop tor  19  20  27  26
 207 ben  20  21  22
 208 prop tor  20  21  22  23
 209 prop tor  20  21  22  26
 210 ben  20  21  55
 211 ben  20  27  26
 212 ben  21  20  27
 213 prop tor  21  20  27  26
 214 ben  21  22  23
 215 prop tor  21  22  23  24
 216 prop tor  21  22  23  26
 217 ben  21  22  26
 218 prop tor  21  22  26  23
 219 prop tor  21  22  26  25
 220 prop tor  21  22  26  27
 221 ben  22  21  55
 222 ben  22  23  24
 223 prop tor  22  23  24  25
 224 prop tor  22  23  24  56
 225 ben  22  23  26
 226 prop tor  22  23  26  25
 227 prop tor  22  23  26  27
 228 ben  22  26  23
 229 ben  22  26  25
 230 ben  22  26  27
 231 prop tor  22  26  27  20
 232 ben  23  22  26
 233 prop tor  23  22  26  25
 234 prop tor  23  22  26  27
 235 ben  23  24  25
 236 prop tor  23  24  25  26
 237 prop tor  23  24  25  57
 238 ben  23  24  56
 239 ben  23  26  25
 240 ben  23  26  27
 241 prop tor  23  26  27  20
 242 ben  24  23  26
 243 prop tor  24  23  26  22
 244 prop tor  24  23  26  25
 245 prop tor  24  23  26  27
 246 ben  24  25  26
 247 prop tor  24  25  26  22
 248 prop tor  24  25  26  23
 249 prop tor  24  25  26  27
 250 ben  24  25  57
 251 ben  25  24  56
 252 ben  25  26  27
 253 prop tor  25  26  27  20
 254 prop tor  26  22  23  24
 255 prop tor  26  23  24  25
 256 prop tor  26  23  24  56
 257 ben  26  25  57
 258 prop tor  27  20  21  22
 259 prop tor  27  20  21  55
 260 prop tor  28  17  18  19
 261 ben  28  30  31
 262 prop tor  28  30  31  32
 263 prop tor  28  30  31  58
 264 ben  28  30  43
 265 prop tor  28  30  43  14
 266 prop tor  28  30  43  42
 267 ben  29  28  30
 268 prop tor  29  28  30  31
 269 prop tor  29  28  30  43
 270 ben  30  31  32
 271 prop tor  30  31  32  33
 272 prop tor  30  31  32  59
 273 ben  30  31  58
 274 ben  30  43  42
 275 ben  31  30  43
 276 prop tor  31  30  43  14
 277 prop tor  31  30  43  42
 278 ben  31  32  33
 279 prop tor  31  32  33  34
 280 prop tor  31  32  33  42
 281 ben  31  32  59
 282 ben  32  31  58
 283 ben  32  33  34
 284 prop tor  32  33  34  35
 285 prop tor  32  33  34  41
 286 ben  32  33  42
 287 prop tor  32  33  42  11
 288 prop tor  32  33  42  43
 289 ben  33  32  59
 290 ben  33  34  35
 291 prop tor  33  34  35  36
 292 prop tor  33  34  35  60
 293 ben  33  34  41
 294 prop tor  33  34  41  10
 295 prop tor  33  34  41  40
 296 ben  33  42  43
 297 prop tor  33  42  43  14
 298 prop tor  33  42  43  30
 299 ben  34  33  42
 300 prop tor  34  33  42  11
 301 prop tor  34  33  42  43
 302 ben  34  35  36
 303 prop tor  34  35  36  37
 304 prop tor  34  35  36  61
 305 ben  34  35  60
 306 ben  34  41  40
 307 ben  35  34  41
 308 prop tor  35  34  41  10
 309 prop tor  35  34  41  40
 310 ben  35  36  37
 311 prop tor  35  36  37  38
 312 prop tor  35  36  37  40
 313 ben  35  36  61
 314 ben  36  35  60
 315 ben  36  37  38
 316 prop tor  36  37  38   4
 317 prop tor  36  37  38  39
 318 ben  36  37  40
 319 prop tor  36  37  40   7
 320 prop tor  36  37  40  41
 321 ben  37  36  61
 322 ben  37  38  39
 323 ben  37  40  41
 324 prop tor  37  40  41  10
 325 prop tor  37  40  41  34
 326 prop tor  38   4   5   6
 327 prop tor  38   4   5   7
 328 ben  38  37  40
[...]
 276 prop tor  31  30  43  14
 277 prop tor  31  30  43  42
 278 ben  31  32  33
 279 prop tor  31  32  33  34
 280 prop tor  31  32  33  42
 281 ben  31  32  59
 282 ben  32  31  58
 283 ben  32  33  34
 284 prop tor  32  33  34  35
 285 prop tor  32  33  34  41
 286 ben  32  33  42
 287 prop tor  32  33  42  11
 288 prop tor  32  33  42  43
 289 ben  33  32  59
 290 ben  33  34  35
 291 prop tor  33  34  35  36
 292 prop tor  33  34  35  60
 293 ben  33  34  41
 294 prop tor  33  34  41  10
 295 prop tor  33  34  41  40
 296 ben  33  42  43
 297 prop tor  33  42  43  14
 298 prop tor  33  42  43  30
 299 ben  34  33  42
 300 prop tor  34  33  42  11
 301 prop tor  34  33  42  43
 302 ben  34  35  36
 303 prop tor  34  35  36  37
 304 prop tor  34  35  36  61
 305 ben  34  35  60
 306 ben  34  41  40
 307 ben  35  34  41
 308 prop tor  35  34  41  10
 309 prop tor  35  34  41  40
 310 ben  35  36  37
 311 prop tor  35  36  37  38
 312 prop tor  35  36  37  40
 313 ben  35  36  61
 314 ben  36  35  60
 315 ben  36  37  38
 316 prop tor  36  37  38   4
 317 prop tor  36  37  38  39
 318 ben  36  37  40
 319 prop tor  36  37  40   7
 320 prop tor  36  37  40  41
 321 ben  37  36  61
 322 ben  37  38  39
 323 ben  37  40  41
 324 prop tor  37  40  41  10
 325 prop tor  37  40  41  34
 326 prop tor  38   4   5   6
 327 prop tor  38   4   5   7
 328 ben  38  37  40
 329 prop tor  38  37  40   7
 330 prop tor  38  37  40  41
 331 prop tor  40   7   8   9
 332 prop tor  40   7   8  51
 333 prop tor  40  37  38   4
 334 prop tor  40  37  38  39
 335 prop tor  41  10  11  12
 336 prop tor  41  10  11  42
 337 prop tor  41  34  35  36
 338 prop tor  41  34  35  60
 339 prop tor  42  11  12  13
 340 prop tor  42  11  12  53
 341 prop tor  42  33  34  35
 342 prop tor  42  33  34  41
 343 prop tor  43  14  15  16
 344 prop tor  43  14  15  17
 345 prop tor  43  30  31  32
 346 prop tor  43  30  31  58
 347 prop tor  44   1   2   3
 348 prop tor  44   1   2   4
 349 prop tor  44   1   2  47
 350 ben  44   1  45
 351 ben  44   1  46
 352 prop tor  45   1   2   3
 353 prop tor  45   1   2   4
 354 prop tor  45   1   2  47
 355 ben  45   1  46
 356 prop tor  46   1   2   3
 357 prop tor  46   1   2   4
 358 prop tor  46   1   2  47
 359 prop tor  47   2   3  48
 360 prop tor  47   2   3  49
 361 prop tor  47   2   3  50
 362 prop tor  47   2   4   5
 363 prop tor  47   2   4  38
 364 ben  48   3  49
 365 ben  48   3  50
 366 ben  49   3  50
 367 prop tor  51   8   9  10
 368 prop tor  51   8   9  52
 369 prop tor  52   9  10  11
 370 prop tor  52   9  10  41
 371 prop tor  53  12  13  14
 372 prop tor  53  12  13  54
 373 prop tor  54  13  14  15
 374 prop tor  54  13  14  43
 375 prop tor  55  21  22  23
 376 prop tor  55  21  22  26
 377 prop tor  56  24  25  26
 378 prop tor  56  24  25  57
 379 prop tor  57  25  26  22
 380 prop tor  57  25  26  23
 381 prop tor  57  25  26  27
 382 prop tor  58  31  32  33
 383 prop tor  58  31  32  59
 384 prop tor  59  32  33  34
 385 prop tor  59  32  33  42
 386 prop tor  60  35  36  37
 387 prop tor  60  35  36  61
 388 prop tor  61  36  37  38
 389 prop tor  61  36  37  40
 390 lin bend prop tor  15  17  20  19
 391 lin bend prop tor  15  17  20  21
 392 lin bend prop tor  15  17  20  27
 393 lin bend prop tor  18  17  20  19
 394 lin bend prop tor  18  17  20  21
 395 lin bend prop tor  18  17  20  27
 396 lin bend prop tor  28  17  20  19
 397 lin bend prop tor  28  17  20  21
 398 lin bend prop tor  28  17  20  27
 nber bend=             125
 nber lin bend=           1
 nber prop tor=         203
 nber impr tor=           0
 nber tot redund int=         398
 Eigenvalues of G in red int coords
    Gval -0.00000000 -0.00000000 -0.00000000 -0.00000000 -0.00000000 -0.00000000 -0.00000000 -0.00000000
    Gval -0.00000000 -0.00000000 -0.00000000 -0.00000000 -0.00000000 -0.00000000 -0.00000000 -0.00000000
    Gval -0.00000000 -0.00000000 -0.00000000 -0.00000000 -0.00000000 -0.00000000 -0.00000000 -0.00000000
    Gval -0.00000000 -0.00000000 -0.00000000 -0.00000000 -0.00000000 -0.00000000 -0.00000000 -0.00000000
    Gval -0.00000000 -0.00000000 -0.00000000 -0.00000000 -0.00000000 -0.00000000 -0.00000000 -0.00000000
    Gval -0.00000000 -0.00000000 -0.00000000 -0.00000000 -0.00000000 -0.00000000 -0.00000000 -0.00000000
    Gval -0.00000000 -0.00000000 -0.00000000 -0.00000000 -0.00000000 -0.00000000 -0.00000000 -0.00000000
    Gval -0.00000000 -0.00000000 -0.00000000 -0.00000000 -0.00000000 -0.00000000 -0.00000000 -0.00000000
    Gval -0.00000000 -0.00000000 -0.00000000 -0.00000000 -0.00000000 -0.00000000 -0.00000000 -0.00000000
    Gval -0.00000000 -0.00000000 -0.00000000 -0.00000000 -0.00000000 -0.00000000 -0.00000000 -0.00000000
    Gval -0.00000000 -0.00000000 -0.00000000 -0.00000000 -0.00000000 -0.00000000 -0.00000000 -0.00000000
    Gval -0.00000000 -0.00000000 -0.00000000 -0.00000000 -0.00000000 -0.00000000 -0.00000000 -0.00000000
    Gval -0.00000000 -0.00000000 -0.00000000 -0.00000000 -0.00000000 -0.00000000 -0.00000000 -0.00000000
    Gval -0.00000000 -0.00000000 -0.00000000 -0.00000000 -0.00000000 -0.00000000 -0.00000000  0.00000000
    Gval  0.00000000  0.00000000  0.00000000  0.00000000  0.00000000  0.00000000  0.00000000  0.00000000
    Gval  0.00000000  0.00000000  0.00000000  0.00000000  0.00000000  0.00000000  0.00000000  0.00000000
    Gval  0.00000000  0.00000000  0.00000000  0.00000000  0.00000000  0.00000000  0.00000000  0.00000000
    Gval  0.00000000  0.00000000  0.00000000  0.00000000  0.00000000  0.00000000  0.00000000  0.00000000
    Gval  0.00000000  0.00000000  0.00000000  0.00000000  0.00000000  0.00000000  0.00000000  0.00000000
    Gval  0.00000000  0.00000000  0.00000000  0.00000000  0.00000000  0.00000000  0.00000000  0.00000000
    Gval  0.00000000  0.00000000  0.00000000  0.00000000  0.00000000  0.00000000  0.00000000  0.00000000
    Gval  0.00000000  0.00000000  0.00000000  0.00000000  0.00000000  0.00000000  0.00000000  0.00000000
    Gval  0.00000000  0.00000000  0.00000000  0.00000000  0.00000000  0.00000000  0.00000000  0.00000000
    Gval  0.00000000  0.00000000  0.00000000  0.00000000  0.00000000  0.00000000  0.00000000  0.00000000
    Gval  0.00000000  0.00000000  0.00000000  0.00000000  0.00000000  0.00000000  0.00000000  0.00000000
    Gval  0.00000000  0.00000000  0.00000000  0.00000000  0.00000000  0.00000000  0.00000000  0.00000000
    Gval  0.00000000  0.00000000  0.00000000  0.00000000  0.00000000  0.00000000  0.00000000  0.00000000
    Gval  0.00000000  0.00000000  0.00000000  0.00000000  0.00000000  0.00000013  0.00000066  0.00000097
    Gval  0.00000122  0.00000351  0.00000380  0.00000503  0.00000637  0.00000725  0.00000900  0.00001080
    Gval  0.00001390  0.00001437  0.00001599  0.00001721  0.00001736  0.00001831  0.00001914  0.00002030
    Gval  0.00002183  0.00002340  0.00002358  0.00002393  0.00002532  0.00002788  0.00002966  0.00003363
    Gval  0.00003519  0.00003787  0.00003995  0.00004404  0.00004842  0.00004891  0.00005075  0.00005268
    Gval  0.00005638  0.00005694  0.00005754  0.00006221  0.00006578  0.00006803  0.00006877  0.00007210
    Gval  0.00007350  0.00008141  0.00008227  0.00008452  0.00008611  0.00008721  0.00009101  0.00009342
    Gval  0.00009475  0.00010172  0.00011173  0.00011866  0.00012247  0.00013402  0.00013455  0.00013662
    Gval  0.00013728  0.00014111  0.00014512  0.00015564  0.00015825  0.00015970  0.00016799  0.00018199
    Gval  0.00018216  0.00018958  0.00019262  0.00020358  0.00020400  0.00022212  0.00022731  0.00023143
    Gval  0.00025057  0.00027048  0.00028661  0.00028804  0.00029859  0.00031698  0.00034020  0.00034352
    Gval  0.00035451  0.00036106  0.00038332  0.00038769  0.00039065  0.00039859  0.00040514  0.00041904
    Gval  0.00042245  0.00043034  0.00043558  0.00043989  0.00044074  0.00044244  0.00046190  0.00046325
    Gval  0.00046876  0.00048100  0.00049024  0.00049656  0.00052802  0.00053382  0.00053731  0.00055360
    Gval  0.00055493  0.00055592  0.00055751  0.00059829  0.00059854  0.00059925  0.00059959  0.00059986
    Gval  0.00060222  0.00061384  0.00062417  0.00063102  0.00064146  0.00064494  0.00064575  0.00064751
    Gval  0.00066749  0.00067404  0.00069582  0.00069689  0.00079591  0.00082037  0.00092355  0.00099918
    Gval  0.00106947  0.00108754  0.00109352  0.00109449  0.00109511  0.00109571  0.00114645  0.00114652
    Gval  0.00116445  0.00116495  0.00116610  0.00116662  0.00116826  0.00116881  0.00119165  0.00119916
    Gval  0.00123211  0.00129182  0.00132381  0.00149849  0.00152443  0.00172513  0.00175956  0.00191238
    Gval  0.00206155  0.00227626  0.00234127  0.00252019  0.00252804  0.00255871  0.00277762  0.00292499
    Gval  0.00296032  0.00302200  0.00304264  0.00308313  0.00309127  0.00362023  0.00366417  0.00366581
    Gval  0.00371190  0.00371342  0.00393179  0.00488216  0.08266336  5.78160872
  1.323540337666006E-007  1.323540337666006E-007
  6.602521009076843E-007  1.323540337666006E-007
  9.683165620780281E-007  1.323540337666006E-007
  1.217778530586301E-006  1.323540337666006E-007
  3.514912878829007E-006  1.323540337666006E-007
  3.802971124075155E-006  1.323540337666006E-007
  5.033852199449157E-006  1.323540337666006E-007
  6.374201522711545E-006  1.323540337666006E-007
  7.251173722642772E-006  1.323540337666006E-007
  9.000046926496519E-006  1.323540337666006E-007
  1.079642060487738E-005  1.323540337666006E-007
  1.389610997443507E-005  1.323540337666006E-007
  1.436514527566057E-005  1.323540337666006E-007
  1.599340720292557E-005  1.323540337666006E-007
  1.721195103989017E-005  1.323540337666006E-007
  1.736005407035022E-005  1.323540337666006E-007
  1.831347157154803E-005  1.323540337666006E-007
  1.914238224183800E-005  1.323540337666006E-007
  2.030338365072474E-005  1.323540337666006E-007
  2.183305006540035E-005  1.323540337666006E-007
  2.340351421763699E-005  1.323540337666006E-007
  2.357924599137525E-005  1.323540337666006E-007
  2.393182278905046E-005  1.323540337666006E-007
  2.532393875939686E-005  1.323540337666006E-007
  2.788480494475843E-005  1.323540337666006E-007
  2.966026535291127E-005  1.323540337666006E-007
  3.363200738117906E-005  1.323540337666006E-007
  3.518583183204367E-005  1.323540337666006E-007
  3.787301080659647E-005  1.323540337666006E-007
  3.995167747549042E-005  1.323540337666006E-007
  4.404260972722336E-005  1.323540337666006E-007
  4.841695967806950E-005  1.323540337666006E-007
  4.891105987558976E-005  1.323540337666006E-007
  5.074967842495764E-005  1.323540337666006E-007
  5.268263083647845E-005  1.323540337666006E-007
  5.638411363133620E-005  1.323540337666006E-007
  5.693638251979694E-005  1.323540337666006E-007
  5.754235241409084E-005  1.323540337666006E-007
  6.221474163290277E-005  1.323540337666006E-007
  6.577743732381317E-005  1.323540337666006E-007
  6.803323717976516E-005  1.323540337666006E-007
  6.876589147183844E-005  1.323540337666006E-007
  7.209944081869568E-005  1.323540337666006E-007
  7.349980136689040E-005  1.323540337666006E-007
  8.140960703040823E-005  1.323540337666006E-007
  8.227400680333535E-005  1.323540337666006E-007
  8.452131406122558E-005  1.323540337666006E-007
  8.610963882102455E-005  1.323540337666006E-007
  8.721396329827080E-005  1.323540337666006E-007
  9.101449605434622E-005  1.323540337666006E-007
  9.341556205110883E-005  1.323540337666006E-007
  9.474956768526976E-005  1.323540337666006E-007
  1.017185858054345E-004  1.323540337666006E-007
  1.117267390755572E-004  1.323540337666006E-007
  1.186623376320754E-004  1.323540337666006E-007
  1.224728522535119E-004  1.323540337666006E-007
  1.340221767040073E-004  1.323540337666006E-007
  1.345480594326280E-004  1.323540337666006E-007
  1.366222783141441E-004  1.323540337666006E-007
  1.372806812450042E-004  1.323540337666006E-007
  1.411060612238876E-004  1.323540337666006E-007
  1.451210829395115E-004  1.323540337666006E-007
  1.556415621683052E-004  1.323540337666006E-007
  1.582461006329322E-004  1.323540337666006E-007
  1.597006644421123E-004  1.323540337666006E-007
  1.679944374236225E-004  1.323540337666006E-007
  1.819947342221581E-004  1.323540337666006E-007
  1.821570496309747E-004  1.323540337666006E-007
  1.895771057803792E-004  1.323540337666006E-007
  1.926218927702615E-004  1.323540337666006E-007
  2.035831046254708E-004  1.323540337666006E-007
  2.039971664114253E-004  1.323540337666006E-007
  2.221240318989067E-004  1.323540337666006E-007
  2.273144484878674E-004  1.323540337666006E-007
  2.314332221514866E-004  1.323540337666006E-007
  2.505707866058175E-004  1.323540337666006E-007
  2.704797571178094E-004  1.323540337666006E-007
  2.866146091018365E-004  1.323540337666006E-007
  2.880375360073126E-004  1.323540337666006E-007
  2.985938524640624E-004  1.323540337666006E-007
  3.169849539878797E-004  1.323540337666006E-007
  3.402019539528248E-004  1.323540337666006E-007
  3.435204777730513E-004  1.323540337666006E-007
  3.545110058347905E-004  1.323540337666006E-007
  3.610633856444095E-004  1.323540337666006E-007
  3.833170020355186E-004  1.323540337666006E-007
  3.876870909178286E-004  1.323540337666006E-007
  3.906474874556540E-004  1.323540337666006E-007
  3.985918820342260E-004  1.323540337666006E-007
  4.051420271287927E-004  1.323540337666006E-007
  4.190413864347955E-004  1.323540337666006E-007
  4.224534172983282E-004  1.323540337666006E-007
  4.303359357508632E-004  1.323540337666006E-007
  4.355764237525860E-004  1.323540337666006E-007
  4.398870900233918E-004  1.323540337666006E-007
  4.407441423835377E-004  1.323540337666006E-007
  4.424435885093017E-004  1.323540337666006E-007
  4.618956160559688E-004  1.323540337666006E-007
  4.632526442134653E-004  1.323540337666006E-007
  4.687559424360969E-004  1.323540337666006E-007
  4.809985985729963E-004  1.323540337666006E-007
  4.902425330958748E-004  1.323540337666006E-007
  4.965601744076464E-004  1.323540337666006E-007
  5.280188306652437E-004  1.323540337666006E-007
  5.338192189831095E-004  1.323540337666006E-007
  5.373087645490378E-004  1.323540337666006E-007
  5.536038263606839E-004  1.323540337666006E-007
  5.549294633136757E-004  1.323540337666006E-007
  5.559233107975388E-004  1.323540337666006E-007
  5.575068498833285E-004  1.323540337666006E-007
  5.982896243990330E-004  1.323540337666006E-007
  5.985350392200997E-004  1.323540337666006E-007
  5.992523265476792E-004  1.323540337666006E-007
  5.995885353545300E-004  1.323540337666006E-007
  5.998612329485567E-004  1.323540337666006E-007
  6.022164917454956E-004  1.323540337666006E-007
  6.138428838571272E-004  1.323540337666006E-007
  6.241653081045936E-004  1.323540337666006E-007
  6.310189773615966E-004  1.323540337666006E-007
  6.414590553987256E-004  1.323540337666006E-007
  6.449365308675843E-004  1.323540337666006E-007
  6.457450893830659E-004  1.323540337666006E-007
  6.475069980349293E-004  1.323540337666006E-007
  6.674910964512296E-004  1.323540337666006E-007
  6.740357670058717E-004  1.323540337666006E-007
  6.958207957779201E-004  1.323540337666006E-007
  6.968904106746723E-004  1.323540337666006E-007
  7.959075862484201E-004  1.323540337666006E-007
  8.203656551943804E-004  1.323540337666006E-007
  9.235487472843863E-004  1.323540337666006E-007
  9.991840520855533E-004  1.323540337666006E-007
  1.069468070988390E-003  1.323540337666006E-007
  1.087542629440080E-003  1.323540337666006E-007
  1.093519490989713E-003  1.323540337666006E-007
  1.094486455691459E-003  1.323540337666006E-007
  1.095111536410402E-003  1.323540337666006E-007
  1.095706124611613E-003  1.323540337666006E-007
  1.146447716229170E-003  1.323540337666006E-007
  1.146515393541423E-003  1.323540337666006E-007
  1.164445334004770E-003  1.323540337666006E-007
  1.164952221888941E-003  1.323540337666006E-007
  1.166103305899997E-003  1.323540337666006E-007
  1.166615891451528E-003  1.323540337666006E-007
  1.168258020931470E-003  1.323540337666006E-007
  1.168805100675813E-003  1.323540337666006E-007
  1.191651887627799E-003  1.323540337666006E-007
  1.199163031632791E-003  1.323540337666006E-007
  1.232108517713885E-003  1.323540337666006E-007
  1.291816581486211E-003  1.323540337666006E-007
  1.323806463888459E-003  1.323540337666006E-007
  1.498487718271388E-003  1.323540337666006E-007
  1.524428904802200E-003  1.323540337666006E-007
  1.725131402504949E-003  1.323540337666006E-007
  1.759560716893639E-003  1.323540337666006E-007
  1.912377824150898E-003  1.323540337666006E-007
  2.061554139387899E-003  1.323540337666006E-007
  2.276258590060651E-003  1.323540337666006E-007
  2.341268711847469E-003  1.323540337666006E-007
  2.520191864814505E-003  1.323540337666006E-007
  2.528044978945051E-003  1.323540337666006E-007
  2.558712479610095E-003  1.323540337666006E-007
  2.777618968360871E-003  1.323540337666006E-007
  2.924990092909995E-003  1.323540337666006E-007
  2.960321375678106E-003  1.323540337666006E-007
  3.022001097269828E-003  1.323540337666006E-007
  3.042635813377291E-003  1.323540337666006E-007
  3.083131402030763E-003  1.323540337666006E-007
  3.091265781980252E-003  1.323540337666006E-007
  3.620228639518763E-003  1.323540337666006E-007
  3.664167021131796E-003  1.323540337666006E-007
  3.665811933625789E-003  1.323540337666006E-007
  3.711904562504117E-003  1.323540337666006E-007
  3.713419750439576E-003  1.323540337666006E-007
  3.931790657187715E-003  1.323540337666006E-007
  4.882159201094340E-003  1.323540337666006E-007
  8.266335611110967E-002  1.323540337666006E-007
   5.78160871959428       1.323540337666006E-007
 cut=1d-8, nber non-redundant internal coords=         177
 Check on Eigenvals of non-red overlap matrix:
  0.00000013  0.00000066  0.00000097  0.00000122  0.00000351  0.00000380  0.00000503  0.00000637
  0.00000725  0.00000900  0.00001080  0.00001390  0.00001437  0.00001599  0.00001721  0.00001736
  0.00001831  0.00001914  0.00002030  0.00002183  0.00002340  0.00002358  0.00002393  0.00002532
  0.00002788  0.00002966  0.00003363  0.00003519  0.00003787  0.00003995  0.00004404  0.00004842
  0.00004891  0.00005075  0.00005268  0.00005638  0.00005694  0.00005754  0.00006221  0.00006578
  0.00006803  0.00006877  0.00007210  0.00007350  0.00008141  0.00008227  0.00008452  0.00008611
  0.00008721  0.00009101  0.00009342  0.00009475  0.00010172  0.00011173  0.00011866  0.00012247
  0.00013402  0.00013455  0.00013662  0.00013728  0.00014111  0.00014512  0.00015564  0.00015825
  0.00015970  0.00016799  0.00018199  0.00018216  0.00018958  0.00019262  0.00020358  0.00020400
  0.00022212  0.00022731  0.00023143  0.00025057  0.00027048  0.00028661  0.00028804  0.00029859
  0.00031698  0.00034020  0.00034352  0.00035451  0.00036106  0.00038332  0.00038769  0.00039065
  0.00039859  0.00040514  0.00041904  0.00042245  0.00043034  0.00043558  0.00043989  0.00044074
  0.00044244  0.00046190  0.00046325  0.00046876  0.00048100  0.00049024  0.00049656  0.00052802
  0.00053382  0.00053731  0.00055360  0.00055493  0.00055592  0.00055751  0.00059829  0.00059854
  0.00059925  0.00059959  0.00059986  0.00060222  0.00061384  0.00062417  0.00063102  0.00064146
  0.00064494  0.00064575  0.00064751  0.00066749  0.00067404  0.00069582  0.00069689  0.00079591
  0.00082037  0.00092355  0.00099918  0.00106947  0.00108754  0.00109352  0.00109449  0.00109511
  0.00109571  0.00114645  0.00114652  0.00116445  0.00116495  0.00116610  0.00116662  0.00116826
  0.00116881  0.00119165  0.00119916  0.00123211  0.00129182  0.00132381  0.00149849  0.00152443
  0.00172513  0.00175956  0.00191238  0.00206155  0.00227626  0.00234127  0.00252019  0.00252804
  0.00255871  0.00277762  0.00292499  0.00296032  0.00302200  0.00304264  0.00308313  0.00309127
  0.00362023  0.00366417  0.00366581  0.00371190  0.00371342  0.00393179  0.00488216  0.08266336
  5.78160872
 int defn changed for coord          26
          26          25           0           0
          26          23           0           0
