 Enter ifcurve (0=recti, 1=orth curvi, 2=apprx curvi, -1 = skip
 And atom ordering flag, 0= never changes, 1= use the first order thenceforth,
  2= deduce it (does read on fail), 3= always read it
 Reading file: 
 ./Benzene_Conj_0_C0S1.log                                                      
                                          
  Entering Gaussian System, Link 0=g16                                          
  
 Gaussian format, type: g94, g98, g03= F F F
  #P Geom=AllCheck Guess=TCheck SCRF=Check GenChk RB3LYP TD(FC,Read)/6-3    
 energy type= TD      
 Original G94 input coords:
  6 -4.458924  3.753739  0.000000
  6 -3.067162  3.720543  0.000000
  6 -2.363812  2.531709  0.000000
  6 -2.923946  1.229955  0.000000
  6 -4.359813  1.325729  0.000000
  6 -5.084617  2.535657  0.000000
 16 -5.447187  0.000000  0.000000
  6 -4.359813 -1.325729  0.000000
  6 -5.084617 -2.535657  0.000000
  6 -4.458924 -3.753739  0.000000
  6 -3.067162 -3.720543  0.000000
  6 -2.363812 -2.531709  0.000000
  6 -2.923946 -1.229955  0.000000
  7 -2.175252  0.000000  0.000000
  6 -0.524933  0.000000  0.000000
  6  0.232875 -1.179694  0.000000
  6  1.665901 -1.206379  0.000000
  6  2.383996 -2.425805  0.000000
  6  3.767394 -2.441659  0.000000
  6  4.529042 -1.245314  0.000000
  6  5.949315 -1.216029  0.000000
  6  6.623964  0.000000  0.000000
  6  5.949315  1.216029  0.000000
  6  4.529042  1.245314  0.000000
  6  3.767394  2.441659  0.000000
  6  2.383996  2.425805  0.000000
  6  1.665901  1.206379  0.000000
  6  0.232875  1.179694  0.000000
  6  2.401905  0.000000  0.000000
  6  3.825141  0.000000  0.000000
  1 -5.016943  4.680515  0.000000
  1 -2.495266  4.640412  0.000000
  1 -1.322438  2.665686  0.000000
  1 -6.167515  2.472859  0.000000
  1 -6.167515 -2.472859  0.000000
  1 -5.016943 -4.680515  0.000000
  1 -2.495266 -4.640412  0.000000
  1 -1.322438 -2.665686  0.000000
  1 -0.105569 -2.177888  0.000000
  1  1.836871 -3.364251  0.000000
  1  4.294144 -3.390700  0.000000
  1  6.499581 -2.150425  0.000000
  1  7.710132  0.000000  0.000000
  1  6.499581  2.150425  0.000000
  1  4.294144  3.390700  0.000000
  1  1.836871  3.364251  0.000000
  1 -0.105569  2.177888  0.000000
 nber atoms=          47
 Original standard coords:
  6  0.000000  3.753739  4.120336
  6  0.000000  3.720543  2.728573
  6  0.000000  2.531709  2.025223
  6  0.000000  1.229955  2.585358
  6  0.000000  1.325729  4.021224
  6  0.000000  2.535657  4.746028
 16  0.000000  0.000000  5.108598
  6  0.000000 -1.325729  4.021224
  6  0.000000 -2.535657  4.746028
  6  0.000000 -3.753739  4.120336
  6  0.000000 -3.720543  2.728573
  6  0.000000 -2.531709  2.025223
  6  0.000000 -1.229955  2.585358
  7  0.000000  0.000000  1.836663
  6  0.000000  0.000000  0.186344
  6  0.000000 -1.179694 -0.571463
  6  0.000000 -1.206379 -2.004490
  6  0.000000 -2.425805 -2.722585
  6  0.000000 -2.441659 -4.105982
  6  0.000000 -1.245314 -4.867630
  6  0.000000 -1.216029 -6.287904
  6  0.000000  0.000000 -6.962553
  6  0.000000  1.216029 -6.287904
  6  0.000000  1.245314 -4.867630
  6  0.000000  2.441659 -4.105982
  6  0.000000  2.425805 -2.722585
  6  0.000000  1.206379 -2.004490
  6  0.000000  1.179694 -0.571463
  6  0.000000  0.000000 -2.740494
  6  0.000000  0.000000 -4.163730
  1  0.000000  4.680515  4.678355
  1  0.000000  4.640412  2.156678
  1  0.000000  2.665686  0.983850
  1  0.000000  2.472859  5.828926
  1  0.000000 -2.472859  5.828926
  1  0.000000 -4.680515  4.678355
  1  0.000000 -4.640412  2.156678
  1  0.000000 -2.665686  0.983850
  1  0.000000 -2.177888 -0.233019
  1  0.000000 -3.364251 -2.175460
  1  0.000000 -3.390700 -4.632732
  1  0.000000 -2.150425 -6.838169
  1  0.000000  0.000000 -8.048720
  1  0.000000  2.150425 -6.838169
  1  0.000000  3.390700 -4.632732
  1  0.000000  3.364251 -2.175460
  1  0.000000  2.177888 -0.233019
  Total Energy, E(TD-HF/TD-DFT) =  -1530.29419128                               
  
          32          49 "  -1530.29419128"
After scan for Atom:   Atom  AN      X      Y      Z        X      Y      Z        X      Y      Z   
After scan for Atom:   Atom  AN      X      Y      Z        X      Y      Z        X      Y      Z   
After scan for Atom:   Atom  AN      X      Y      Z        X      Y      Z        X      Y      Z   
After scan for Atom:   Atom  AN      X      Y      Z        X      Y      Z        X      Y      Z   
After scan for Atom:   Atom  AN      X      Y      Z        X      Y      Z        X      Y      Z   
After scan for Atom:   Atom  AN      X      Y      Z        X      Y      Z        X      Y      Z   
After scan for Atom:   Atom  AN      X      Y      Z        X      Y      Z        X      Y      Z   
After scan for Atom:   Atom  AN      X      Y      Z        X      Y      Z        X      Y      Z   
After scan for Atom:   Atom  AN      X      Y      Z        X      Y      Z        X      Y      Z   
After scan for Atom:   Atom  AN      X      Y      Z        X      Y      Z        X      Y      Z   
After scan for Atom:   Atom  AN      X      Y      Z        X      Y      Z        X      Y      Z   
After scan for Atom:   Atom  AN      X      Y      Z        X      Y      Z        X      Y      Z   
After scan for Atom:   Atom  AN      X      Y      Z        X      Y      Z        X      Y      Z   
After scan for Atom:   Atom  AN      X      Y      Z        X      Y      Z        X      Y      Z   
After scan for Atom:   Atom  AN      X      Y      Z        X      Y      Z        X      Y      Z   
After scan for Atom:   Atom  AN      X      Y      Z        X      Y      Z        X      Y      Z   
After scan for Atom:   Atom  AN      X      Y      Z        X      Y      Z        X      Y      Z   
After scan for Atom:   Atom  AN      X      Y      Z        X      Y      Z        X      Y      Z   
After scan for Atom:   Atom  AN      X      Y      Z        X      Y      Z        X      Y      Z   
After scan for Atom:   Atom  AN      X      Y      Z        X      Y      Z        X      Y      Z   
After scan for Atom:   Atom  AN      X      Y      Z        X      Y      Z        X      Y      Z   
After scan for Atom:   Atom  AN      X      Y      Z        X      Y      Z        X      Y      Z   
After scan for Atom:   Atom  AN      X      Y      Z        X      Y      Z        X      Y      Z   
After scan for Atom:   Atom  AN      X      Y      Z        X      Y      Z        X      Y      Z   
After scan for Atom:   Atom  AN      X      Y      Z        X      Y      Z        X      Y      Z   
After scan for Atom:   Atom  AN      X      Y      Z        X      Y      Z        X      Y      Z   
After scan for Atom:   Atom  AN      X      Y      Z        X      Y      Z        X      Y      Z   
After scan for Atom:   Atom  AN      X      Y      Z        X      Y      Z        X      Y      Z   
After scan for Atom:   Atom  AN      X      Y      Z        X      Y      Z        X      Y      Z   
After scan for Atom:   Atom  AN      X      Y      Z        X      Y      Z        X      Y      Z   
After scan for Atom:   Atom  AN      X      Y      Z        X      Y      Z        X      Y      Z   
After scan for Atom:   Atom  AN      X      Y      Z        X      Y      Z        X      Y      Z   
After scan for Atom:   Atom  AN      X      Y      Z        X      Y      Z        X      Y      Z   
After scan for Atom:   Atom  AN      X      Y      Z        X      Y      Z        X      Y      Z   
After scan for Atom:   Atom  AN      X      Y      Z        X      Y      Z        X      Y      Z   
After scan for Atom:   Atom  AN      X      Y      Z        X      Y      Z        X      Y      Z   
After scan for Atom:   Atom  AN      X      Y      Z        X      Y      Z        X      Y      Z   
After scan for Atom:   Atom  AN      X      Y      Z        X      Y      Z        X      Y      Z   
After scan for Atom:   Atom  AN      X      Y      Z        X      Y      Z        X      Y      Z   
After scan for Atom:   Atom  AN      X      Y      Z        X      Y      Z        X      Y      Z   
After scan for Atom:   Atom  AN      X      Y      Z        X      Y      Z        X      Y      Z   
After scan for Atom:   Atom  AN      X      Y      Z        X      Y      Z        X      Y      Z   
After scan for Atom:   Atom  AN      X      Y      Z        X      Y      Z        X      Y      Z   
After scan for Atom:   Atom  AN      X      Y      Z        X      Y      Z        X      Y      Z   
After scan for Atom:   Atom  AN      X      Y      Z        X      Y      Z        X      Y      Z   
 g94    frequencies=
     0.0    0.0    0.0    0.0    0.0    0.0 -676.9 -555.3  -85.7  -18.3
    24.6   28.7   89.6   90.5  159.3  162.3  173.8  179.7  190.7  222.1
   231.8  233.6  258.4  350.2  360.0  364.5  385.5  394.0  401.0  418.2
   435.6  458.5  468.9  480.6  492.9  493.9  498.9  507.4  528.4  535.5
   541.7  570.6  573.7  616.2  627.4  642.1  648.1  655.1  670.4  674.5
   691.5  700.9  713.5  721.0  741.7  741.9  754.8  768.1  790.0  805.4
   808.0  812.5  813.2  814.4  829.4  856.0  857.4  890.1  894.5  903.8
   943.1  943.7  956.3  997.2  997.6  998.3 1001.5 1036.6 1057.5 1075.4
  1088.5 1099.5 1108.0 1135.1 1139.5 1152.4 1169.6 1173.8 1176.0 1192.2
  1192.7 1204.2 1212.8 1231.2 1242.4 1259.4 1286.8 1287.4 1294.2 1324.3
  1327.1 1336.0 1351.5 1355.9 1379.9 1402.1 1404.9 1443.5 1453.4 1463.3
  1480.2 1482.7 1494.0 1508.0 1512.6 1562.9 1573.0 1577.8 1586.1 1612.4
  1615.2 1632.6 1644.8 1648.5 3135.0 3135.4 3141.7 3158.7 3160.0 3164.3
  3165.6 3165.7 3173.7 3189.7 3189.7 3212.2 3212.2 3454.8 3457.0 3608.9
  3609.9
 g94    symmetries=
                                                A2     B1     A2     B1
      ?A     ?A     B1     B2     A1     A2     B1     B2     B1     A2
      B1     A1     A2     B2     A1     B1     A2     B1     B2     A2
      A1     B1     B2     B2     B2     B2     B2     A2     A1     ?A
      ?A     B1     B2     A1     B1     B2     A2     A1     A2     B1
      A1     A1     B1     B1     ?B     ?B     B1     A2     B2     B1
      A2     B1     A2     A1     A1     B1     A1     B2     A2     B1
      A2     B1     B1     A2     B1     ?A     ?A     A1     B2     B2
      A1     B2     A1     A1     B2     A1     B2     A1     B2     ?A
      ?A     B2     A1     B2     B2     A1     ?A     ?A     B2     ?C
      ?C     ?C     B2     A1     B2     ?A     ?A     B2     A1     B2
      A1     A1     B2     ?A     ?A     A1     A1     B2     B2     ?A
      ?A     ?D     ?D     ?D     ?A     ?A     A1     B2     A1     B2
      ?A     ?A     A1     ?A     ?A     ?A     ?A     B2     A1     ?A
      ?A
 atomic masses:
 12.0000 12.0000 12.0000 12.0000 12.0000 12.0000 31.9721 12.0000 12.0000 12.0000
 12.0000 12.0000 12.0000 14.0031 12.0000 12.0000 12.0000 12.0000 12.0000 12.0000
 12.0000 12.0000 12.0000 12.0000 12.0000 12.0000 12.0000 12.0000 12.0000 12.0000
  1.0078  1.0078  1.0078  1.0078  1.0078  1.0078  1.0078  1.0078  1.0078  1.0078
  1.0078  1.0078  1.0078  1.0078  1.0078  1.0078  1.0078
 looking for force constants in 
 ./Benzene_Conj_0_C0S1.fchk                                                     
  
 Cartesian Force Constants                  R   N=       10011                  
  
 n3=         141       10011
 g94-fc frequencies=
  -676.9 -555.3  -85.7  -18.3   -2.2   -1.9   -1.4   -0.0    0.0    0.0
    24.6   28.7   89.6   90.5  159.3  162.3  173.8  179.7  190.7  222.1
   231.8  233.6  258.4  350.2  360.0  364.5  385.5  394.0  401.1  418.2
   435.6  458.5  468.9  480.6  492.9  493.9  498.9  507.4  528.4  535.5
   541.7  570.6  573.7  616.2  627.4  642.2  648.1  655.1  670.4  674.5
   691.5  700.9  713.5  721.0  741.7  741.9  754.8  768.1  790.1  805.4
   808.0  812.5  813.3  814.4  829.4  856.0  857.4  890.1  894.5  903.8
   943.1  943.7  956.3  997.2  997.6  998.4 1001.5 1036.7 1057.6 1075.4
  1088.5 1099.5 1108.0 1135.1 1139.5 1152.4 1169.7 1173.9 1176.1 1192.3
  1192.8 1204.2 1212.8 1231.3 1242.5 1259.4 1286.8 1287.4 1294.2 1324.3
  1327.1 1336.0 1351.5 1356.0 1380.0 1402.1 1404.9 1443.5 1453.4 1463.3
  1480.3 1482.7 1494.1 1508.0 1512.6 1563.0 1573.1 1577.8 1586.1 1612.5
  1615.3 1632.7 1644.9 1648.5 3135.0 3135.4 3141.7 3158.7 3160.0 3164.3
  3165.6 3165.8 3173.7 3189.8 3189.8 3212.3 3212.3 3454.9 3457.1 3609.0
  3610.0
 at 99999: n3=         141
 symm operator            1 :  T  nop=           1
 symm operator            2 :  F  nop=           1
 symm operator            3 :  F  nop=           1
 symm operator            4 :  F  nop=           1
 symm operator            5 :  F  nop=           1
 symm operator            6 :  T  nop=           2
 symm operator            7 :  T  nop=           3
 The point group of the molecule is C2V
 enforcing symm op           1  jsymt=          -1          -1           1
 enforcing symm op           6  jsymt=           1          -1           1
 enforcing symm op           7  jsymt=          -1           1           1
 cartesian coord symmetries:
 A1 :   47 A2 :   20 B1 :   27 B2 :   47
 Symmetry rotation matrix:
   1.00000   0.00000   0.00000
   0.00000   1.00000   0.00000
   0.00000   0.00000   1.00000

 Projecting out zero-frequency components
 generating redundant internal coords
         300        3600          47
 search for int coords
   1 str   2   1   1.392
   2 str   3   2   1.381
   3 str   4   3   1.417
   4 str   5   4   1.439
   5 str   6   1   1.369
   6 str   6   5   1.410
   7 str   7   5   1.715
   8 str   8   7   1.715
   9 str   9   8   1.410
  10 str  10   9   1.369
  11 str  11  10   1.392
  12 str  12  11   1.381
  13 str  13   8   1.439
  14 str  13  12   1.417
  15 str  14   4   1.440
  16 str  14  13   1.440
  17 str  15  14   1.650
  18 str  16  15   1.402
  19 str  17  16   1.433
  20 str  18  17   1.415
  21 str  19  18   1.383
  22 str  20  19   1.418
  23 str  21  20   1.421
  24 str  22  21   1.391
  25 str  23  22   1.391
  26 str  24  23   1.421
  27 str  25  24   1.418
  28 str  26  25   1.383
  29 str  27  26   1.415
  30 str  28  15   1.402
  31 str  28  27   1.433
  32 str  29  17   1.413
  33 str  29  27   1.413
  34 str  30  20   1.430
  35 str  30  24   1.430
  36 str  30  29   1.423
  37 str  31   1   1.082
  38 str  32   2   1.083
  39 str  33   3   1.050
  40 str  34   6   1.085
  41 str  35   9   1.085
  42 str  36  10   1.082
  43 str  37  11   1.083
  44 str  38  12   1.050
  45 str  39  16   1.054
  46 str  40  18   1.086
  47 str  41  19   1.085
  48 str  42  21   1.084
  49 str  43  22   1.086
  50 str  44  23   1.084
  51 str  45  25   1.085
  52 str  46  26   1.086
  53 str  47  28   1.054
 nber stretches=          53
  54 ben   1   2   3
  55 prop tor   1   2   3   4
  56 prop tor   1   2   3  33
  57 ben   1   2  32
  58 ben   1   6   5
  59 ben   1   6  34
  60 ben   2   1   6
  61 prop tor   2   1   6   5
  62 prop tor   2   1   6  34
  63 ben   2   1  31
  64 ben   2   3   4
  65 prop tor   2   3   4   5
  66 prop tor   2   3   4  14
  67 ben   2   3  33
  68 ben   3   2  32
  69 ben   3   4   5
  70 prop tor   3   4   5   6
  71 prop tor   3   4   5   7
  72 ben   3   4  14
  73 prop tor   3   4  14  13
  74 prop tor   3   4  14  15
  75 ben   4   3  33
  76 ben   4   5   6
  77 prop tor   4   5   6   1
  78 prop tor   4   5   6  34
  79 ben   4   5   7
  80 prop tor   4   5   7   8
  81 ben   4  14  13
  82 ben   4  14  15
  83 prop tor   4  14  15  16
  84 prop tor   4  14  15  28
  85 ben   5   4  14
  86 prop tor   5   4  14  13
  87 prop tor   5   4  14  15
  88 ben   5   6  34
  89 ben   5   7   8
  90 prop tor   5   7   8   9
  91 prop tor   5   7   8  13
  92 prop tor   6   1   2   3
  93 prop tor   6   1   2  32
  94 ben   6   1  31
  95 ben   6   5   7
  96 prop tor   6   5   7   8
  97 prop tor   7   5   6   1
  98 prop tor   7   5   6  34
  99 ben   7   8   9
 100 prop tor   7   8   9  10
 101 prop tor   7   8   9  35
 102 ben   7   8  13
 103 prop tor   7   8  13  12
 104 prop tor   7   8  13  14
 105 ben   8   9  10
 106 prop tor   8   9  10  11
 107 prop tor   8   9  10  36
 108 ben   8   9  35
 109 ben   8  13  12
 110 ben   8  13  14
 111 prop tor   8  13  14   4
 112 prop tor   8  13  14  15
 113 ben   9   8  13
 114 prop tor   9   8  13  12
 115 prop tor   9   8  13  14
 116 ben   9  10  11
 117 prop tor   9  10  11  12
 118 prop tor   9  10  11  37
 119 ben   9  10  36
 120 ben  10   9  35
 121 ben  10  11  12
 122 prop tor  10  11  12  13
 123 prop tor  10  11  12  38
 124 ben  10  11  37
 125 ben  11  10  36
 126 ben  11  12  13
 127 prop tor  11  12  13   8
 128 prop tor  11  12  13  14
 129 ben  11  12  38
 130 ben  12  11  37
 131 ben  12  13  14
 132 prop tor  12  13  14   4
 133 prop tor  12  13  14  15
 134 prop tor  13   8   9  10
 135 prop tor  13   8   9  35
 136 ben  13  12  38
 137 ben  13  14  15
 138 prop tor  13  14  15  16
 139 prop tor  13  14  15  28
 140 prop tor  14   4   5   6
 141 prop tor  14   4   5   7
 142 ben  14  15  16
 143 prop tor  14  15  16  17
 144 prop tor  14  15  16  39
 145 ben  14  15  28
 146 prop tor  14  15  28  27
 147 prop tor  14  15  28  47
 148 ben  15  16  17
 149 prop tor  15  16  17  18
 150 prop tor  15  16  17  29
 151 ben  15  16  39
 152 ben  15  28  27
 153 ben  15  28  47
 154 ben  16  15  28
 155 prop tor  16  15  28  27
 156 prop tor  16  15  28  47
 157 ben  16  17  18
 158 prop tor  16  17  18  19
 159 prop tor  16  17  18  40
 160 ben  16  17  29
 161 prop tor  16  17  29  27
 162 prop tor  16  17  29  30
 163 ben  17  16  39
 164 ben  17  18  19
 165 prop tor  17  18  19  20
 166 prop tor  17  18  19  41
 167 ben  17  18  40
 168 ben  17  29  27
 169 ben  17  29  30
 170 prop tor  17  29  30  20
 171 prop tor  17  29  30  24
 172 ben  18  17  29
 173 prop tor  18  17  29  27
 174 prop tor  18  17  29  30
 175 ben  18  19  20
 176 prop tor  18  19  20  21
 177 prop tor  18  19  20  30
 178 ben  18  19  41
 179 ben  19  18  40
 180 ben  19  20  21
 181 prop tor  19  20  21  22
 182 prop tor  19  20  21  42
 183 ben  19  20  30
 184 prop tor  19  20  30  24
 185 prop tor  19  20  30  29
 186 ben  20  19  41
 187 ben  20  21  22
 188 prop tor  20  21  22  23
 189 prop tor  20  21  22  43
 190 ben  20  21  42
 191 ben  20  30  24
 192 ben  20  30  29
 193 ben  21  20  30
 194 prop tor  21  20  30  24
 195 prop tor  21  20  30  29
 196 ben  21  22  23
 197 prop tor  21  22  23  24
 198 prop tor  21  22  23  44
 199 ben  21  22  43
 200 ben  22  21  42
 201 ben  22  23  24
 202 prop tor  22  23  24  25
 203 prop tor  22  23  24  30
 204 ben  22  23  44
 205 ben  23  22  43
 206 ben  23  24  25
 207 prop tor  23  24  25  26
 208 prop tor  23  24  25  45
 209 ben  23  24  30
 210 prop tor  23  24  30  20
 211 prop tor  23  24  30  29
 212 ben  24  23  44
 213 ben  24  25  26
 214 prop tor  24  25  26  27
 215 prop tor  24  25  26  46
 216 ben  24  25  45
 217 ben  24  30  29
 218 ben  25  24  30
 219 prop tor  25  24  30  20
 220 prop tor  25  24  30  29
 221 ben  25  26  27
 222 prop tor  25  26  27  28
 223 prop tor  25  26  27  29
 224 ben  25  26  46
 225 ben  26  25  45
 226 ben  26  27  28
 227 prop tor  26  27  28  15
 228 prop tor  26  27  28  47
 229 ben  26  27  29
 230 prop tor  26  27  29  17
 231 prop tor  26  27  29  30
 232 ben  27  26  46
 233 ben  27  28  47
 234 ben  27  29  30
 235 prop tor  27  29  30  20
 236 prop tor  27  29  30  24
 237 prop tor  28  15  16  17
 238 prop tor  28  15  16  39
 239 ben  28  27  29
 240 prop tor  28  27  29  17
 241 prop tor  28  27  29  30
 242 prop tor  29  17  18  19
 243 prop tor  29  17  18  40
 244 prop tor  29  27  28  15
 245 prop tor  29  27  28  47
 246 prop tor  30  20  21  22
 247 prop tor  30  20  21  42
 248 prop tor  30  24  25  26
 249 prop tor  30  24  25  45
 250 prop tor  31   1   2   3
 251 prop tor  31   1   2  32
 252 prop tor  31   1   6   5
 253 prop tor  31   1   6  34
 254 prop tor  32   2   3   4
 255 prop tor  32   2   3  33
 256 prop tor  33   3   4   5
 257 prop tor  33   3   4  14
 258 prop tor  35   9  10  11
 259 prop tor  35   9  10  36
 260 prop tor  36  10  11  12
 261 prop tor  36  10  11  37
 262 prop tor  37  11  12  13
 263 prop tor  37  11  12  38
 264 prop tor  38  12  13   8
 265 prop tor  38  12  13  14
 266 prop tor  39  16  17  18
 267 prop tor  39  16  17  29
 268 prop tor  40  18  19  20
 269 prop tor  40  18  19  41
 270 prop tor  41  19  20  21
 271 prop tor  41  19  20  30
 272 prop tor  42  21  22  23
 273 prop tor  42  21  22  43
 274 prop tor  43  22  23  24
 275 prop tor  43  22  23  44
 276 prop tor  44  23  24  25
 277 prop tor  44  23  24  30
 278 prop tor  45  25  26  27
 279 prop tor  45  25  26  46
 280 prop tor  46  26  27  28
 281 prop tor  46  26  27  29
 nber bend=              88
 nber lin bend=           0
 nber prop tor=         140
 nber impr tor=           0
 nber tot redund int=         281
 Eigenvalues of G in red int coords
    Gval -0.00000000 -0.00000000 -0.00000000 -0.00000000 -0.00000000 -0.00000000 -0.00000000 -0.00000000
    Gval -0.00000000 -0.00000000 -0.00000000 -0.00000000 -0.00000000 -0.00000000 -0.00000000 -0.00000000
    Gval -0.00000000 -0.00000000 -0.00000000 -0.00000000 -0.00000000 -0.00000000 -0.00000000 -0.00000000
    Gval -0.00000000 -0.00000000 -0.00000000 -0.00000000 -0.00000000 -0.00000000 -0.00000000 -0.00000000
    Gval -0.00000000 -0.00000000 -0.00000000 -0.00000000 -0.00000000 -0.00000000 -0.00000000 -0.00000000
    Gval -0.00000000 -0.00000000 -0.00000000 -0.00000000 -0.00000000 -0.00000000 -0.00000000 -0.00000000
    Gval -0.00000000 -0.00000000 -0.00000000 -0.00000000 -0.00000000 -0.00000000 -0.00000000 -0.00000000
    Gval -0.00000000 -0.00000000 -0.00000000 -0.00000000 -0.00000000 -0.00000000 -0.00000000 -0.00000000
    Gval -0.00000000 -0.00000000 -0.00000000 -0.00000000  0.00000000  0.00000000  0.00000000  0.00000000
    Gval  0.00000000  0.00000000  0.00000000  0.00000000  0.00000000  0.00000000  0.00000000  0.00000000
    Gval  0.00000000  0.00000000  0.00000000  0.00000000  0.00000000  0.00000000  0.00000000  0.00000000
    Gval  0.00000000  0.00000000  0.00000000  0.00000000  0.00000000  0.00000000  0.00000000  0.00000000
    Gval  0.00000000  0.00000000  0.00000000  0.00000000  0.00000000  0.00000000  0.00000000  0.00000000
    Gval  0.00000000  0.00000000  0.00000000  0.00000000  0.00000000  0.00000000  0.00000000  0.00000000
    Gval  0.00000000  0.00000000  0.00000000  0.00000000  0.00000000  0.00000000  0.00000000  0.00000000
    Gval  0.00000000  0.00000000  0.00000000  0.00000000  0.00000000  0.00000000  0.00000000  0.00000000
    Gval  0.00000000  0.00000000  0.00000000  0.00000000  0.00000000  0.00000000  0.00000000  0.00000000
    Gval  0.00000000  0.00000000  0.00000000  0.00000000  0.00000000  0.00000000  0.00000000  0.00000000
    Gval  0.00000000  0.00000000  0.00000053  0.00000196  0.00000434  0.00000464  0.00000495  0.00000858
    Gval  0.00000989  0.00001714  0.00001962  0.00002060  0.00002262  0.00002438  0.00002453  0.00002833
    Gval  0.00002953  0.00003757  0.00003974  0.00004663  0.00005065  0.00005504  0.00005648  0.00006005
    Gval  0.00006312  0.00006320  0.00006862  0.00007264  0.00007453  0.00007577  0.00007864  0.00008017
    Gval  0.00008329  0.00009314  0.00010318  0.00010391  0.00011296  0.00011817  0.00011976  0.00012296
    Gval  0.00012894  0.00013129  0.00013977  0.00014012  0.00014928  0.00017260  0.00017327  0.00018274
    Gval  0.00019452  0.00020368  0.00020658  0.00020894  0.00024445  0.00026287  0.00026365  0.00027614
    Gval  0.00028157  0.00031282  0.00032070  0.00034146  0.00036590  0.00036821  0.00037044  0.00038414
    Gval  0.00038450  0.00039883  0.00042111  0.00042296  0.00044008  0.00044686  0.00046378  0.00051616
    Gval  0.00059329  0.00059331  0.00059383  0.00059692  0.00059706  0.00059719  0.00059741  0.00059867
    Gval  0.00060756  0.00061842  0.00062034  0.00062242  0.00062618  0.00064126  0.00064585  0.00065620
    Gval  0.00065693  0.00065778  0.00074354  0.00076934  0.00079593  0.00083547  0.00091391  0.00098281
    Gval  0.00106217  0.00106247  0.00106264  0.00106727  0.00108595  0.00108690  0.00113257  0.00113264
    Gval  0.00114011  0.00115527  0.00115637  0.00116468  0.00116503  0.00117959  0.00117962  0.00118948
    Gval  0.00119668  0.00119699  0.00137819  0.00147638  0.00172381  0.00173117  0.00176745  0.00185289
    Gval  0.00192473  0.00216775  0.00232259  0.00242658  0.00259570  0.00268737  0.00274890  0.00311980
    Gval  0.00336407  0.00337413  0.00349309  0.00352819  0.00366807  0.00370659  0.00390641  0.00407853
    Gval  0.00407962
  5.296793742908585E-007  5.296793742908585E-007
  1.961867859406954E-006  5.296793742908585E-007
  4.338503441135314E-006  5.296793742908585E-007
  4.643771470695663E-006  5.296793742908585E-007
  4.953284040389566E-006  5.296793742908585E-007
  8.583990109203164E-006  5.296793742908585E-007
  9.889290961732626E-006  5.296793742908585E-007
  1.713562163987201E-005  5.296793742908585E-007
  1.962279804970871E-005  5.296793742908585E-007
  2.060054241523437E-005  5.296793742908585E-007
  2.262237691898069E-005  5.296793742908585E-007
  2.437705360392315E-005  5.296793742908585E-007
  2.453340955054024E-005  5.296793742908585E-007
  2.833269076286168E-005  5.296793742908585E-007
  2.952603133821114E-005  5.296793742908585E-007
  3.756849150247781E-005  5.296793742908585E-007
  3.974181935351045E-005  5.296793742908585E-007
  4.663027529290225E-005  5.296793742908585E-007
  5.065382344358338E-005  5.296793742908585E-007
  5.504238124611970E-005  5.296793742908585E-007
  5.647773671244888E-005  5.296793742908585E-007
  6.004579815257687E-005  5.296793742908585E-007
  6.312010792898060E-005  5.296793742908585E-007
  6.319778020150761E-005  5.296793742908585E-007
  6.862254339507893E-005  5.296793742908585E-007
  7.263929196817061E-005  5.296793742908585E-007
  7.452754516371623E-005  5.296793742908585E-007
  7.576675624768635E-005  5.296793742908585E-007
  7.863628905234032E-005  5.296793742908585E-007
  8.016650316267628E-005  5.296793742908585E-007
  8.329080490855795E-005  5.296793742908585E-007
  9.313683682114716E-005  5.296793742908585E-007
  1.031813293966940E-004  5.296793742908585E-007
  1.039082117120412E-004  5.296793742908585E-007
  1.129623213091142E-004  5.296793742908585E-007
  1.181670096411729E-004  5.296793742908585E-007
  1.197634857449645E-004  5.296793742908585E-007
  1.229557958594465E-004  5.296793742908585E-007
  1.289371585237400E-004  5.296793742908585E-007
  1.312852582165599E-004  5.296793742908585E-007
  1.397674043635631E-004  5.296793742908585E-007
  1.401167967687528E-004  5.296793742908585E-007
  1.492778263378577E-004  5.296793742908585E-007
  1.726006911813382E-004  5.296793742908585E-007
  1.732686449255729E-004  5.296793742908585E-007
  1.827428227948540E-004  5.296793742908585E-007
  1.945241327210068E-004  5.296793742908585E-007
  2.036784981996306E-004  5.296793742908585E-007
  2.065816683534002E-004  5.296793742908585E-007
  2.089364500055628E-004  5.296793742908585E-007
  2.444515964856551E-004  5.296793742908585E-007
  2.628662938683275E-004  5.296793742908585E-007
  2.636501043590281E-004  5.296793742908585E-007
  2.761375927405432E-004  5.296793742908585E-007
  2.815677186268080E-004  5.296793742908585E-007
  3.128151742726661E-004  5.296793742908585E-007
  3.207030322712763E-004  5.296793742908585E-007
  3.414596785416663E-004  5.296793742908585E-007
  3.658997421473990E-004  5.296793742908585E-007
  3.682061923440946E-004  5.296793742908585E-007
  3.704360596361483E-004  5.296793742908585E-007
  3.841352215735171E-004  5.296793742908585E-007
  3.844980759091964E-004  5.296793742908585E-007
  3.988333432681321E-004  5.296793742908585E-007
  4.211091853062522E-004  5.296793742908585E-007
  4.229587924627775E-004  5.296793742908585E-007
  4.400799307858569E-004  5.296793742908585E-007
  4.468579277816380E-004  5.296793742908585E-007
  4.637846139782307E-004  5.296793742908585E-007
  5.161557202235725E-004  5.296793742908585E-007
  5.932873910549830E-004  5.296793742908585E-007
  5.933058371615748E-004  5.296793742908585E-007
  5.938262949165998E-004  5.296793742908585E-007
  5.969239378334843E-004  5.296793742908585E-007
  5.970579416256108E-004  5.296793742908585E-007
  5.971920930978217E-004  5.296793742908585E-007
  5.974121665998294E-004  5.296793742908585E-007
  5.986732814374636E-004  5.296793742908585E-007
  6.075574462879266E-004  5.296793742908585E-007
  6.184209933372344E-004  5.296793742908585E-007
  6.203374974223099E-004  5.296793742908585E-007
  6.224236709760064E-004  5.296793742908585E-007
  6.261846344379742E-004  5.296793742908585E-007
  6.412588517099926E-004  5.296793742908585E-007
  6.458547872266990E-004  5.296793742908585E-007
  6.562014718304780E-004  5.296793742908585E-007
  6.569298579071194E-004  5.296793742908585E-007
  6.577773009390265E-004  5.296793742908585E-007
  7.435373603640161E-004  5.296793742908585E-007
  7.693445938234012E-004  5.296793742908585E-007
  7.959312911362996E-004  5.296793742908585E-007
  8.354694989370558E-004  5.296793742908585E-007
  9.139060143925299E-004  5.296793742908585E-007
  9.828143954798106E-004  5.296793742908585E-007
  1.062172165110110E-003  5.296793742908585E-007
  1.062468999259105E-003  5.296793742908585E-007
  1.062635361444654E-003  5.296793742908585E-007
  1.067271402988488E-003  5.296793742908585E-007
  1.085948750784045E-003  5.296793742908585E-007
  1.086896421036571E-003  5.296793742908585E-007
  1.132568707663419E-003  5.296793742908585E-007
  1.132641050463219E-003  5.296793742908585E-007
  1.140112360388316E-003  5.296793742908585E-007
  1.155265563044344E-003  5.296793742908585E-007
  1.156370073587166E-003  5.296793742908585E-007
  1.164678547447628E-003  5.296793742908585E-007
  1.165030589856333E-003  5.296793742908585E-007
  1.179590303153143E-003  5.296793742908585E-007
  1.179622913930656E-003  5.296793742908585E-007
  1.189475958408598E-003  5.296793742908585E-007
  1.196676906875486E-003  5.296793742908585E-007
  1.196985015726515E-003  5.296793742908585E-007
  1.378187548479214E-003  5.296793742908585E-007
  1.476378642704155E-003  5.296793742908585E-007
  1.723811036724587E-003  5.296793742908585E-007
  1.731167045534883E-003  5.296793742908585E-007
  1.767451735177286E-003  5.296793742908585E-007
  1.852894215976716E-003  5.296793742908585E-007
  1.924727675279551E-003  5.296793742908585E-007
  2.167746898697097E-003  5.296793742908585E-007
  2.322592171559888E-003  5.296793742908585E-007
  2.426582458970828E-003  5.296793742908585E-007
  2.595699102597786E-003  5.296793742908585E-007
  2.687369705857772E-003  5.296793742908585E-007
  2.748902308462222E-003  5.296793742908585E-007
  3.119800480075068E-003  5.296793742908585E-007
  3.364071800024871E-003  5.296793742908585E-007
  3.374130833446655E-003  5.296793742908585E-007
  3.493085867612592E-003  5.296793742908585E-007
  3.528185637622628E-003  5.296793742908585E-007
  3.668065648014914E-003  5.296793742908585E-007
  3.706594670472221E-003  5.296793742908585E-007
  3.906408443665919E-003  5.296793742908585E-007
  4.078527289447319E-003  5.296793742908585E-007
  4.079615894483784E-003  5.296793742908585E-007
 cut=1d-8, nber non-redundant internal coords=         135
 Check on Eigenvals of non-red overlap matrix:
  0.00000053  0.00000196  0.00000434  0.00000464  0.00000495  0.00000858  0.00000989  0.00001714
  0.00001962  0.00002060  0.00002262  0.00002438  0.00002453  0.00002833  0.00002953  0.00003757
  0.00003974  0.00004663  0.00005065  0.00005504  0.00005648  0.00006005  0.00006312  0.00006320
  0.00006862  0.00007264  0.00007453  0.00007577  0.00007864  0.00008017  0.00008329  0.00009314
  0.00010318  0.00010391  0.00011296  0.00011817  0.00011976  0.00012296  0.00012894  0.00013129
  0.00013977  0.00014012  0.00014928  0.00017260  0.00017327  0.00018274  0.00019452  0.00020368
  0.00020658  0.00020894  0.00024445  0.00026287  0.00026365  0.00027614  0.00028157  0.00031282
  0.00032070  0.00034146  0.00036590  0.00036821  0.00037044  0.00038414  0.00038450  0.00039883
  0.00042111  0.00042296  0.00044008  0.00044686  0.00046378  0.00051616  0.00059329  0.00059331
  0.00059383  0.00059692  0.00059706  0.00059719  0.00059741  0.00059867  0.00060756  0.00061842
  0.00062034  0.00062242  0.00062618  0.00064126  0.00064585  0.00065620  0.00065693  0.00065778
  0.00074354  0.00076934  0.00079593  0.00083547  0.00091391  0.00098281  0.00106217  0.00106247
  0.00106264  0.00106727  0.00108595  0.00108690  0.00113257  0.00113264  0.00114011  0.00115527
  0.00115637  0.00116468  0.00116503  0.00117959  0.00117962  0.00118948  0.00119668  0.00119699
  0.00137819  0.00147638  0.00172381  0.00173117  0.00176745  0.00185289  0.00192473  0.00216775
  0.00232259  0.00242658  0.00259570  0.00268737  0.00274890  0.00311980  0.00336407  0.00337413
  0.00349309  0.00352819  0.00366807  0.00370659  0.00390641  0.00407853  0.00407962
 Checking for correct frequencies
 recalc frequencies=
  -676.9 -555.3  -85.7  -18.3   -0.0   -0.0    0.0    0.0    0.0    0.0
    24.6   28.7   89.6   90.5  159.3  162.3  173.8  179.7  190.7  222.1
   231.8  233.6  258.4  350.2  360.0  364.5  385.5  394.0  401.1  418.2
   435.6  458.5  468.9  480.6  492.9  493.9  498.9  507.4  528.4  535.5
   541.7  570.6  573.7  616.2  627.4  642.2  648.1  655.1  670.4  674.5
   691.5  700.9  713.5  721.0  741.7  741.9  754.8  768.1  790.1  805.4
   808.0  812.5  813.3  814.4  829.4  856.0  857.4  890.1  894.5  903.8
   943.1  943.7  956.3  997.2  997.6  998.4 1001.5 1036.7 1057.6 1075.4
  1088.5 1099.5 1108.0 1135.1 1139.5 1152.4 1169.7 1173.9 1176.1 1192.3
  1192.8 1204.2 1212.8 1231.3 1242.5 1259.4 1286.8 1287.4 1294.2 1324.3
  1327.1 1336.0 1351.5 1356.0 1380.0 1402.1 1404.9 1443.5 1453.4 1463.3
  1480.3 1482.7 1494.1 1508.0 1512.6 1563.0 1573.1 1577.8 1586.1 1612.5
  1615.3 1632.7 1644.9 1648.5 3135.0 3135.4 3141.7 3158.7 3160.0 3164.3
  3165.6 3165.8 3173.7 3189.8 3189.8 3212.3 3212.3 3454.9 3457.1 3609.0
  3610.0
 recalc symmetries=
     A2     B1     A2     B1     B2     A1     B1     A2     B1     B2 
     A2     B1     B1     B2     A1     A2     B1     B2     B1     A2 
     B1     A1     A2     B2     A1     B1     A2     B1     B2     A2 
     A1     B1     B2     B2     B1     A1     B2     A2     A1     B1 
     A2     B1     B2     A1     B1     B2     A2     A1     A2     B1 
     A1     A1     B1     B1     B2     A2     B1     A2     B2     B1 
     A2     B1     A2     A1     A1     B1     A1     B2     A2     B1 
     A2     B1     B1     A2     B1     A1     B2     A1     B2     B2 
     A1     B2     A1     A1     B2     A1     B2     A1     B2     B2 
     A1     B2     A1     B2     B2     A1     A1     B2     B2     A1 
     B2     A1     B2     A1     B2     B2     A1     B2     A1     B2 
     A1     A1     B2     A1     B2     A1     A1     B2     B2     A1 
     B2     B2     A1     A1     A1     B2     A1     B2     A1     B2 
     A1     B2     A1     B2     A1     B2     A1     B2     A1     B2 
     A1 
 recalc freqs check OK
 Zero-point lengths:
  9.5289 10.5203 26.7814 57.9294 10.0000 10.0000 10.0000 10.0000 10.0000 10.0000
 49.9772 46.2927 26.1934 26.0639 19.6393 19.4616 18.8026 18.4948 17.9507 16.6353
 16.2835 16.2204 15.4222 13.2472 13.0658 12.9854 12.6259 12.4892 12.3793 12.1225
 11.8777 11.5779 11.4484 11.3085 11.1669 11.1551 11.0987 11.0057 10.7846 10.7133
 10.6516 10.3782 10.3506  9.9870  9.8971  9.7830  9.7382  9.6860  9.5747  9.5455
  9.4276  9.3643  9.2813  9.2324  9.1028  9.1019  9.0237  8.9451  8.8199  8.7357
  8.7213  8.6973  8.6932  8.6869  8.6082  8.4732  8.4665  8.3096  8.2890  8.2461
  8.0726  8.0699  8.0166  7.8505  7.8491  7.8460  7.8337  7.6998  7.6233  7.5598
  7.5141  7.4764  7.4476  7.3582  7.3442  7.3027  7.2488  7.2358  7.2290  7.1797
  7.1782  7.1441  7.1188  7.0651  7.0332  6.9856  6.9110  6.9093  6.8911  6.8123
  6.8052  6.7825  6.7434  6.7324  6.6736  6.6208  6.6141  6.5251  6.5029  6.4807
  6.4436  6.4382  6.4137  6.3839  6.3743  6.2708  6.2506  6.2412  6.2248  6.1738
  6.1684  6.1355  6.1127  6.1058  4.4277  4.4274  4.4230  4.4110  4.4101  4.4071
  4.4062  4.4061  4.4006  4.3895  4.3895  4.3741  4.3741  4.2177  4.2164  4.1267
  4.1261
 highest evec of mol 1
  0.0000  0.0002  0.0008
  0.0000  0.0029  0.0013
  0.0000  0.0224 -0.1535
  0.0000 -0.0023  0.0022
  0.0000 -0.0006  0.0009
  0.0000  0.0001  0.0007
  0.0000  0.0000  0.0002
  0.0000  0.0006  0.0009
  0.0000 -0.0001  0.0007
  0.0000 -0.0002  0.0008
  0.0000 -0.0029  0.0013
  0.0000 -0.0224 -0.1535
  0.0000  0.0023  0.0022
  0.0000  0.0000 -0.0029
  0.0000  0.0000  0.0107
  0.0000 -0.0849  0.0217
  0.0000 -0.0029  0.0015
  0.0000 -0.0003 -0.0004
  0.0000  0.0001  0.0001
  0.0000  0.0001  0.0001
  0.0000 -0.0000 -0.0000
  0.0000  0.0000 -0.0001
  0.0000  0.0000 -0.0000
  0.0000 -0.0001  0.0001
  0.0000 -0.0001  0.0001
  0.0000  0.0003 -0.0004
  0.0000  0.0029  0.0015
  0.0000  0.0849  0.0217
  0.0000  0.0000 -0.0004
  0.0000  0.0000 -0.0002
  0.0000  0.0011  0.0011
  0.0000 -0.0033  0.0020
  0.0000 -0.0464  0.5816
  0.0000 -0.0001 -0.0008
  0.0000  0.0001 -0.0008
  0.0000 -0.0011  0.0011
  0.0000  0.0033  0.0020
  0.0000  0.0464  0.5816
  0.0000  0.3162 -0.1667
  0.0000  0.0014 -0.0002
  0.0000  0.0002  0.0003
  0.0000  0.0002  0.0002
  0.0000  0.0000  0.0004
  0.0000 -0.0002  0.0002
  0.0000 -0.0002  0.0003
  0.0000 -0.0014 -0.0002
  0.0000 -0.3162 -0.1667
 generating redundant internal coords
         300        3600          47
 Adding extra bonds for z output only
           6           6           6           6           6           6
          16           6           6           6           6           6
           6           7           6           6           6           6
           6           6           6           6           6           6
           6           6           6           6           6           6
           1           1           1           1           1           1
           1           1           1           1           1           1
           1           1           1           1           1
 search for int coords
   1 str   2   1   1.392
   2 str   3   2   1.381
   3 str   4   3   1.417
   4 str   5   4   1.439
   5 str   6   1   1.369
   6 str   6   5   1.410
   7 str   7   5   1.715
   8 str   8   7   1.715
   9 str   9   8   1.410
  10 str  10   9   1.369
  11 str  11  10   1.392
  12 str  12  11   1.381
  13 str  13   8   1.439
  14 str  13  12   1.417
  15 str  14   4   1.440
  16 str  14  13   1.440
  17 str  15  14   1.650
  18 str  16  15   1.402
  19 str  17  16   1.433
  20 str  18  17   1.415
  21 str  19  18   1.383
  22 str  20  19   1.418
  23 str  21  20   1.421
  24 str  22  21   1.391
  25 str  23  22   1.391
  26 str  24  23   1.421
  27 str  25  24   1.418
  28 str  26  25   1.383
  29 str  27  26   1.415
  30 str  28  15   1.402
  31 str  28  27   1.433
  32 str  29  17   1.413
  33 str  29  27   1.413
  34 str  30  20   1.430
  35 str  30  24   1.430
  36 str  30  29   1.423
  37 str  31   1   1.082
  38 str  32   2   1.083
  39 str  33   3   1.050
  40 str  34   6   1.085
  41 str  35   9   1.085
  42 str  36  10   1.082
  43 str  37  11   1.083
  44 str  38  12   1.050
  45 str  39  16   1.054
  46 str  40  18   1.086
  47 str  41  19   1.085
  48 str  42  21   1.084
  49 str  43  22   1.086
  50 str  44  23   1.084
  51 str  45  25   1.085
  52 str  46  26   1.086
  53 str  47  28   1.054
 nber stretches=          53
  54 ben   1   2   3
  55 prop tor   1   2   3   4
  56 prop tor   1   2   3  33
  57 ben   1   2  32
  58 ben   1   6   5
  59 ben   1   6  34
  60 ben   2   1   6
  61 prop tor   2   1   6   5
  62 prop tor   2   1   6  34
  63 ben   2   1  31
  64 ben   2   3   4
  65 prop tor   2   3   4   5
  66 prop tor   2   3   4  14
  67 ben   2   3  33
  68 ben   3   2  32
  69 ben   3   4   5
  70 prop tor   3   4   5   6
  71 prop tor   3   4   5   7
  72 ben   3   4  14
  73 prop tor   3   4  14  13
  74 prop tor   3   4  14  15
  75 ben   4   3  33
  76 ben   4   5   6
  77 prop tor   4   5   6   1
  78 prop tor   4   5   6  34
  79 ben   4   5   7
  80 prop tor   4   5   7   8
  81 ben   4  14  13
  82 ben   4  14  15
  83 prop tor   4  14  15  16
  84 prop tor   4  14  15  28
  85 ben   5   4  14
  86 prop tor   5   4  14  13
  87 prop tor   5   4  14  15
  88 ben   5   6  34
  89 ben   5   7   8
  90 prop tor   5   7   8   9
  91 prop tor   5   7   8  13
  92 prop tor   6   1   2   3
  93 prop tor   6   1   2  32
  94 ben   6   1  31
  95 ben   6   5   7
  96 prop tor   6   5   7   8
  97 prop tor   7   5   6   1
  98 prop tor   7   5   6  34
  99 ben   7   8   9
 100 prop tor   7   8   9  10
 101 prop tor   7   8   9  35
 102 ben   7   8  13
 103 prop tor   7   8  13  12
 104 prop tor   7   8  13  14
 105 ben   8   9  10
 106 prop tor   8   9  10  11
 107 prop tor   8   9  10  36
 108 ben   8   9  35
 109 ben   8  13  12
 110 ben   8  13  14
 111 prop tor   8  13  14   4
 112 prop tor   8  13  14  15
 113 ben   9   8  13
 114 prop tor   9   8  13  12
 115 prop tor   9   8  13  14
 116 ben   9  10  11
 117 prop tor   9  10  11  12
 118 prop tor   9  10  11  37
 119 ben   9  10  36
 120 ben  10   9  35
 121 ben  10  11  12
 122 prop tor  10  11  12  13
 123 prop tor  10  11  12  38
 124 ben  10  11  37
 125 ben  11  10  36
 126 ben  11  12  13
 127 prop tor  11  12  13   8
 128 prop tor  11  12  13  14
 129 ben  11  12  38
 130 ben  12  11  37
 131 ben  12  13  14
 132 prop tor  12  13  14   4
 133 prop tor  12  13  14  15
 134 prop tor  13   8   9  10
 135 prop tor  13   8   9  35
 136 ben  13  12  38
 137 ben  13  14  15
 138 prop tor  13  14  15  16
 139 prop tor  13  14  15  28
 140 prop tor  14   4   5   6
 141 prop tor  14   4   5   7
 142 ben  14  15  16
 143 prop tor  14  15  16  17
 144 prop tor  14  15  16  39
 145 ben  14  15  28
 146 prop tor  14  15  28  27
 147 prop tor  14  15  28  47
 148 ben  15  16  17
 149 prop tor  15  16  17  18
 150 prop tor  15  16  17  29
 151 ben  15  16  39
 152 ben  15  28  27
 153 ben  15  28  47
 154 ben  16  15  28
 155 prop tor  16  15  28  27
 156 prop tor  16  15  28  47
 157 ben  16  17  18
 158 prop tor  16  17  18  19
 159 prop tor  16  17  18  40
 160 ben  16  17  29
 161 prop tor  16  17  29  27
 162 prop tor  16  17  29  30
 163 ben  17  16  39
 164 ben  17  18  19
 165 prop tor  17  18  19  20
 166 prop tor  17  18  19  41
 167 ben  17  18  40
 168 ben  17  29  27
 169 ben  17  29  30
 170 prop tor  17  29  30  20
 171 prop tor  17  29  30  24
 172 ben  18  17  29
 173 prop tor  18  17  29  27
 174 prop tor  18  17  29  30
 175 ben  18  19  20
 176 prop tor  18  19  20  21
 177 prop tor  18  19  20  30
 178 ben  18  19  41
 179 ben  19  18  40
 180 ben  19  20  21
 181 prop tor  19  20  21  22
 182 prop tor  19  20  21  42
 183 ben  19  20  30
 184 prop tor  19  20  30  24
 185 prop tor  19  20  30  29
 186 ben  20  19  41
 187 ben  20  21  22
 188 prop tor  20  21  22  23
 189 prop tor  20  21  22  43
 190 ben  20  21  42
 191 ben  20  30  24
 192 ben  20  30  29
 193 ben  21  20  30
 194 prop tor  21  20  30  24
 195 prop tor  21  20  30  29
 196 ben  21  22  23
 197 prop tor  21  22  23  24
 198 prop tor  21  22  23  44
 199 ben  21  22  43
 200 ben  22  21  42
 201 ben  22  23  24
 202 prop tor  22  23  24  25
 203 prop tor  22  23  24  30
 204 ben  22  23  44
 205 ben  23  22  43
 206 ben  23  24  25
 207 prop tor  23  24  25  26
 208 prop tor  23  24  25  45
 209 ben  23  24  30
 210 prop tor  23  24  30  20
 211 prop tor  23  24  30  29
 212 ben  24  23  44
 213 ben  24  25  26
 214 prop tor  24  25  26  27
 215 prop tor  24  25  26  46
 216 ben  24  25  45
 217 ben  24  30  29
 218 ben  25  24  30
 219 prop tor  25  24  30  20
 220 prop tor  25  24  30  29
 221 ben  25  26  27
 222 prop tor  25  26  27  28
 223 prop tor  25  26  27  29
 224 ben  25  26  46
 225 ben  26  25  45
 226 ben  26  27  28
 227 prop tor  26  27  28  15
 228 prop tor  26  27  28  47
 229 ben  26  27  29
 230 prop tor  26  27  29  17
 231 prop tor  26  27  29  30
 232 ben  27  26  46
 233 ben  27  28  47
 234 ben  27  29  30
 235 prop tor  27  29  30  20
 236 prop tor  27  29  30  24
 237 prop tor  28  15  16  17
 238 prop tor  28  15  16  39
 239 ben  28  27  29
 240 prop tor  28  27  29  17
 241 prop tor  28  27  29  30
 242 prop tor  29  17  18  19
 243 prop tor  29  17  18  40
 244 prop tor  29  27  28  15
 245 prop tor  29  27  28  47
 246 prop tor  30  20  21  22
 247 prop tor  30  20  21  42
 248 prop tor  30  24  25  26
 249 prop tor  30  24  25  45
 250 prop tor  31   1   2   3
 251 prop tor  31   1   2  32
 252 prop tor  31   1   6   5
 253 prop tor  31   1   6  34
 254 prop tor  32   2   3   4
 255 prop tor  32   2   3  33
 256 prop tor  33   3   4   5
 257 prop tor  33   3   4  14
 258 prop tor  35   9  10  11
 259 prop tor  35   9  10  36
 260 prop tor  36  10  11  12
 261 prop tor  36  10  11  37
 262 prop tor  37  11  12  13
 263 prop tor  37  11  12  38
 264 prop tor  38  12  13   8
 265 prop tor  38  12  13  14
 266 prop tor  39  16  17  18
 267 prop tor  39  16  17  29
 268 prop tor  40  18  19  20
 269 prop tor  40  18  19  41
 270 prop tor  41  19  20  21
 271 prop tor  41  19  20  30
 272 prop tor  42  21  22  23
 273 prop tor  42  21  22  43
 274 prop tor  43  22  23  24
 275 prop tor  43  22  23  44
 276 prop tor  44  23  24  25
 277 prop tor  44  23  24  30
 278 prop tor  45  25  26  27
 279 prop tor  45  25  26  46
 280 prop tor  46  26  27  28
 281 prop tor  46  26  27  29
 nber bend=              88
 nber lin bend=           0
 nber prop tor=         140
 nber impr tor=           0
 nber tot redund int=         281
 Reading file: 
 ./Benzene_Conj_0_C0S0.log                                                      
                                          
  Entering Gaussian System, Link 0=g16                                          
  
 Gaussian format, type: g94, g98, g03= F F F
  File lengths (MBytes):  RWF=     14 Int=      0 D2E=      0 Chk=      3 Sc
