 Enter ifcurve (0=recti, 1=orth curvi, 2=apprx curvi, -1 = skip
 And atom ordering flag, 0= never changes, 1= use the first order thenceforth,
  2= deduce it (does read on fail), 3= always read it
 Reading file: 
 ./TT_0_C0S1.log                                                                
                                          
  Entering Gaussian System, Link 0=g16                                          
  
 Gaussian format, type: g94, g98, g03= F F F
  #P Geom=AllCheck Guess=TCheck SCRF=Check GenChk RB3LYP TD(FC,Read)/6-3    
 energy type= TD      
 Original G94 input coords:
  6 -2.308048 -0.012648 -0.000776
  6 -1.413012 -1.116603 -0.001425
  6 -0.096281 -0.706082 -0.001021
 16  1.504711 -1.532879 -0.001417
  6  2.302610  0.019490 -0.000304
  6  1.407570  1.123439  0.000345
  6  0.090842  0.712909 -0.000056
 16 -1.510142  1.539724  0.000340
  1 -3.386152 -0.053596 -0.000914
  1 -1.760755 -2.140205 -0.002145
  1  3.380713  0.060450 -0.000169
  1  1.755314  2.147041  0.001063
 nber atoms=          12
  Total Energy, E(TD-HF/TD-DFT) =  -1027.34166907                               
  
          32          49 "  -1027.34166907"
After scan for Atom:   Atom  AN      X      Y      Z        X      Y      Z        X      Y      Z   
After scan for Atom:   Atom  AN      X      Y      Z        X      Y      Z        X      Y      Z   
After scan for Atom:   Atom  AN      X      Y      Z        X      Y      Z        X      Y      Z   
After scan for Atom:   Atom  AN      X      Y      Z        X      Y      Z        X      Y      Z   
After scan for Atom:   Atom  AN      X      Y      Z        X      Y      Z        X      Y      Z   
After scan for Atom:   Atom  AN      X      Y      Z        X      Y      Z        X      Y      Z   
After scan for Atom:   Atom  AN      X      Y      Z        X      Y      Z        X      Y      Z   
After scan for Atom:   Atom  AN      X      Y      Z        X      Y      Z        X      Y      Z   
After scan for Atom:   Atom  AN      X      Y      Z        X      Y      Z        X      Y      Z   
After scan for Atom:   Atom  AN      X      Y      Z        X      Y      Z        X      Y      Z   
 g94    frequencies=
     0.0    0.0    0.0    0.0    0.0    0.0  -72.9  -72.0   97.7  329.1
   351.4  355.4  404.0  467.6  551.6  558.3  577.0  690.4  745.0  786.9
   793.3  826.7  866.7 1028.8 1050.6 1113.8 1230.5 1298.9 1299.3 1328.0
  1454.0 1550.4 3213.9 3214.1 3244.0 3244.8
 g94    symmetries=
                                                 A      A      A      A
       A      A      A      A      A      A      A      A      A      A
       A      A      A      A      A      A      A      A      A      A
       A      A      A      A      A      A
 atomic masses:
 12.0000 12.0000 12.0000 31.9721 12.0000 12.0000 12.0000 31.9721  1.0078  1.0078
  1.0078  1.0078
 looking for force constants in 
 ./TT_0_C0S1.fchk                                                               
  
 Cartesian Force Constants                  R   N=         666                  
  
 n3=          36         666
 g94-fc frequencies=
   -72.9  -72.1   -2.6   -0.0   -0.0    0.0    3.8    8.4   97.7  329.1
   351.4  355.4  404.0  467.6  551.6  558.3  577.0  690.4  745.0  787.0
   793.3  826.8  866.7 1028.8 1050.6 1113.9 1230.5 1298.9 1299.3 1328.0
  1454.0 1550.4 3213.9 3214.1 3244.0 3244.9
 at 99999: n3=          36
 symm operator            1 :  F  nop=           0
 symm operator            2 :  F  nop=           0
 symm operator            3 :  F  nop=           0
 symm operator            4 :  F  nop=           0
 symm operator            5 :  F  nop=           0
 symm operator            6 :  F  nop=           0
 symm operator            7 :  F  nop=           0
 The point group of the molecule is  C1
 Symmetry rotation matrix:
   1.00000   0.00000   0.00000
   0.00000   1.00000   0.00000
   0.00000   0.00000   1.00000

 Projecting out zero-frequency components
 generating redundant internal coords
         300        3600          12
 search for int coords
   1 str   2   1   1.421
   2 str   3   2   1.379
   3 str   4   3   1.802
   4 str   5   4   1.745
   5 str   6   5   1.421
   6 str   7   3   1.431
   7 str   7   6   1.379
   8 str   8   1   1.745
   9 str   8   7   1.802
  10 str   9   1   1.079
  11 str  10   2   1.081
  12 str  11   5   1.079
  13 str  12   6   1.081
 nber stretches=          13
  14 ben   1   2   3
  15 prop tor   1   2   3   4
  16 prop tor   1   2   3   7
  17 ben   1   2  10
  18 ben   1   8   7
  19 ben   2   1   8
  20 prop tor   2   1   8   7
  21 ben   2   1   9
  22 ben   2   3   4
  23 prop tor   2   3   4   5
  24 ben   2   3   7
  25 prop tor   2   3   7   6
  26 prop tor   2   3   7   8
  27 ben   3   2  10
  28 ben   3   4   5
  29 prop tor   3   4   5   6
  30 prop tor   3   4   5  11
  31 ben   3   7   6
  32 ben   3   7   8
  33 prop tor   3   7   8   1
  34 ben   4   3   7
  35 prop tor   4   3   7   6
  36 prop tor   4   3   7   8
  37 ben   4   5   6
  38 prop tor   4   5   6   7
  39 prop tor   4   5   6  12
  40 ben   4   5  11
  41 ben   5   6   7
  42 prop tor   5   6   7   3
  43 prop tor   5   6   7   8
  44 ben   5   6  12
  45 ben   6   5  11
  46 ben   6   7   8
  47 prop tor   6   7   8   1
  48 prop tor   7   3   4   5
  49 ben   7   6  12
  50 prop tor   8   1   2   3
  51 prop tor   8   1   2  10
  52 ben   8   1   9
  53 prop tor   9   1   2   3
  54 prop tor   9   1   2  10
  55 prop tor   9   1   8   7
  56 prop tor  10   2   3   4
  57 prop tor  10   2   3   7
  58 prop tor  11   5   6   7
  59 prop tor  11   5   6  12
  60 prop tor  12   6   7   3
  61 prop tor  12   6   7   8
 nber bend=              20
 nber lin bend=           0
 nber prop tor=          28
 nber impr tor=           0
 nber tot redund int=          61
 Eigenvalues of G in red int coords
    Gval -0.00000000 -0.00000000 -0.00000000 -0.00000000 -0.00000000 -0.00000000 -0.00000000 -0.00000000
    Gval -0.00000000 -0.00000000 -0.00000000 -0.00000000 -0.00000000 -0.00000000 -0.00000000 -0.00000000
    Gval -0.00000000  0.00000000  0.00000000  0.00000000  0.00000000  0.00000000  0.00000000  0.00000000
    Gval  0.00000000  0.00000000  0.00000000  0.00000000  0.00000000  0.00000000  0.00000000  0.00001793
    Gval  0.00002682  0.00003466  0.00004575  0.00005182  0.00007872  0.00009639  0.00010714  0.00011028
    Gval  0.00014944  0.00015886  0.00022373  0.00029103  0.00029769  0.00035867  0.00038276  0.00059643
    Gval  0.00059659  0.00062051  0.00062522  0.00062888  0.00108351  0.00108509  0.00117632  0.00117897
    Gval  0.00126057  0.00202851  0.00214952  0.00390308  0.00391490
  1.792613242490624E-005  1.792613242490624E-005
  2.682440302848550E-005  1.792613242490624E-005
  3.466306157177878E-005  1.792613242490624E-005
  4.574933415940808E-005  1.792613242490624E-005
  5.182071436291214E-005  1.792613242490624E-005
  7.872019350637155E-005  1.792613242490624E-005
  9.639164453393625E-005  1.792613242490624E-005
  1.071429557767487E-004  1.792613242490624E-005
  1.102808248730682E-004  1.792613242490624E-005
  1.494376040254304E-004  1.792613242490624E-005
  1.588639405396368E-004  1.792613242490624E-005
  2.237348288475203E-004  1.792613242490624E-005
  2.910302088337820E-004  1.792613242490624E-005
  2.976944159006356E-004  1.792613242490624E-005
  3.586717848634724E-004  1.792613242490624E-005
  3.827572738052292E-004  1.792613242490624E-005
  5.964279550108691E-004  1.792613242490624E-005
  5.965893160482278E-004  1.792613242490624E-005
  6.205077371346700E-004  1.792613242490624E-005
  6.252157509346603E-004  1.792613242490624E-005
  6.288803853961107E-004  1.792613242490624E-005
  1.083512779091132E-003  1.792613242490624E-005
  1.085089736713835E-003  1.792613242490624E-005
  1.176321788737784E-003  1.792613242490624E-005
  1.178971126540804E-003  1.792613242490624E-005
  1.260565397236318E-003  1.792613242490624E-005
  2.028510652472572E-003  1.792613242490624E-005
  2.149516711629445E-003  1.792613242490624E-005
  3.903080794796710E-003  1.792613242490624E-005
  3.914902203342365E-003  1.792613242490624E-005
 cut=1d-8, nber non-redundant internal coords=          30
 Check on Eigenvals of non-red overlap matrix:
  0.00001793  0.00002682  0.00003466  0.00004575  0.00005182  0.00007872  0.00009639  0.00010714
  0.00011028  0.00014944  0.00015886  0.00022373  0.00029103  0.00029769  0.00035867  0.00038276
  0.00059643  0.00059659  0.00062051  0.00062522  0.00062888  0.00108351  0.00108509  0.00117632
  0.00117897  0.00126057  0.00202851  0.00214952  0.00390308  0.00391490
 Checking for correct frequencies
 recalc frequencies=
   -72.9  -72.1   -0.0   -0.0   -0.0    0.0    0.0    0.0   97.7  329.1
   351.4  355.4  404.0  467.6  551.6  558.3  577.0  690.4  745.0  787.0
   793.3  826.8  866.7 1028.8 1050.6 1113.9 1230.5 1298.9 1299.3 1328.0
  1454.0 1550.4 3213.9 3214.1 3244.0 3244.9
 recalc symmetries=
                                                                       
                                                                       
                                                                       
                                           
 recalc freqs check OK
 Zero-point lengths:
 29.0264 29.2061 10.0000 10.0000 10.0000 10.0000 10.0000 10.0000 25.0753 13.6652
 13.2255 13.1506 12.3346 11.4644 10.5552 10.4923 10.3209  9.4353  9.0825  8.8373
  8.8020  8.6220  8.4210  7.7289  7.6486  7.4281  7.0673  6.8787  6.8776  6.8029
  6.5014  6.2961  4.3730  4.3728  4.3526  4.3521
 highest evec of mol 1
  0.2002  0.0024  0.0000
  0.0117  0.0465  0.0000
 -0.0066 -0.0022 -0.0000
 -0.0007 -0.0009 -0.0000
  0.2003  0.0024  0.0000
  0.0117  0.0465  0.0000
 -0.0066 -0.0022 -0.0000
 -0.0007 -0.0009 -0.0000
 -0.6612 -0.0226 -0.0001
 -0.0434 -0.1335 -0.0001
 -0.6614 -0.0226 -0.0001
 -0.0434 -0.1336 -0.0001
 generating redundant internal coords
         300        3600          12
 Adding extra bonds for z output only
           6           6           6          16           6           6
           6          16           1           1           1           1
 search for int coords
   1 str   2   1   1.421
   2 str   3   2   1.379
   3 str   4   3   1.802
   4 str   5   4   1.745
   5 str   6   5   1.421
   6 str   7   3   1.431
   7 str   7   6   1.379
   8 str   8   1   1.745
   9 str   8   7   1.802
  10 str   9   1   1.079
  11 str  10   2   1.081
  12 str  11   5   1.079
  13 str  12   6   1.081
 nber stretches=          13
  14 ben   1   2   3
  15 prop tor   1   2   3   4
  16 prop tor   1   2   3   7
  17 ben   1   2  10
  18 ben   1   8   7
  19 ben   2   1   8
  20 prop tor   2   1   8   7
  21 ben   2   1   9
  22 ben   2   3   4
  23 prop tor   2   3   4   5
  24 ben   2   3   7
  25 prop tor   2   3   7   6
  26 prop tor   2   3   7   8
  27 ben   3   2  10
  28 ben   3   4   5
  29 prop tor   3   4   5   6
  30 prop tor   3   4   5  11
  31 ben   3   7   6
  32 ben   3   7   8
  33 prop tor   3   7   8   1
  34 ben   4   3   7
  35 prop tor   4   3   7   6
  36 prop tor   4   3   7   8
  37 ben   4   5   6
  38 prop tor   4   5   6   7
  39 prop tor   4   5   6  12
  40 ben   4   5  11
  41 ben   5   6   7
  42 prop tor   5   6   7   3
  43 prop tor   5   6   7   8
  44 ben   5   6  12
  45 ben   6   5  11
  46 ben   6   7   8
  47 prop tor   6   7   8   1
  48 prop tor   7   3   4   5
  49 ben   7   6  12
  50 prop tor   8   1   2   3
  51 prop tor   8   1   2  10
  52 ben   8   1   9
  53 prop tor   9   1   2   3
  54 prop tor   9   1   2  10
  55 prop tor   9   1   8   7
  56 prop tor  10   2   3   4
  57 prop tor  10   2   3   7
  58 prop tor  11   5   6   7
  59 prop tor  11   5   6  12
  60 prop tor  12   6   7   3
  61 prop tor  12   6   7   8
 nber bend=              20
 nber lin bend=           0
 nber prop tor=          28
 nber impr tor=           0
 nber tot redund int=          61
 Reading file: 
 ./TT_0_C0S0.log                                                                
                                          
  Entering Gaussian System, Link 0=g16                                          
  
 Gaussian format, type: g94, g98, g03= F F F
  #P Geom=AllCheck Guess=TCheck SCRF=Check GenChk RB3LYP/6-311G(d,p) Fre    
 energy type= B3LYP   
 Original G94 input coords:
  6 -2.294379 -0.043997 -0.000797
  6 -1.445641 -1.110761 -0.001425
  6 -0.085649 -0.685890 -0.001007
 16  1.460598 -1.490273 -0.001392
  6  2.288942  0.050839 -0.000284
  6  1.440205  1.117600  0.000346
  6  0.080208  0.692743 -0.000072
 16 -1.466049  1.497103  0.000313
  1 -3.373458 -0.056942 -0.000912
  1 -1.776858 -2.139791 -0.002145
  1  3.368017  0.063777 -0.000170
  1  1.771433  2.146633  0.001066
 nber atoms=          12
  SCF Done:  E(RB3LYP) =  -1027.50831478     A.U. after    1 cycles             
  
          23          40 "  -1027.50831478"
After scan for Atom:   Atom  AN      X      Y      Z        X      Y      Z        X      Y      Z   
After scan for Atom:   Atom  AN      X      Y      Z        X      Y      Z        X      Y      Z   
After scan for Atom:   Atom  AN      X      Y      Z        X      Y      Z        X      Y      Z   
After scan for Atom:   Atom  AN      X      Y      Z        X      Y      Z        X      Y      Z   
After scan for Atom:   Atom  AN      X      Y      Z        X      Y      Z        X      Y      Z   
After scan for Atom:   Atom  AN      X      Y      Z        X      Y      Z        X      Y      Z   
After scan for Atom:   Atom  AN      X      Y      Z        X      Y      Z        X      Y      Z   
After scan for Atom:   Atom  AN      X      Y      Z        X      Y      Z        X      Y      Z   
After scan for Atom:   Atom  AN      X      Y      Z        X      Y      Z        X      Y      Z   
After scan for Atom:   Atom  AN      X      Y      Z        X      Y      Z        X      Y      Z   
 g94    frequencies=
     0.0    0.0    0.0    0.0    0.0    0.0  192.3  213.0  351.5  446.8
   453.5  511.1  552.3  622.0  631.2  668.0  734.1  755.1  779.2  858.9
   875.5  879.3  929.5 1100.4 1121.7 1197.0 1213.5 1360.6 1379.4 1455.5
  1496.1 1536.9 3212.1 3212.4 3243.5 3243.7
 g94    symmetries=
                                                 A      A      A      A
       A      A      A      A      A      A      A      A      A      A
       A      A      A      A      A      A      A      A      A      A
       A      A      A      A      A      A
 atomic masses:
 12.0000 12.0000 12.0000 31.9721 12.0000 12.0000 12.0000 31.9721  1.0078  1.0078
  1.0078  1.0078
 looking for force constants in 
 ./TT_0_C0S0.fchk                                                               
  
 Cartesian Force Constants                  R   N=         666                  
  
 n3=          36         666
 g94-fc frequencies=
    -0.5   -0.0   -0.0   -0.0    5.7   11.4  192.3  213.0  351.5  446.8
   453.5  511.1  552.3  622.0  631.2  668.0  734.2  755.1  779.2  858.9
   875.6  879.3  929.6 1100.4 1121.7 1197.1 1213.5 1360.7 1379.4 1455.5
  1496.2 1537.0 3212.2 3212.4 3243.6 3243.7
 at 99999: n3=          36
 symm operator            1 :  F  nop=           0
 symm operator            2 :  F  nop=           0
 symm operator            3 :  F  nop=           0
 symm operator            4 :  F  nop=           0
 symm operator            5 :  F  nop=           0
 symm operator            6 :  F  nop=           0
 symm operator            7 :  F  nop=           0
 The point group of the molecule is  C1
 Symmetry rotation matrix:
   1.00000   0.00000   0.00000
   0.00000   1.00000   0.00000
   0.00000   0.00000   1.00000

 Projecting out zero-frequency components
 generating redundant internal coords
         300        3600          12
 search for int coords
   1 str   2   1   1.363
   2 str   3   2   1.425
   3 str   4   3   1.743
   4 str   5   4   1.750
   5 str   6   5   1.363
   6 str   7   3   1.389
   7 str   7   6   1.425
   8 str   8   1   1.750
   9 str   8   7   1.743
  10 str   9   1   1.079
  11 str  10   2   1.081
  12 str  11   5   1.079
  13 str  12   6   1.081
 nber stretches=          13
  14 ben   1   2   3
  15 prop tor   1   2   3   4
  16 prop tor   1   2   3   7
  17 ben   1   2  10
  18 ben   1   8   7
  19 ben   2   1   8
  20 prop tor   2   1   8   7
  21 ben   2   1   9
  22 ben   2   3   4
  23 prop tor   2   3   4   5
  24 ben   2   3   7
  25 prop tor   2   3   7   6
  26 prop tor   2   3   7   8
  27 ben   3   2  10
  28 ben   3   4   5
  29 prop tor   3   4   5   6
  30 prop tor   3   4   5  11
  31 ben   3   7   6
  32 ben   3   7   8
  33 prop tor   3   7   8   1
  34 ben   4   3   7
  35 prop tor   4   3   7   6
  36 prop tor   4   3   7   8
  37 ben   4   5   6
  38 prop tor   4   5   6   7
  39 prop tor   4   5   6  12
  40 ben   4   5  11
  41 ben   5   6   7
  42 prop tor   5   6   7   3
  43 prop tor   5   6   7   8
  44 ben   5   6  12
  45 ben   6   5  11
  46 ben   6   7   8
  47 prop tor   6   7   8   1
  48 prop tor   7   3   4   5
  49 ben   7   6  12
  50 prop tor   8   1   2   3
  51 prop tor   8   1   2  10
  52 ben   8   1   9
  53 prop tor   9   1   2   3
  54 prop tor   9   1   2  10
  55 prop tor   9   1   8   7
  56 prop tor  10   2   3   4
  57 prop tor  10   2   3   7
  58 prop tor  11   5   6   7
  59 prop tor  11   5   6  12
  60 prop tor  12   6   7   3
  61 prop tor  12   6   7   8
 nber bend=              20
 nber lin bend=           0
 nber prop tor=          28
 nber impr tor=           0
 nber tot redund int=          61
 Eigenvalues of G in red int coords
    Gval -0.00000000 -0.00000000 -0.00000000 -0.00000000 -0.00000000 -0.00000000 -0.00000000 -0.00000000
    Gval -0.00000000 -0.00000000 -0.00000000 -0.00000000 -0.00000000 -0.00000000 -0.00000000 -0.00000000
    Gval  0.00000000  0.00000000  0.00000000  0.00000000  0.00000000  0.00000000  0.00000000  0.00000000
    Gval  0.00000000  0.00000000  0.00000000  0.00000000  0.00000000  0.00000000  0.00000000  0.00001787
    Gval  0.00002709  0.00003478  0.00004582  0.00005227  0.00007851  0.00009815  0.00010877  0.00011051
    Gval  0.00015442  0.00016115  0.00023437  0.00028987  0.00030763  0.00037153  0.00038416  0.00059652
    Gval  0.00059669  0.00061195  0.00062065  0.00062522  0.00108038  0.00108189  0.00118565  0.00118784
    Gval  0.00127454  0.00202507  0.00214620  0.00397142  0.00397944
  1.786553222800266E-005  1.786553222800266E-005
  2.709296600979178E-005  1.786553222800266E-005
  3.478125046904640E-005  1.786553222800266E-005
  4.582165377170035E-005  1.786553222800266E-005
  5.226841261500249E-005  1.786553222800266E-005
  7.851065214273011E-005  1.786553222800266E-005
  9.815456647275337E-005  1.786553222800266E-005
  1.087730519892042E-004  1.786553222800266E-005
  1.105079908045699E-004  1.786553222800266E-005
  1.544224721447600E-004  1.786553222800266E-005
  1.611486198185825E-004  1.786553222800266E-005
  2.343692582852103E-004  1.786553222800266E-005
  2.898720230074193E-004  1.786553222800266E-005
  3.076341521846931E-004  1.786553222800266E-005
  3.715330046069805E-004  1.786553222800266E-005
  3.841595276831605E-004  1.786553222800266E-005
  5.965205068200745E-004  1.786553222800266E-005
  5.966897589033175E-004  1.786553222800266E-005
  6.119475477924021E-004  1.786553222800266E-005
  6.206508484543980E-004  1.786553222800266E-005
  6.252214792128761E-004  1.786553222800266E-005
  1.080378844485440E-003  1.786553222800266E-005
  1.081891769872678E-003  1.786553222800266E-005
  1.185651164078387E-003  1.786553222800266E-005
  1.187836451116534E-003  1.786553222800266E-005
  1.274544285642770E-003  1.786553222800266E-005
  2.025067584122280E-003  1.786553222800266E-005
  2.146200963706737E-003  1.786553222800266E-005
  3.971419054365585E-003  1.786553222800266E-005
  3.979437539828050E-003  1.786553222800266E-005
 cut=1d-8, nber non-redundant internal coords=          30
 Check on Eigenvals of non-red overlap matrix:
  0.00001787  0.00002709  0.00003478  0.00004582  0.00005227  0.00007851  0.00009815  0.00010877
  0.00011051  0.00015442  0.00016115  0.00023437  0.00028987  0.00030763  0.00037153  0.00038416
  0.00059652  0.00059669  0.00061195  0.00062065  0.00062522  0.00108038  0.00108189  0.00118565
  0.00118784  0.00127454  0.00202507  0.00214620  0.00397142  0.00397944
 Checking for correct frequencies
 recalc frequencies=
    -0.0   -0.0   -0.0    0.0    0.0    0.0  192.3  213.0  351.5  446.8
   453.5  511.1  552.3  622.0  631.2  668.0  734.2  755.1  779.2  858.9
   875.6  879.3  929.6 1100.4 1121.7 1197.1 1213.5 1360.7 1379.4 1455.5
  1496.2 1537.0 3212.2 3212.4 3243.6 3243.7
 recalc symmetries=
                                                                       
                                                                       
                                                                       
                                           
 recalc freqs check OK
 Zero-point lengths:
 10.0000 10.0000 10.0000 10.0000 10.0000 10.0000 17.8795 16.9865 13.2229 11.7281
 11.6414 10.9656 10.5492  9.9402  9.8675  9.5920  9.1495  9.0217  8.8812  8.4589
  8.3783  8.3604  8.1313  7.4734  7.4021  7.1653  7.1166  6.7208  6.6750  6.4981
  6.4092  6.3236  4.3742  4.3740  4.3530  4.3528
 highest evec of mol 2
 -0.1867  0.0078 -0.0000
 -0.0112 -0.0659 -0.0000
  0.0073  0.0020  0.0000
  0.0002  0.0017  0.0000
 -0.2120  0.0088 -0.0000
 -0.0125 -0.0742 -0.0001
  0.0076  0.0022  0.0000
  0.0001  0.0015  0.0000
  0.6014  0.0045  0.0001
  0.0564  0.1808  0.0001
  0.6831  0.0052  0.0001
  0.0635  0.2036  0.0001
 Enter nber and list of atoms to keep of mol #2
 keep list:          12           1           2           3           4
           5           6           7           8           9          10
          11          12
 reordering atoms
           1  -2.05622164322857     
           2 -0.835757870685214     
           3  0.216604377209519     
           4   1.95797786173910     
           5   2.05622629856002     
           6  0.835764701348437     
           7 -0.216608001905514     
           8  -1.95798081230139     
           9  -3.02841126124600     
          10 -0.700328503465411     
          11   3.02841525531293     
          12  0.700344030663968     
           1           1
           2           2
           3           3
           4           4
           5           5
           6           6
           7           7
           8           8
           9           9
          10          10
          11          11
          12          12
 initial cartes coords mol 1
   6  -0.00000   1.05147  -2.05164
   6  -0.00000   1.63474  -0.75565
   6   0.00000   0.67574   0.23563
  16   0.00000   0.69390   2.03742
   6  -0.00000  -1.05147   2.05164
   6  -0.00000  -1.63474   0.75564
   6   0.00000  -0.67573  -0.23563
  16   0.00000  -0.69390  -2.03741
   1  -0.00001   1.57305  -2.99606
   1  -0.00000   2.70535  -0.60572
   1   0.00000  -1.57306   2.99605
   1  -0.00000  -2.70535   0.60571
 initial cartes coords mol 2
   6  -0.00000   1.01286  -2.05622
   6  -0.00000   1.62016  -0.83576
   6   0.00000   0.65963   0.21660
  16   0.00000   0.73399   1.95798
   6  -0.00000  -1.01287   2.05623
   6   0.00000  -1.62017   0.83576
   6  -0.00000  -0.65964  -0.21661
  16   0.00000  -0.73398  -1.95798
   1  -0.00000   1.48129  -3.02841
   1  -0.00000   2.69267  -0.70033
   1  -0.00000  -1.48129   3.02842
   1   0.00000  -2.69268   0.70034
 loop 1 0
 mod cartes coords mol 2
   6  -0.00000   1.01286  -2.05622
   6  -0.00000   1.62016  -0.83576
   6   0.00000   0.65963   0.21660
  16   0.00000   0.73399   1.95798
   6  -0.00000  -1.01287   2.05623
   6   0.00000  -1.62017   0.83576
   6  -0.00000  -0.65964  -0.21661
  16   0.00000  -0.73398  -1.95798
   1  -0.00000   1.48129  -3.02841
   1  -0.00000   2.69267  -0.70033
   1  -0.00000  -1.48129   3.02842
   1   0.00000  -2.69268   0.70034
 read in order, maxerr=  0.10 for atom  11
 final axis swaps:           1           1           1
 final xyz swap pattern=           1
 reorder list:
   1   2   3   4   5   6   7   8   9  10  11  12
 axis signs=           1           1           1
  6    -0.000000  1.012863 -2.056222    -0.000001  1.051466 -2.051639
  6    -0.000000  1.620161 -0.835758    -0.000000  1.634741 -0.755647
  6     0.000001  0.659626  0.216604     0.000001  0.675741  0.235629
 16     0.000000  0.733992  1.957978     0.000000  0.693895  2.037416
  6    -0.000001 -1.012870  2.056226    -0.000001 -1.051467  2.051636
  6     0.000001 -1.620165  0.835765    -0.000001 -1.634735  0.755643
  6    -0.000000 -0.659641 -0.216608     0.000000 -0.675728 -0.235626
 16     0.000000 -0.733982 -1.957981     0.000001 -0.693902 -2.037415
  1    -0.000001  1.481293 -3.028411    -0.000006  1.573051 -2.996062
  1    -0.000001  2.692666 -0.700329    -0.000003  2.705352 -0.605717
  1    -0.000002 -1.481292  3.028415     0.000001 -1.573063  2.996052
  1     0.000002 -2.692678  0.700344    -0.000001 -2.705347  0.605714
 generating redundant internal coords
         300        3600          12
 Adding extra bonds for z output only
           6           6           6          16           6           6
           6          16           1           1           1           1
 search for int coords
   1 str   2   1   1.363
   2 str   3   2   1.425
   3 str   4   3   1.743
   4 str   5   4   1.750
   5 str   6   5   1.363
   6 str   7   3   1.389
   7 str   7   6   1.425
   8 str   8   1   1.750
   9 str   8   7   1.743
  10 str   9   1   1.079
  11 str  10   2   1.081
  12 str  11   5   1.079
  13 str  12   6   1.081
 nber stretches=          13
  14 ben   1   2   3
  15 prop tor   1   2   3   4
  16 prop tor   1   2   3   7
  17 ben   1   2  10
  18 ben   1   8   7
  19 ben   2   1   8
  20 prop tor   2   1   8   7
  21 ben   2   1   9
  22 ben   2   3   4
  23 prop tor   2   3   4   5
  24 ben   2   3   7
  25 prop tor   2   3   7   6
  26 prop tor   2   3   7   8
  27 ben   3   2  10
  28 ben   3   4   5
  29 prop tor   3   4   5   6
  30 prop tor   3   4   5  11
  31 ben   3   7   6
  32 ben   3   7   8
  33 prop tor   3   7   8   1
  34 ben   4   3   7
  35 prop tor   4   3   7   6
  36 prop tor   4   3   7   8
  37 ben   4   5   6
  38 prop tor   4   5   6   7
  39 prop tor   4   5   6  12
  40 ben   4   5  11
  41 ben   5   6   7
  42 prop tor   5   6   7   3
  43 prop tor   5   6   7   8
  44 ben   5   6  12
  45 ben   6   5  11
  46 ben   6   7   8
  47 prop tor   6   7   8   1
  48 prop tor   7   3   4   5
  49 ben   7   6  12
  50 prop tor   8   1   2   3
  51 prop tor   8   1   2  10
  52 ben   8   1   9
  53 prop tor   9   1   2   3
  54 prop tor   9   1   2  10
  55 prop tor   9   1   8   7
  56 prop tor  10   2   3   4
  57 prop tor  10   2   3   7
  58 prop tor  11   5   6   7
  59 prop tor  11   5   6  12
  60 prop tor  12   6   7   3
  61 prop tor  12   6   7   8
 nber bend=              20
 nber lin bend=           0
 nber prop tor=          28
 nber impr tor=           0
 nber tot redund int=          61
 generating redundant internal coords
         300        3600          12
 search for int coords
   1 str   2   1   1.421
   2 str   3   2   1.379
   3 str   4   3   1.802
   4 str   5   4   1.745
   5 str   6   5   1.421
   6 str   7   3   1.431
   7 str   7   6   1.379
   8 str   8   1   1.745
   9 str   8   7   1.802
  10 str   9   1   1.079
  11 str  10   2   1.081
  12 str  11   5   1.079
  13 str  12   6   1.081
 nber stretches=          13
  14 ben   1   2   3
  15 prop tor   1   2   3   4
  16 prop tor   1   2   3   7
  17 ben   1   2  10
  18 ben   1   8   7
  19 ben   2   1   8
  20 prop tor   2   1   8   7
  21 ben   2   1   9
  22 ben   2   3   4
  23 prop tor   2   3   4   5
  24 ben   2   3   7
  25 prop tor   2   3   7   6
  26 prop tor   2   3   7   8
  27 ben   3   2  10
  28 ben   3   4   5
  29 prop tor   3   4   5   6
  30 prop tor   3   4   5  11
  31 ben   3   7   6
  32 ben   3   7   8
  33 prop tor   3   7   8   1
  34 ben   4   3   7
  35 prop tor   4   3   7   6
  36 prop tor   4   3   7   8
  37 ben   4   5   6
  38 prop tor   4   5   6   7
  39 prop tor   4   5   6  12
  40 ben   4   5  11
  41 ben   5   6   7
  42 prop tor   5   6   7   3
  43 prop tor   5   6   7   8
  44 ben   5   6  12
  45 ben   6   5  11
  46 ben   6   7   8
  47 prop tor   6   7   8   1
  48 prop tor   7   3   4   5
  49 ben   7   6  12
  50 prop tor   8   1   2   3
  51 prop tor   8   1   2  10
  52 ben   8   1   9
  53 prop tor   9   1   2   3
  54 prop tor   9   1   2  10
  55 prop tor   9   1   8   7
  56 prop tor  10   2   3   4
  57 prop tor  10   2   3   7
  58 prop tor  11   5   6   7
  59 prop tor  11   5   6  12
  60 prop tor  12   6   7   3
  61 prop tor  12   6   7   8
 nber bend=              20
 nber lin bend=           0
 nber prop tor=          28
 nber impr tor=           0
 nber tot redund int=          61
 Eigenvalues of G in red int coords
    Gval -0.00000000 -0.00000000 -0.00000000 -0.00000000 -0.00000000 -0.00000000 -0.00000000 -0.00000000
    Gval -0.00000000 -0.00000000 -0.00000000 -0.00000000 -0.00000000 -0.00000000 -0.00000000 -0.00000000
    Gval  0.00000000  0.00000000  0.00000000  0.00000000  0.00000000  0.00000000  0.00000000  0.00000000
    Gval  0.00000000  0.00000000  0.00000000  0.00000000  0.00000000  0.00000000  0.00000000  0.00001793
    Gval  0.00002682  0.00003466  0.00004575  0.00005182  0.00007872  0.00009639  0.00010714  0.00011028
    Gval  0.00014944  0.00015886  0.00022373  0.00029103  0.00029769  0.00035867  0.00038276  0.00059643
    Gval  0.00059659  0.00062051  0.00062522  0.00062888  0.00108351  0.00108509  0.00117632  0.00117897
    Gval  0.00126057  0.00202851  0.00214952  0.00390308  0.00391490
  1.792613242490621E-005  1.792613242490621E-005
  2.682440302848546E-005  1.792613242490621E-005
  3.466306157177875E-005  1.792613242490621E-005
  4.574933415940804E-005  1.792613242490621E-005
  5.182071436291207E-005  1.792613242490621E-005
  7.872019350637135E-005  1.792613242490621E-005
  9.639164453393664E-005  1.792613242490621E-005
  1.071429557767488E-004  1.792613242490621E-005
  1.102808248730682E-004  1.792613242490621E-005
  1.494376040254308E-004  1.792613242490621E-005
  1.588639405396366E-004  1.792613242490621E-005
  2.237348288475201E-004  1.792613242490621E-005
  2.910302088337819E-004  1.792613242490621E-005
  2.976944159006357E-004  1.792613242490621E-005
  3.586717848634721E-004  1.792613242490621E-005
  3.827572738052287E-004  1.792613242490621E-005
  5.964279550108701E-004  1.792613242490621E-005
  5.965893160482280E-004  1.792613242490621E-005
  6.205077371346719E-004  1.792613242490621E-005
  6.252157509346606E-004  1.792613242490621E-005
  6.288803853961112E-004  1.792613242490621E-005
  1.083512779091133E-003  1.792613242490621E-005
  1.085089736713834E-003  1.792613242490621E-005
  1.176321788737783E-003  1.792613242490621E-005
  1.178971126540803E-003  1.792613242490621E-005
  1.260565397236321E-003  1.792613242490621E-005
  2.028510652472573E-003  1.792613242490621E-005
  2.149516711629447E-003  1.792613242490621E-005
  3.903080794796713E-003  1.792613242490621E-005
  3.914902203342369E-003  1.792613242490621E-005
 cut=1d-8, nber non-redundant internal coords=          30
 Check on Eigenvals of non-red overlap matrix:
  0.00001793  0.00002682  0.00003466  0.00004575  0.00005182  0.00007872  0.00009639  0.00010714
  0.00011028  0.00014944  0.00015886  0.00022373  0.00029103  0.00029769  0.00035867  0.00038276
  0.00059643  0.00059659  0.00062051  0.00062522  0.00062888  0.00108351  0.00108509  0.00117632
  0.00117897  0.00126057  0.00202851  0.00214952  0.00390308  0.00391490
 generating redundant internal coords
         300        3600          12
 search for int coords
   1 str   2   1   1.363
   2 str   3   2   1.425
   3 str   4   3   1.743
   4 str   5   4   1.750
   5 str   6   5   1.363
   6 str   7   3   1.389
   7 str   7   6   1.425
   8 str   8   1   1.750
   9 str   8   7   1.743
  10 str   9   1   1.079
  11 str  10   2   1.081
  12 str  11   5   1.079
  13 str  12   6   1.081
 nber stretches=          13
  14 ben   1   2   3
  15 prop tor   1   2   3   4
  16 prop tor   1   2   3   7
  17 ben   1   2  10
  18 ben   1   8   7
  19 ben   2   1   8
  20 prop tor   2   1   8   7
  21 ben   2   1   9
  22 ben   2   3   4
  23 prop tor   2   3   4   5
  24 ben   2   3   7
  25 prop tor   2   3   7   6
  26 prop tor   2   3   7   8
  27 ben   3   2  10
  28 ben   3   4   5
  29 prop tor   3   4   5   6
  30 prop tor   3   4   5  11
  31 ben   3   7   6
  32 ben   3   7   8
  33 prop tor   3   7   8   1
  34 ben   4   3   7
  35 prop tor   4   3   7   6
  36 prop tor   4   3   7   8
  37 ben   4   5   6
  38 prop tor   4   5   6   7
  39 prop tor   4   5   6  12
  40 ben   4   5  11
  41 ben   5   6   7
  42 prop tor   5   6   7   3
  43 prop tor   5   6   7   8
  44 ben   5   6  12
  45 ben   6   5  11
  46 ben   6   7   8
  47 prop tor   6   7   8   1
  48 prop tor   7   3   4   5
  49 ben   7   6  12
  50 prop tor   8   1   2   3
  51 prop tor   8   1   2  10
  52 ben   8   1   9
  53 prop tor   9   1   2   3
  54 prop tor   9   1   2  10
  55 prop tor   9   1   8   7
  56 prop tor  10   2   3   4
  57 prop tor  10   2   3   7
  58 prop tor  11   5   6   7
  59 prop tor  11   5   6  12
  60 prop tor  12   6   7   3
  61 prop tor  12   6   7   8
 nber bend=              20
 nber lin bend=           0
 nber prop tor=          28
 nber impr tor=           0
 nber tot redund int=          61
 Eigenvalues of G in red int coords
    Gval -0.00000000 -0.00000000 -0.00000000 -0.00000000 -0.00000000 -0.00000000 -0.00000000 -0.00000000
    Gval -0.00000000 -0.00000000 -0.00000000 -0.00000000 -0.00000000 -0.00000000 -0.00000000 -0.00000000
    Gval -0.00000000 -0.00000000 -0.00000000  0.00000000  0.00000000  0.00000000  0.00000000  0.00000000
    Gval  0.00000000  0.00000000  0.00000000  0.00000000  0.00000000  0.00000000  0.00000000  0.00001787
    Gval  0.00002709  0.00003478  0.00004582  0.00005227  0.00007851  0.00009815  0.00010877  0.00011051
    Gval  0.00015442  0.00016115  0.00023437  0.00028987  0.00030763  0.00037153  0.00038416  0.00059652
    Gval  0.00059669  0.00061195  0.00062065  0.00062522  0.00108038  0.00108189  0.00118565  0.00118784
    Gval  0.00127454  0.00202507  0.00214620  0.00397142  0.00397944
  1.786553222800262E-005  1.786553222800262E-005
  2.709296600979175E-005  1.786553222800262E-005
  3.478125046904641E-005  1.786553222800262E-005
  4.582165377170034E-005  1.786553222800262E-005
  5.226841261500250E-005  1.786553222800262E-005
  7.851065214273008E-005  1.786553222800262E-005
  9.815456647275348E-005  1.786553222800262E-005
  1.087730519892042E-004  1.786553222800262E-005
  1.105079908045700E-004  1.786553222800262E-005
  1.544224721447599E-004  1.786553222800262E-005
  1.611486198185826E-004  1.786553222800262E-005
  2.343692582852106E-004  1.786553222800262E-005
  2.898720230074190E-004  1.786553222800262E-005
  3.076341521846932E-004  1.786553222800262E-005
  3.715330046069813E-004  1.786553222800262E-005
  3.841595276831597E-004  1.786553222800262E-005
  5.965205068200743E-004  1.786553222800262E-005
  5.966897589033169E-004  1.786553222800262E-005
  6.119475477924010E-004  1.786553222800262E-005
  6.206508484543987E-004  1.786553222800262E-005
  6.252214792128761E-004  1.786553222800262E-005
  1.080378844485443E-003  1.786553222800262E-005
  1.081891769872679E-003  1.786553222800262E-005
  1.185651164078392E-003  1.786553222800262E-005
  1.187836451116534E-003  1.786553222800262E-005
  1.274544285642771E-003  1.786553222800262E-005
  2.025067584122281E-003  1.786553222800262E-005
  2.146200963706738E-003  1.786553222800262E-005
  3.971419054365585E-003  1.786553222800262E-005
  3.979437539828051E-003  1.786553222800262E-005
 cut=1d-8, nber non-redundant internal coords=          30
 Check on Eigenvals of non-red overlap matrix:
  0.00001787  0.00002709  0.00003478  0.00004582  0.00005227  0.00007851  0.00009815  0.00010877
  0.00011051  0.00015442  0.00016115  0.00023437  0.00028987  0.00030763  0.00037153  0.00038416
  0.00059652  0.00059669  0.00061195  0.00062065  0.00062522  0.00108038  0.00108189  0.00118565
  0.00118784  0.00127454  0.00202507  0.00214620  0.00397142  0.00397944
 d1=
 -17.3   0.0 -15.0  -1.2   0.0  -0.0  -0.0   0.0   3.1  -0.5  -0.0  -0.0   0.0  -3.9  -0.0  -1.9   0.0   0.0  -0.0   0.1
   0.0   0.0   1.6   0.0   0.7   0.0  -0.0   0.0  -0.0   0.0
 d2=
  17.4  -0.0  15.1   1.4  -0.0   0.0   0.0  -0.0  -3.1  -0.4   0.0   0.0  -0.0   3.5   0.0   2.2  -0.0   0.0   0.0   0.0
   0.0  -0.0  -1.6  -0.0   0.7  -0.0   0.0  -0.0   0.0  -0.0
 curvilinear- renormalizn of Dush matrix done
  mol 1 sym            1  -> mol 2 sym            1

 Dushinsky matrix, ncs 2 in terms of ncs 1

   mode   freq    coeff     %      %tot     of    at

   1        -0. -0.0000     0.0     0.0   9        98.
   2        -0.  0.0000     0.0     0.0   1       -73.
   3        -0. -0.0000     0.0     0.0   1       -73.
   4         0.  0.0000     0.0     0.0   9        98.
   5         0.  0.0000     0.0     0.0   1       -73.
   6         0. -0.0000     0.0     0.0   1       -73.
   7       192.  0.4548    20.7   105.6   1       -73.
                 0.8882    78.9           9        98.
   8       213.  0.8646    74.7    98.4   1       -73.
                -0.4941    24.4           9        98.
   9       352.  0.9947    99.0   101.5  10       329.
  10       447.  0.7200    51.8   104.5   2       -72.
                -0.6870    47.2          12       355.
  11       453. -0.9875    97.5    99.4  13       404.
  12       511. -0.9924    98.5    99.3  11       351.
  13       552. -0.9763    95.3   102.2  14       468.
  14       622.  0.9886    97.7   101.1  15       552.
  15       631. -0.9726    94.6   101.7  17       577.
  16       668.  0.9394    88.2   100.5  16       558.
                -0.3309    11.0          20       787.
  17       734.  0.6121    37.5    98.7   2       -72.
                 0.6802    46.3          12       355.
                -0.4020    16.2          21       793.
  18       755.  0.9857    97.2    99.6  19       745.
  19       779. -0.8946    80.0   100.8  18       690.
                -0.4010    16.1          23       867.
  20       859.  0.9792    95.9   103.8  22       827.
  21       876. -0.9053    82.0   102.0  21       793.
  22       879.  0.3500    12.2   102.1  16       558.
                 0.9325    87.0          20       787.
  23       930. -0.3648    13.3    99.8  18       690.
                 0.9024    81.4          23       867.
  24      1100.  0.9490    90.1   100.1  25      1051.
  25      1122. -0.8970    80.5   100.2  24      1029.
                -0.3940    15.5          28      1299.
  26      1197.  0.9336    87.2   101.8  26      1114.
  27      1214.  0.9632    92.8   100.2  27      1230.
  28      1361.  0.8481    71.9   101.1  29      1299.
                 0.4106    16.9          30      1328.
  29      1379.  0.9613    92.4   101.8  31      1454.
  30      1456. -0.3873    15.0   101.7  30      1328.
                 0.8869    78.7          32      1550.
  31      1496.  0.3795    14.4    99.0  24      1029.
                -0.9064    82.1          28      1299.
  32      1537. -0.4190    17.6    98.8  29      1299.
                 0.7541    56.9          30      1328.
                 0.4294    18.4          32      1550.
  33      3212. -0.9899    98.0   100.0  33      3214.
  34      3212. -0.9923    98.5   100.0  34      3214.
  35      3243.  0.9958    99.2   100.0  35      3244.
  36      3244. -0.9933    98.7   100.0  36      3245.
 nber times 1st assigned=           1           4
 nber times 1st assigned=           2           0
 nber times 1st assigned=           3           0
 nber times 1st assigned=           4           0
 nber times 1st assigned=           5           0
 nber times 1st assigned=           6           0
 nber times 1st assigned=           7           0
 nber times 1st assigned=           8           0
 nber times 1st assigned=           9           2
 nber times 1st assigned=          10           0
 nber times 1st assigned=          11           0
 nber times 1st assigned=          12           0
 nber times 1st assigned=          13           0
 nber times 1st assigned=          14           0
 nber times 1st assigned=          15           0
 nber times 1st assigned=          16           0
 nber times 1st assigned=          17           0
 nber times 1st assigned=          18           0
 nber times 1st assigned=          19           0
 nber times 1st assigned=          20           0
 nber times 1st assigned=          21           0
 nber times 1st assigned=          22           0
 nber times 1st assigned=          23           0
 nber times 1st assigned=          24           0
 nber times 1st assigned=          25           0
 nber times 1st assigned=          26           0
 nber times 1st assigned=          27           0
 nber times 1st assigned=          28           0
 nber times 1st assigned=          29           0
 nber times 1st assigned=          30           0
 nber times 1st assigned=          31           0
 nber times 1st assigned=          32           0
 nber times 1st assigned=          33           0
 nber times 1st assigned=          34           0
 nber times 1st assigned=          35           0
 nber times 1st assigned=          36           0
 Dushinsky matrix written to .out file
 modes represented=   30.2572713216665     

 Dushinsky matrix, ncs 1 in terms of ncs 2

   mode   freq    coeff     %      %tot     of    at

   1       -73.  0.4548    20.7    95.6   7       192.
                 0.8646    74.7           8       213.
   2       -72.  0.7200    51.8   100.7  10       447.
                 0.6121    37.5          17       734.
   9        98.  0.8882    78.9   108.1   7       192.
                -0.4941    24.4           8       213.
  10       329.  0.9947    99.0   102.5   9       352.
  11       351. -0.9924    98.5   100.0  12       511.
  12       355. -0.6870    47.2   104.4  10       447.
                 0.6802    46.3          17       734.
  13       404. -0.9875    97.5    99.5  11       453.
  14       468. -0.9763    95.3   102.0  13       552.
  15       552.  0.9886    97.7   100.8  14       622.
  16       558.  0.9394    88.2   101.4  16       668.
                 0.3500    12.2          22       879.
  17       577. -0.9726    94.6   101.7  15       631.
  18       690. -0.8946    80.0    98.5  19       779.
                -0.3648    13.3          23       930.
  19       745.  0.9857    97.2   100.0  18       755.
  20       787. -0.3309    11.0   100.7  16       668.
                 0.9325    87.0          22       879.
  21       793. -0.4020    16.2   100.4  17       734.
                -0.9053    82.0          21       876.
  22       827.  0.9792    95.9   104.3  20       859.
  23       867. -0.4010    16.1   101.4  19       779.
                 0.9024    81.4          23       930.
  24      1029. -0.8970    80.5   100.1  25      1122.
                 0.3795    14.4          31      1496.
  25      1051.  0.9490    90.1   100.0  24      1100.
  26      1114.  0.9336    87.2   101.4  26      1197.
  27      1230.  0.9632    92.8   100.2  27      1214.
  28      1299. -0.3940    15.5    99.0  25      1122.
                -0.9064    82.1          31      1496.
  29      1299.  0.8481    71.9   100.6  28      1361.
                -0.4190    17.6          32      1537.
  30      1328.  0.4106    16.9    99.1  28      1361.
                -0.3873    15.0          30      1456.
                 0.7541    56.9          32      1537.
  31      1454.  0.9613    92.4   101.7  29      1379.
  32      1550.  0.8869    78.7   101.4  30      1456.
                 0.4294    18.4          32      1537.
  33      3214. -0.9899    98.0   100.0  33      3212.
  34      3214. -0.9923    98.5   100.0  34      3212.
  35      3244.  0.9958    99.2   100.0  35      3243.
  36      3245. -0.9933    98.7   100.0  36      3244.
 nber times 1st assigned=           1           0
 nber times 1st assigned=           2           0
 nber times 1st assigned=           3           0
 nber times 1st assigned=           4           0
 nber times 1st assigned=           5           0
 nber times 1st assigned=           6           0
 nber times 1st assigned=           7           0
 nber times 1st assigned=           8           0
 nber times 1st assigned=           9           0
 nber times 1st assigned=          10           0
 nber times 1st assigned=          11           0
 nber times 1st assigned=          12           0
 nber times 1st assigned=          13           0
 nber times 1st assigned=          14           0
 nber times 1st assigned=          15           0
 nber times 1st assigned=          16           0
 nber times 1st assigned=          17           0
 nber times 1st assigned=          18           0
 nber times 1st assigned=          19           0
 nber times 1st assigned=          20           0
 nber times 1st assigned=          21           0
 nber times 1st assigned=          22           0
 nber times 1st assigned=          23           0
 nber times 1st assigned=          24           0
 nber times 1st assigned=          25           0
 nber times 1st assigned=          26           0
 nber times 1st assigned=          27           0
 nber times 1st assigned=          28           0
 nber times 1st assigned=          29           0
 nber times 1st assigned=          30           0
 nber times 1st assigned=          31           0
 nber times 1st assigned=          32           0
 nber times 1st assigned=          33           0
 nber times 1st assigned=          34           0
 nber times 1st assigned=          35           0
 nber times 1st assigned=          36           0
 modes represented=   30.2572713216665     
 p1=
   -0.    0.   -0.    0.   -0.    0.   -0.    0.    0.    0.    0.   -0.   21.    3.   -0.   -0.    0.   -0.    1.   -0.
   -0.    0.   -0.   -0.   -5.   -2.    0.    0.    5.   -0.   -0.   -8.   -0.    0.   -0.    0.
 p2=
   -0.    0.    0.   -0.   -0.    0.   -0.    0.   -0.   -0.   20.    0.    6.   -0.    0.    0.   -0.   -0.   -0.    2.
    0.    0.    0.    4.   -0.   -1.   -0.   -4.    0.    7.    0.    6.    0.   -0.    0.   -0.

 Displacement: in terms of nc of 1 THEN of nc of 2

   1     freq=   -73. Q= -0.000 lam=    -0.0     freq=    -0. Q= -0.000 lam=    -0.0
   2     freq=   -72. Q=  0.000 lam=    -0.0     freq=    -0. Q=  0.000 lam=    -0.0
   3     freq=    -0. Q= -0.000 lam=    -0.0     freq=    -0. Q= -0.000 lam=    -0.0
   4     freq=    -0. Q=  0.000 lam=    -0.0     freq=     0. Q=  0.000 lam=     0.0
   5     freq=    -0. Q= -0.000 lam=    -0.0     freq=     0. Q= -0.000 lam=     0.0
   6     freq=     0. Q=  0.000 lam=     0.0     freq=     0. Q=  0.000 lam=     0.0
   7     freq=     0. Q= -0.000 lam=     0.0     freq=   192. Q= -0.000 lam=     0.0
   8     freq=     0. Q=  0.000 lam=     0.0     freq=   213. Q=  0.000 lam=     0.0
   9     freq=    98. Q=  0.000 lam=     0.0     freq=   352. Q=  0.000 lam=     0.0
  10     freq=   329. Q=  0.000 lam=     0.0     freq=   447. Q=  0.000 lam=     0.0
  11     freq=   351. Q=  0.000 lam=     0.0     freq=   453. Q=  1.737 lam=   684.1
  12     freq=   355. Q= -0.000 lam=     0.0     freq=   511. Q= -0.000 lam=     0.0
  13     freq=   404. Q=  1.689 lam=   576.1     freq=   552. Q=  0.570 lam=    89.7
  14     freq=   468. Q=  0.234 lam=    12.8     freq=   622. Q=  0.000 lam=     0.0
  15     freq=   552. Q= -0.000 lam=     0.0     freq=   631. Q= -0.000 lam=     0.0
  16     freq=   558. Q= -0.000 lam=     0.0     freq=   668. Q= -0.000 lam=     0.0
  17     freq=   577. Q=  0.000 lam=     0.0     freq=   734. Q=  0.000 lam=     0.0
  18     freq=   690. Q= -0.000 lam=     0.0     freq=   755. Q= -0.051 lam=     1.0
  19     freq=   745. Q=  0.060 lam=     1.3     freq=   779. Q=  0.000 lam=     0.0
  20     freq=   787. Q= -0.000 lam=     0.0     freq=   859. Q= -0.213 lam=    19.5
  21     freq=   793. Q= -0.000 lam=     0.0     freq=   876. Q= -0.000 lam=     0.0
  22     freq=   827. Q=  0.009 lam=     0.0     freq=   879. Q=  0.000 lam=     0.0
  23     freq=   867. Q= -0.000 lam=     0.0     freq=   930. Q= -0.000 lam=     0.0
  24     freq=  1029. Q= -0.000 lam=     0.0     freq=  1100. Q= -0.540 lam=   160.2
  25     freq=  1051. Q= -0.652 lam=   223.5     freq=  1122. Q= -0.000 lam=     0.0
  26     freq=  1114. Q= -0.304 lam=    51.6     freq=  1197. Q= -0.087 lam=     4.5
  27     freq=  1230. Q=  0.000 lam=     0.0     freq=  1214. Q=  0.000 lam=     0.0
  28     freq=  1299. Q=  0.003 lam=     0.0     freq=  1361. Q=  0.588 lam=   235.1
  29     freq=  1299. Q=  0.701 lam=   318.8     freq=  1379. Q=  0.000 lam=     0.0
  30     freq=  1328. Q= -0.001 lam=     0.0     freq=  1456. Q= -1.043 lam=   792.3
  31     freq=  1454. Q= -0.000 lam=     0.0     freq=  1496. Q= -0.000 lam=     0.0
  32     freq=  1550. Q= -1.261 lam=  1233.3     freq=  1537. Q= -0.969 lam=   720.9
  33     freq=  3214. Q= -0.000 lam=     0.0     freq=  3212. Q= -0.000 lam=     0.0
  34     freq=  3214. Q=  0.017 lam=     0.4     freq=  3212. Q=  0.004 lam=     0.0
  35     freq=  3244. Q= -0.047 lam=     3.6     freq=  3243. Q= -0.055 lam=     4.8
  36     freq=  3245. Q=  0.000 lam=     0.0     freq=  3244. Q=  0.003 lam=     0.0

 total reorg energy (cm**-1, kcal/mol)=     2422.     2712.      6.92      7.75
 Nber of molecules processed=           2
