 Enter ifcurve (0=recti, 1=orth curvi, 2=apprx curvi, -1 = skip
 And atom ordering flag, 0= never changes, 1= use the first order thenceforth,
  2= deduce it (does read on fail), 3= always read it
 Reading file: 
 ./TT-PDI_4_C0S2.log                                                            
                                          
  Entering Gaussian System, Link 0=g16                                          
  
 Gaussian format, type: g94, g98, g03= F F F
  #P Geom=AllCheck Guess=TCheck SCRF=Check GenChk RB3LYP TD(FC,Read)/6-3    
 energy type= TD      
 Original G94 input coords:
  6  1.271692  0.391845  0.292543
  6  2.769111  0.287351 -0.014388
  6  3.621248 -0.061840  1.210080
  7  3.036067 -0.642773 -1.158154
  6  2.721767 -1.999685 -1.023119
  8  2.234297 -2.444120  0.005794
  6  3.002985 -2.880749 -2.178087
  6  2.702616 -4.244222 -2.080282
  6  2.952667 -5.093005 -3.139623
  6  3.517779 -4.621838 -4.356350
  6  3.784375 -5.496192 -5.470581
  6  3.500714 -6.888942 -5.427364
  6  3.760422 -7.715020 -6.500922
  6  4.317823 -7.197297 -7.677886
  6  4.577664 -8.119854 -8.799593
  8  4.316090 -9.308087 -8.712713
  7  5.140138 -7.568926 -9.973550
  6  5.432018 -8.356097-11.113185
  6  5.256233 -9.680282-11.307736
  6  5.623950-10.292096-12.558226
  6  5.472892-11.612680-12.815269
  6  5.810223-12.307311-14.028943
  6  5.645644-13.656274-14.265470
  6  6.074769-14.032047-15.560657
 16  6.136718-15.527960-16.456225
  6  6.826089-14.699824-17.833981
  6  6.999911-13.361528-17.626370
  6  6.569562-12.982843-16.326066
 16  6.510202-11.483725-15.436252
  6  5.457089 -6.180157-10.104690
  8  5.940687 -5.747697-11.135979
  6  5.176294 -5.310178 -8.954238
  6  5.476121 -3.944135 -9.051802
  6  5.226807 -3.096106 -7.993096
  6  4.662814 -3.566169 -6.775453
  6  4.397103 -2.691707 -5.661359
  6  4.680903 -1.299292 -5.702337
  6  4.420793 -0.473769 -4.627016
  6  3.863210 -0.992106 -3.452183
  6  3.597612 -0.080361 -2.320532
  8  3.855420  1.111115 -2.393403
  6  3.564873 -2.367940 -3.365931
  6  3.828776 -3.233954 -4.470159
  6  4.352304 -4.954371 -6.661972
  6  4.615664 -5.821298 -7.765504
  1  1.114472  1.185831  1.027676
  1  0.877068 -0.539507  0.696636
  1  0.709964  0.655480 -0.607323
  1  3.104169  1.248874 -0.396926
  1  3.322335 -1.011581  1.651743
  1  3.503511  0.724667  1.960479
  1  4.680050 -0.111232  0.943056
  1  2.272134 -4.609153 -1.156730
  1  2.708058 -6.139893 -3.028858
  1  3.070650 -7.323882 -4.536397
  1  3.541555 -8.773948 -6.459851
  1  5.852157 -7.743200-11.897629
  1  4.838384-10.307564-10.535658
  1  6.043294 -9.642736-13.324293
  1  5.051924-12.245029-12.036657
  1  5.232426-14.329514-13.526634
  1  7.061186-15.266995-18.721330
  1  7.413087-12.690423-18.366328
  1  5.905584 -3.577028 -9.974763
  1  5.470961 -2.049220 -8.104771
  1  5.111655 -0.863367 -6.592626
  1  4.640107  0.585346 -4.666760
 nber atoms=          67
  Total Energy, E(TD-HF/TD-DFT) =  -2630.47160032                               
  
          32          49 "  -2630.47160032"
After scan for Atom:   Atom  AN      X      Y      Z        X      Y      Z        X      Y      Z   
After scan for Atom:   Atom  AN      X      Y      Z        X      Y      Z        X      Y      Z   
After scan for Atom:   Atom  AN      X      Y      Z        X      Y      Z        X      Y      Z   
After scan for Atom:   Atom  AN      X      Y      Z        X      Y      Z        X      Y      Z   
After scan for Atom:   Atom  AN      X      Y      Z        X      Y      Z        X      Y      Z   
After scan for Atom:   Atom  AN      X      Y      Z        X      Y      Z        X      Y      Z   
After scan for Atom:   Atom  AN      X      Y      Z        X      Y      Z        X      Y      Z   
After scan for Atom:   Atom  AN      X      Y      Z        X      Y      Z        X      Y      Z   
After scan for Atom:   Atom  AN      X      Y      Z        X      Y      Z        X      Y      Z   
After scan for Atom:   Atom  AN      X      Y      Z        X      Y      Z        X      Y      Z   
After scan for Atom:   Atom  AN      X      Y      Z        X      Y      Z        X      Y      Z   
After scan for Atom:   Atom  AN      X      Y      Z        X      Y      Z        X      Y      Z   
After scan for Atom:   Atom  AN      X      Y      Z        X      Y      Z        X      Y      Z   
After scan for Atom:   Atom  AN      X      Y      Z        X      Y      Z        X      Y      Z   
After scan for Atom:   Atom  AN      X      Y      Z        X      Y      Z        X      Y      Z   
After scan for Atom:   Atom  AN      X      Y      Z        X      Y      Z        X      Y      Z   
After scan for Atom:   Atom  AN      X      Y      Z        X      Y      Z        X      Y      Z   
After scan for Atom:   Atom  AN      X      Y      Z        X      Y      Z        X      Y      Z   
After scan for Atom:   Atom  AN      X      Y      Z        X      Y      Z        X      Y      Z   
After scan for Atom:   Atom  AN      X      Y      Z        X      Y      Z        X      Y      Z   
After scan for Atom:   Atom  AN      X      Y      Z        X      Y      Z        X      Y      Z   
After scan for Atom:   Atom  AN      X      Y      Z        X      Y      Z        X      Y      Z   
After scan for Atom:   Atom  AN      X      Y      Z        X      Y      Z        X      Y      Z   
After scan for Atom:   Atom  AN      X      Y      Z        X      Y      Z        X      Y      Z   
After scan for Atom:   Atom  AN      X      Y      Z        X      Y      Z        X      Y      Z   
After scan for Atom:   Atom  AN      X      Y      Z        X      Y      Z        X      Y      Z   
After scan for Atom:   Atom  AN      X      Y      Z        X      Y      Z        X      Y      Z   
After scan for Atom:   Atom  AN      X      Y      Z        X      Y      Z        X      Y      Z   
After scan for Atom:   Atom  AN      X      Y      Z        X      Y      Z        X      Y      Z   
After scan for Atom:   Atom  AN      X      Y      Z        X      Y      Z        X      Y      Z   
After scan for Atom:   Atom  AN      X      Y      Z        X      Y      Z        X      Y      Z   
After scan for Atom:   Atom  AN      X      Y      Z        X      Y      Z        X      Y      Z   
After scan for Atom:   Atom  AN      X      Y      Z        X      Y      Z        X      Y      Z   
After scan for Atom:   Atom  AN      X      Y      Z        X      Y      Z        X      Y      Z   
After scan for Atom:   Atom  AN      X      Y      Z        X      Y      Z        X      Y      Z   
After scan for Atom:   Atom  AN      X      Y      Z        X      Y      Z        X      Y      Z   
After scan for Atom:   Atom  AN      X      Y      Z        X      Y      Z        X      Y      Z   
After scan for Atom:   Atom  AN      X      Y      Z        X      Y      Z        X      Y      Z   
After scan for Atom:   Atom  AN      X      Y      Z        X      Y      Z        X      Y      Z   
After scan for Atom:   Atom  AN      X      Y      Z        X      Y      Z        X      Y      Z   
After scan for Atom:   Atom  AN      X      Y      Z        X      Y      Z        X      Y      Z   
After scan for Atom:   Atom  AN      X      Y      Z        X      Y      Z        X      Y      Z   
After scan for Atom:   Atom  AN      X      Y      Z        X      Y      Z        X      Y      Z   
After scan for Atom:   Atom  AN      X      Y      Z        X      Y      Z        X      Y      Z   
After scan for Atom:   Atom  AN      X      Y      Z        X      Y      Z        X      Y      Z   
After scan for Atom:   Atom  AN      X      Y      Z        X      Y      Z        X      Y      Z   
After scan for Atom:   Atom  AN      X      Y      Z        X      Y      Z        X      Y      Z   
After scan for Atom:   Atom  AN      X      Y      Z        X      Y      Z        X      Y      Z   
After scan for Atom:   Atom  AN      X      Y      Z        X      Y      Z        X      Y      Z   
After scan for Atom:   Atom  AN      X      Y      Z        X      Y      Z        X      Y      Z   
After scan for Atom:   Atom  AN      X      Y      Z        X      Y      Z        X      Y      Z   
After scan for Atom:   Atom  AN      X      Y      Z        X      Y      Z        X      Y      Z   
After scan for Atom:   Atom  AN      X      Y      Z        X      Y      Z        X      Y      Z   
After scan for Atom:   Atom  AN      X      Y      Z        X      Y      Z        X      Y      Z   
After scan for Atom:   Atom  AN      X      Y      Z        X      Y      Z        X      Y      Z   
After scan for Atom:   Atom  AN      X      Y      Z        X      Y      Z        X      Y      Z   
After scan for Atom:   Atom  AN      X      Y      Z        X      Y      Z        X      Y      Z   
After scan for Atom:   Atom  AN      X      Y      Z        X      Y      Z        X      Y      Z   
After scan for Atom:   Atom  AN      X      Y      Z        X      Y      Z        X      Y      Z   
After scan for Atom:   Atom  AN      X      Y      Z        X      Y      Z        X      Y      Z   
After scan for Atom:   Atom  AN      X      Y      Z        X      Y      Z        X      Y      Z   
After scan for Atom:   Atom  AN      X      Y      Z        X      Y      Z        X      Y      Z   
After scan for Atom:   Atom  AN      X      Y      Z        X      Y      Z        X      Y      Z   
After scan for Atom:   Atom  AN      X      Y      Z        X      Y      Z        X      Y      Z   
After scan for Atom:   Atom  AN      X      Y      Z        X      Y      Z        X      Y      Z   
 g94    frequencies=
     0.0    0.0    0.0    0.0    0.0    0.0    7.7   15.9   17.6   24.8
    29.9   38.8   54.7   59.0   68.7   74.8   88.2   94.3  106.3  106.5
   129.9  137.3  167.7  172.1  185.3  192.9  201.2  208.2  212.3  220.5
   234.0  235.5  237.8  253.6  256.0  289.9  301.9  304.0  322.0  345.5
   347.6  368.9  390.0  395.7  410.9  417.6  419.3  431.6  438.9  440.6
   447.2  447.9  466.2  467.5  471.8  480.6  484.1  499.0  500.6  505.9
   513.2  543.5  551.6  571.1  574.5  576.6  595.8  604.7  615.8  619.9
   632.2  632.9  652.0  665.0  677.2  677.8  699.1  700.7  708.4  718.5
   727.1  743.5  750.1  757.7  763.6  765.5  801.9  807.7  809.4  811.9
   815.3  824.8  826.5  832.3  840.6  844.7  857.8  875.0  901.2  907.2
   914.1  920.2  935.4  945.1  953.7  956.7  962.0  974.8  976.7  987.9
   988.9 1026.3 1030.2 1062.6 1091.9 1092.8 1104.4 1126.7 1137.6 1155.4
  1158.2 1161.3 1170.2 1181.7 1185.7 1195.6 1197.6 1212.4 1223.7 1226.7
  1232.6 1241.7 1243.9 1253.3 1281.0 1295.4 1312.7 1318.2 1320.4 1327.2
  1340.5 1352.7 1364.2 1366.8 1371.5 1380.2 1382.1 1392.1 1400.1 1401.8
  1404.9 1416.1 1430.0 1438.6 1447.4 1450.7 1460.8 1466.3 1484.8 1493.4
  1497.5 1500.1 1505.2 1510.3 1522.5 1531.2 1546.0 1553.7 1571.3 1582.0
  1599.6 1601.0 1620.5 1647.9 1657.5 1686.2 1690.1 1725.0 1732.1 3034.3
  3038.4 3092.3 3095.5 3112.5 3125.7 3132.5 3136.7 3142.9 3198.1 3198.7
  3205.8 3206.2 3208.0 3212.6 3213.4 3213.8 3216.8 3223.6 3224.3 3238.9
  3244.8
 g94    symmetries=
                                                 A      A      A      A
       A      A      A      A      A      A      A      A      A      A
       A      A      A      A      A      A      A      A      A      A
       A      A      A      A      A      A      A      A      A      A
       A      A      A      A      A      A      A      A      A      A
       A      A      A      A      A      A      A      A      A      A
       A      A      A      A      A      A      A      A      A      A
       A      A      A      A      A      A      A      A      A      A
       A      A      A      A      A      A      A      A      A      A
       A      A      A      A      A      A      A      A      A      A
       A      A      A      A      A      A      A      A      A      A
       A      A      A      A      A      A      A      A      A      A
       A      A      A      A      A      A      A      A      A      A
       A      A      A      A      A      A      A      A      A      A
       A      A      A      A      A      A      A      A      A      A
       A      A      A      A      A      A      A      A      A      A
       A      A      A      A      A      A      A      A      A      A
       A      A      A      A      A      A      A      A      A      A
       A      A      A      A      A      A      A      A      A      A
       A      A      A      A      A      A      A      A      A      A
       A
 atomic masses:
 12.0000 12.0000 12.0000 14.0031 12.0000 15.9949 12.0000 12.0000 12.0000 12.0000
 12.0000 12.0000 12.0000 12.0000 12.0000 15.9949 14.0031 12.0000 12.0000 12.0000
 12.0000 12.0000 12.0000 12.0000 31.9721 12.0000 12.0000 12.0000 31.9721 12.0000
 15.9949 12.0000 12.0000 12.0000 12.0000 12.0000 12.0000 12.0000 12.0000 12.0000
 15.9949 12.0000 12.0000 12.0000 12.0000  1.0078  1.0078  1.0078  1.0078  1.0078
  1.0078  1.0078  1.0078  1.0078  1.0078  1.0078  1.0078  1.0078  1.0078  1.0078
  1.0078  1.0078  1.0078  1.0078  1.0078  1.0078  1.0078
 looking for force constants in 
 ./TT-PDI_4_C0S2.fchk                                                           
  
 Cartesian Force Constants                  R   N=       20301                  
  
 n3=         201       20301
 g94-fc frequencies=
    -0.9   -0.0   -0.0    0.0    0.7    3.2    7.7   15.9   17.6   24.8
    29.9   38.8   54.7   59.0   68.7   74.8   88.2   94.3  106.3  106.5
   129.9  137.3  167.7  172.1  185.3  193.0  201.2  208.2  212.3  220.5
   234.0  235.5  237.8  253.6  256.1  289.9  301.9  304.0  322.0  345.5
   347.6  368.9  390.0  395.7  410.9  417.6  419.3  431.7  438.9  440.6
   447.2  447.9  466.2  467.5  471.8  480.6  484.1  499.1  500.6  505.9
   513.2  543.5  551.6  571.1  574.5  576.6  595.9  604.7  615.8  619.9
   632.2  632.9  652.0  665.0  677.2  677.8  699.2  700.8  708.4  718.5
   727.1  743.6  750.1  757.7  763.7  765.5  801.9  807.7  809.4  811.9
   815.3  824.8  826.5  832.3  840.6  844.7  857.8  875.1  901.3  907.2
   914.1  920.2  935.4  945.1  953.7  956.7  962.0  974.9  976.7  988.0
   988.9 1026.4 1030.2 1062.6 1091.9 1092.9 1104.4 1126.7 1137.7 1155.4
  1158.2 1161.4 1170.3 1181.7 1185.7 1195.6 1197.6 1212.5 1223.7 1226.7
  1232.6 1241.7 1244.0 1253.3 1281.1 1295.4 1312.8 1318.2 1320.4 1327.2
  1340.6 1352.7 1364.3 1366.8 1371.5 1380.3 1382.1 1392.2 1400.1 1401.8
  1404.9 1416.1 1430.0 1438.6 1447.4 1450.7 1460.8 1466.3 1484.8 1493.4
  1497.5 1500.1 1505.2 1510.4 1522.6 1531.3 1546.0 1553.8 1571.3 1582.1
  1599.6 1601.0 1620.5 1648.0 1657.5 1686.2 1690.2 1725.0 1732.2 3034.4
  3038.5 3092.4 3095.6 3112.5 3125.8 3132.5 3136.8 3142.9 3198.2 3198.7
  3205.8 3206.2 3208.1 3212.7 3213.5 3213.9 3216.9 3223.7 3224.3 3239.0
  3244.9
 at 99999: n3=         201
 symm operator            1 :  F  nop=           0
 symm operator            2 :  F  nop=           0
 symm operator            3 :  F  nop=           0
 symm operator            4 :  F  nop=           0
 symm operator            5 :  F  nop=           0
 symm operator            6 :  F  nop=           0
 symm operator            7 :  F  nop=           0
 The point group of the molecule is  C1
 Symmetry rotation matrix:
   1.00000   0.00000   0.00000
   0.00000   1.00000   0.00000
   0.00000   0.00000   1.00000

 Projecting out zero-frequency components
 generating redundant internal coords
         300        3600          67
 search for int coords
   1 str   2   1   1.532
   2 str   3   2   1.532
   3 str   4   2   1.498
   4 str   5   4   1.399
   5 str   6   5   1.222
   6 str   7   5   1.480
   7 str   8   7   1.400
   8 str   9   8   1.380
   9 str  10   9   1.422
  10 str  11  10   1.441
  11 str  12  11   1.422
  12 str  13  12   1.379
  13 str  14  13   1.401
  14 str  15  14   1.475
  15 str  16  15   1.220
  16 str  17  15   1.414
  17 str  18  17   1.415
  18 str  19  18   1.350
  19 str  20  19   1.440
  20 str  21  20   1.354
  21 str  22  21   1.439
  22 str  23  22   1.379
  23 str  24  23   1.415
  24 str  25  24   1.745
  25 str  26  25   1.749
  26 str  27  26   1.365
  27 str  28  24   1.390
  28 str  28  27   1.421
  29 str  29  22   1.774
  30 str  29  28   1.744
  31 str  30  17   1.431
  32 str  31  30   1.218
  33 str  32  30   1.469
  34 str  33  32   1.402
  35 str  34  33   1.379
  36 str  35  34   1.422
  37 str  36  35   1.441
  38 str  37  36   1.422
  39 str  38  37   1.380
  40 str  39  38   1.400
  41 str  40   4   1.408
  42 str  40  39   1.477
  43 str  41  40   1.221
  44 str  42   7   1.411
  45 str  42  39   1.410
  46 str  43  10   1.427
  47 str  43  36   1.427
  48 str  43  42   1.428
  49 str  44  11   1.427
  50 str  44  35   1.427
  51 str  45  14   1.411
  52 str  45  32   1.410
  53 str  45  44   1.428
  54 str  46   1   1.093
  55 str  47   1   1.089
  56 str  48   1   1.093
  57 str  49   2   1.088
  58 str  50   3   1.089
  59 str  51   3   1.093
  60 str  52   3   1.093
  61 str  53   8   1.082
  62 str  54   9   1.081
  63 str  55  12   1.081
  64 str  56  13   1.082
  65 str  57  18   1.081
  66 str  58  19   1.079
  67 str  59  20   1.088
  68 str  60  21   1.088
  69 str  61  23   1.082
  70 str  62  26   1.079
  71 str  63  27   1.081
  72 str  64  33   1.082
  73 str  65  34   1.081
  74 str  66  37   1.081
  75 str  67  38   1.082
 nber stretches=          75
  76 ben   1   2   3
  77 prop tor   1   2   3  50
  78 prop tor   1   2   3  51
  79 prop tor   1   2   3  52
  80 ben   1   2   4
  81 prop tor   1   2   4   5
  82 prop tor   1   2   4  40
  83 ben   1   2  49
  84 ben   2   1  46
  85 ben   2   1  47
  86 ben   2   1  48
  87 ben   2   3  50
  88 ben   2   3  51
  89 ben   2   3  52
  90 ben   2   4   5
  91 prop tor   2   4   5   6
  92 prop tor   2   4   5   7
  93 ben   2   4  40
  94 prop tor   2   4  40  39
  95 prop tor   2   4  40  41
  96 ben   3   2   4
  97 prop tor   3   2   4   5
  98 prop tor   3   2   4  40
  99 ben   3   2  49
 100 prop tor   4   2   3  50
 101 prop tor   4   2   3  51
 102 prop tor   4   2   3  52
 103 ben   4   2  49
 104 ben   4   5   6
 105 ben   4   5   7
 106 prop tor   4   5   7   8
 107 prop tor   4   5   7  42
 108 ben   4  40  39
 109 ben   4  40  41
 110 ben   5   4  40
 111 prop tor   5   4  40  39
 112 prop tor   5   4  40  41
 113 ben   5   7   8
 114 prop tor   5   7   8   9
 115 prop tor   5   7   8  53
 116 ben   5   7  42
 117 prop tor   5   7  42  39
 118 prop tor   5   7  42  43
 119 ben   6   5   7
 120 prop tor   6   5   7   8
 121 prop tor   6   5   7  42
 122 ben   7   8   9
 123 prop tor   7   8   9  10
 124 prop tor   7   8   9  54
 125 ben   7   8  53
 126 ben   7  42  39
 127 ben   7  42  43
 128 prop tor   7  42  43  10
 129 prop tor   7  42  43  36
 130 ben   8   7  42
 131 prop tor   8   7  42  39
 132 prop tor   8   7  42  43
 133 ben   8   9  10
 134 prop tor   8   9  10  11
 135 prop tor   8   9  10  43
 136 ben   8   9  54
 137 ben   9   8  53
 138 ben   9  10  11
 139 prop tor   9  10  11  12
 140 prop tor   9  10  11  44
 141 ben   9  10  43
 142 prop tor   9  10  43  36
 143 prop tor   9  10  43  42
 144 ben  10   9  54
 145 ben  10  11  12
 146 prop tor  10  11  12  13
 147 prop tor  10  11  12  55
 148 ben  10  11  44
 149 prop tor  10  11  44  35
 150 prop tor  10  11  44  45
 151 ben  10  43  36
 152 ben  10  43  42
 153 ben  11  10  43
 154 prop tor  11  10  43  36
 155 prop tor  11  10  43  42
 156 ben  11  12  13
 157 prop tor  11  12  13  14
 158 prop tor  11  12  13  56
 159 ben  11  12  55
 160 ben  11  44  35
 161 ben  11  44  45
 162 prop tor  11  44  45  14
 163 prop tor  11  44  45  32
 164 ben  12  11  44
 165 prop tor  12  11  44  35
 166 prop tor  12  11  44  45
 167 ben  12  13  14
 168 prop tor  12  13  14  15
 169 prop tor  12  13  14  45
 170 ben  12  13  56
 171 ben  13  12  55
 172 ben  13  14  15
 173 prop tor  13  14  15  16
 174 prop tor  13  14  15  17
 175 ben  13  14  45
 176 prop tor  13  14  45  32
 177 prop tor  13  14  45  44
 178 ben  14  13  56
 179 ben  14  15  16
 180 ben  14  15  17
 181 prop tor  14  15  17  18
 182 prop tor  14  15  17  30
 183 ben  14  45  32
 184 ben  14  45  44
 185 ben  15  14  45
 186 prop tor  15  14  45  32
 187 prop tor  15  14  45  44
 188 ben  15  17  18
 189 prop tor  15  17  18  19
 190 prop tor  15  17  18  57
 191 ben  15  17  30
 192 prop tor  15  17  30  31
 193 prop tor  15  17  30  32
 194 ben  16  15  17
 195 prop tor  16  15  17  18
 196 prop tor  16  15  17  30
 197 ben  17  18  19
 198 prop tor  17  18  19  20
 199 prop tor  17  18  19  58
 200 ben  17  18  57
 201 ben  17  30  31
 202 ben  17  30  32
 203 prop tor  17  30  32  33
 204 prop tor  17  30  32  45
 205 ben  18  17  30
 206 prop tor  18  17  30  31
 207 prop tor  18  17  30  32
 208 ben  18  19  20
 209 prop tor  18  19  20  21
 210 prop tor  18  19  20  59
 211 ben  18  19  58
 212 ben  19  18  57
 213 ben  19  20  21
 214 prop tor  19  20  21  22
 215 prop tor  19  20  21  60
 216 ben  19  20  59
 217 ben  20  19  58
 218 ben  20  21  22
 219 prop tor  20  21  22  23
 220 prop tor  20  21  22  29
 221 ben  20  21  60
 222 ben  21  20  59
 223 ben  21  22  23
 224 prop tor  21  22  23  24
 225 prop tor  21  22  23  61
 226 ben  21  22  29
 227 prop tor  21  22  29  28
 228 ben  22  21  60
 229 ben  22  23  24
 230 prop tor  22  23  24  25
 231 prop tor  22  23  24  28
 232 ben  22  23  61
 233 ben  22  29  28
 234 ben  23  22  29
 235 prop tor  23  22  29  28
 236 ben  23  24  25
 237 prop tor  23  24  25  26
 238 ben  23  24  28
 239 prop tor  23  24  28  27
 240 prop tor  23  24  28  29
 241 ben  24  23  61
 242 ben  24  25  26
 243 prop tor  24  25  26  27
 244 prop tor  24  25  26  62
 245 ben  24  28  27
 246 ben  24  28  29
 247 prop tor  24  28  29  22
 248 ben  25  24  28
 249 prop tor  25  24  28  27
 250 prop tor  25  24  28  29
 251 ben  25  26  27
 252 prop tor  25  26  27  28
 253 prop tor  25  26  27  63
 254 ben  25  26  62
 255 ben  26  27  28
 256 prop tor  26  27  28  24
 257 prop tor  26  27  28  29
 258 ben  26  27  63
 259 ben  27  26  62
 260 ben  27  28  29
 261 prop tor  27  28  29  22
 262 prop tor  28  24  25  26
 263 ben  28  27  63
 264 prop tor  29  22  23  24
 265 prop tor  29  22  23  61
 266 prop tor  30  17  18  19
 267 prop tor  30  17  18  57
 268 ben  30  32  33
 269 prop tor  30  32  33  34
 270 prop tor  30  32  33  64
 271 ben  30  32  45
 272 prop tor  30  32  45  14
 273 prop tor  30  32  45  44
 274 ben  31  30  32
 275 prop tor  31  30  32  33
 276 prop tor  31  30  32  45
 277 ben  32  33  34
 278 prop tor  32  33  34  35
 279 prop tor  32  33  34  65
 280 ben  32  33  64
 281 ben  32  45  44
 282 ben  33  32  45
 283 prop tor  33  32  45  14
 284 prop tor  33  32  45  44
 285 ben  33  34  35
 286 prop tor  33  34  35  36
 287 prop tor  33  34  35  44
 288 ben  33  34  65
 289 ben  34  33  64
 290 ben  34  35  36
 291 prop tor  34  35  36  37
 292 prop tor  34  35  36  43
 293 ben  34  35  44
 294 prop tor  34  35  44  11
 295 prop tor  34  35  44  45
 296 ben  35  34  65
 297 ben  35  36  37
 298 prop tor  35  36  37  38
 299 prop tor  35  36  37  66
 300 ben  35  36  43
 301 prop tor  35  36  43  10
 302 prop tor  35  36  43  42
 303 ben  35  44  45
 304 prop tor  35  44  45  14
 305 prop tor  35  44  45  32
 306 ben  36  35  44
 307 prop tor  36  35  44  11
 308 prop tor  36  35  44  45
 309 ben  36  37  38
 310 prop tor  36  37  38  39
 311 prop tor  36  37  38  67
 312 ben  36  37  66
 313 ben  36  43  42
 314 ben  37  36  43
 315 prop tor  37  36  43  10
 316 prop tor  37  36  43  42
 317 ben  37  38  39
 318 prop tor  37  38  39  40
 319 prop tor  37  38  39  42
 320 ben  37  38  67
 321 ben  38  37  66
 322 ben  38  39  40
 323 prop tor  38  39  40   4
 324 prop tor  38  39  40  41
 325 ben  38  39  42
 326 prop tor  38  39  42   7
 327 prop tor  38  39  42  43
 328 ben  39  38  67
 329 ben  39  40  41
 330 ben  39  42  43
 331 prop tor  39  42  43  10
 332 prop tor  39  42  43  36
 333 prop tor  40   4   5   6
 334 prop tor  40   4   5   7
 335 ben  40  39  42
 336 prop tor  40  39  42   7
 337 prop tor  40  39  42  43
 338 prop tor  42   7   8   9
 339 prop tor  42   7   8  53
 340 prop tor  42  39  40   4
 341 prop tor  42  39  40  41
 342 prop tor  43  10  11  12
 343 prop tor  43  10  11  44
 344 prop tor  43  36  37  38
 345 prop tor  43  36  37  66
 346 prop tor  44  11  12  13
 347 prop tor  44  11  12  55
 348 prop tor  44  35  36  37
 349 prop tor  44  35  36  43
 350 prop tor  45  14  15  16
 351 prop tor  45  14  15  17
 352 prop tor  45  32  33  34
 353 prop tor  45  32  33  64
 354 prop tor  46   1   2   3
 355 prop tor  46   1   2   4
 356 prop tor  46   1   2  49
 357 ben  46   1  47
 358 ben  46   1  48
 359 prop tor  47   1   2   3
 360 prop tor  47   1   2   4
 361 prop tor  47   1   2  49
 362 ben  47   1  48
 363 prop tor  48   1   2   3
 364 prop tor  48   1   2   4
 365 prop tor  48   1   2  49
 366 prop tor  49   2   3  50
 367 prop tor  49   2   3  51
 368 prop tor  49   2   3  52
 369 prop tor  49   2   4   5
 370 prop tor  49   2   4  40
 371 ben  50   3  51
 372 ben  50   3  52
 373 ben  51   3  52
 374 prop tor  53   8   9  10
 375 prop tor  53   8   9  54
 376 prop tor  54   9  10  11
 377 prop tor  54   9  10  43
 378 prop tor  55  12  13  14
 379 prop tor  55  12  13  56
 380 prop tor  56  13  14  15
 381 prop tor  56  13  14  45
 382 prop tor  57  18  19  20
 383 prop tor  57  18  19  58
 384 prop tor  58  19  20  21
 385 prop tor  58  19  20  59
 386 prop tor  59  20  21  22
 387 prop tor  59  20  21  60
 388 prop tor  60  21  22  23
 389 prop tor  60  21  22  29
 390 prop tor  61  23  24  25
 391 prop tor  61  23  24  28
 392 prop tor  62  26  27  28
 393 prop tor  62  26  27  63
 394 prop tor  63  27  28  24
 395 prop tor  63  27  28  29
 396 prop tor  64  33  34  35
 397 prop tor  64  33  34  65
 398 prop tor  65  34  35  36
 399 prop tor  65  34  35  44
 400 prop tor  66  37  38  39
 401 prop tor  66  37  38  67
 402 prop tor  67  38  39  40
 403 prop tor  67  38  39  42
 nber bend=             128
 nber lin bend=           0
 nber prop tor=         200
 nber impr tor=           0
 nber tot redund int=         403
 Eigenvalues of G in red int coords
    Gval -0.00000000 -0.00000000 -0.00000000 -0.00000000 -0.00000000 -0.00000000 -0.00000000 -0.00000000
    Gval -0.00000000 -0.00000000 -0.00000000 -0.00000000 -0.00000000 -0.00000000 -0.00000000 -0.00000000
    Gval -0.00000000 -0.00000000 -0.00000000 -0.00000000 -0.00000000 -0.00000000 -0.00000000 -0.00000000
    Gval -0.00000000 -0.00000000 -0.00000000 -0.00000000 -0.00000000 -0.00000000 -0.00000000 -0.00000000
    Gval -0.00000000 -0.00000000 -0.00000000 -0.00000000 -0.00000000 -0.00000000 -0.00000000 -0.00000000
    Gval -0.00000000 -0.00000000 -0.00000000 -0.00000000 -0.00000000 -0.00000000 -0.00000000 -0.00000000
    Gval -0.00000000 -0.00000000 -0.00000000 -0.00000000 -0.00000000 -0.00000000 -0.00000000 -0.00000000
    Gval -0.00000000 -0.00000000 -0.00000000 -0.00000000 -0.00000000 -0.00000000 -0.00000000 -0.00000000
    Gval -0.00000000 -0.00000000 -0.00000000 -0.00000000 -0.00000000 -0.00000000 -0.00000000 -0.00000000
    Gval -0.00000000 -0.00000000 -0.00000000 -0.00000000 -0.00000000 -0.00000000 -0.00000000 -0.00000000
    Gval -0.00000000 -0.00000000 -0.00000000 -0.00000000 -0.00000000 -0.00000000 -0.00000000 -0.00000000
    Gval -0.00000000 -0.00000000 -0.00000000 -0.00000000 -0.00000000 -0.00000000 -0.00000000 -0.00000000
    Gval -0.00000000 -0.00000000 -0.00000000 -0.00000000 -0.00000000 -0.00000000 -0.00000000  0.00000000
    Gval  0.00000000  0.00000000  0.00000000  0.00000000  0.00000000  0.00000000  0.00000000  0.00000000
    Gval  0.00000000  0.00000000  0.00000000  0.00000000  0.00000000  0.00000000  0.00000000  0.00000000
    Gval  0.00000000  0.00000000  0.00000000  0.00000000  0.00000000  0.00000000  0.00000000  0.00000000
    Gval  0.00000000  0.00000000  0.00000000  0.00000000  0.00000000  0.00000000  0.00000000  0.00000000
    Gval  0.00000000  0.00000000  0.00000000  0.00000000  0.00000000  0.00000000  0.00000000  0.00000000
    Gval  0.00000000  0.00000000  0.00000000  0.00000000  0.00000000  0.00000000  0.00000000  0.00000000
    Gval  0.00000000  0.00000000  0.00000000  0.00000000  0.00000000  0.00000000  0.00000000  0.00000000
    Gval  0.00000000  0.00000000  0.00000000  0.00000000  0.00000000  0.00000000  0.00000000  0.00000000
    Gval  0.00000000  0.00000000  0.00000000  0.00000000  0.00000000  0.00000000  0.00000000  0.00000000
    Gval  0.00000000  0.00000000  0.00000000  0.00000000  0.00000000  0.00000000  0.00000000  0.00000000
    Gval  0.00000000  0.00000000  0.00000000  0.00000000  0.00000000  0.00000000  0.00000000  0.00000000
    Gval  0.00000000  0.00000000  0.00000000  0.00000000  0.00000000  0.00000000  0.00000000  0.00000000
    Gval  0.00000000  0.00000000  0.00000000  0.00000000  0.00000000  0.00000000  0.00000000  0.00000000
    Gval  0.00000009  0.00000031  0.00000067  0.00000101  0.00000235  0.00000279  0.00000308  0.00000335
    Gval  0.00000560  0.00000800  0.00000846  0.00001037  0.00001176  0.00001226  0.00001289  0.00001572
    Gval  0.00001645  0.00001703  0.00001769  0.00001798  0.00001840  0.00002101  0.00002219  0.00002400
    Gval  0.00002423  0.00002544  0.00002986  0.00003060  0.00003145  0.00003610  0.00003668  0.00003929
    Gval  0.00003994  0.00004766  0.00004862  0.00004885  0.00005067  0.00005146  0.00005324  0.00005670
    Gval  0.00005703  0.00006031  0.00006267  0.00006835  0.00007025  0.00007086  0.00007374  0.00008055
    Gval  0.00008148  0.00008242  0.00008536  0.00008640  0.00008714  0.00009299  0.00009500  0.00009575
    Gval  0.00010306  0.00010329  0.00010707  0.00011498  0.00011535  0.00011908  0.00012247  0.00013445
    Gval  0.00013632  0.00013723  0.00014037  0.00014966  0.00015487  0.00015751  0.00015899  0.00016689
    Gval  0.00017693  0.00018126  0.00019354  0.00019815  0.00021948  0.00022166  0.00022526  0.00023011
    Gval  0.00023056  0.00025386  0.00026639  0.00028066  0.00028766  0.00029075  0.00029696  0.00030801
    Gval  0.00030981  0.00034081  0.00034234  0.00035919  0.00036743  0.00037153  0.00038269  0.00038944
    Gval  0.00039263  0.00040418  0.00041018  0.00042022  0.00042553  0.00043089  0.00043170  0.00043548
    Gval  0.00044063  0.00044216  0.00046220  0.00046761  0.00046893  0.00049568  0.00051979  0.00053411
    Gval  0.00053716  0.00055044  0.00055410  0.00055602  0.00055616  0.00059068  0.00059644  0.00059660
    Gval  0.00059850  0.00059923  0.00059957  0.00059984  0.00060219  0.00060552  0.00061652  0.00062294
    Gval  0.00063065  0.00063529  0.00064077  0.00064422  0.00064504  0.00064683  0.00066256  0.00067083
    Gval  0.00067707  0.00069407  0.00069775  0.00079971  0.00081580  0.00094014  0.00097525  0.00099996
    Gval  0.00103596  0.00108146  0.00109229  0.00109334  0.00109429  0.00109495  0.00109547  0.00114168
    Gval  0.00114286  0.00115270  0.00116531  0.00116562  0.00116583  0.00116617  0.00117126  0.00117185
    Gval  0.00118649  0.00118793  0.00120920  0.00126168  0.00129197  0.00129544  0.00138259  0.00148116
    Gval  0.00156385  0.00171585  0.00177651  0.00191748  0.00208468  0.00228107  0.00233937  0.00251983
    Gval  0.00252265  0.00255784  0.00264361  0.00279144  0.00291892  0.00292169  0.00294237  0.00302348
    Gval  0.00304208  0.00308122  0.00309621  0.00353262  0.00365540  0.00367381  0.00367627  0.00372076
    Gval  0.00372288  0.00394555  0.00397044
  8.556927355406895E-008  8.556927355406895E-008
  3.136993166144415E-007  8.556927355406895E-008
  6.700655768237958E-007  8.556927355406895E-008
  1.013546412379228E-006  8.556927355406895E-008
  2.345551337417100E-006  8.556927355406895E-008
  2.793605678336075E-006  8.556927355406895E-008
  3.083465158034772E-006  8.556927355406895E-008
  3.347680172544045E-006  8.556927355406895E-008
  5.598841202472251E-006  8.556927355406895E-008
  7.995939260557234E-006  8.556927355406895E-008
  8.463125660687998E-006  8.556927355406895E-008
  1.036825124415421E-005  8.556927355406895E-008
  1.175748470927706E-005  8.556927355406895E-008
  1.225529179590690E-005  8.556927355406895E-008
  1.288580739885359E-005  8.556927355406895E-008
  1.571905180532058E-005  8.556927355406895E-008
  1.644647880571748E-005  8.556927355406895E-008
  1.703091143284842E-005  8.556927355406895E-008
  1.768708624828589E-005  8.556927355406895E-008
  1.797698802812502E-005  8.556927355406895E-008
  1.840158805488906E-005  8.556927355406895E-008
  2.101267102622842E-005  8.556927355406895E-008
  2.219198159749365E-005  8.556927355406895E-008
  2.399881446495693E-005  8.556927355406895E-008
  2.422689615471179E-005  8.556927355406895E-008
  2.543708569654041E-005  8.556927355406895E-008
  2.986039555255279E-005  8.556927355406895E-008
  3.060337408554941E-005  8.556927355406895E-008
  3.144614133260171E-005  8.556927355406895E-008
  3.610472788736910E-005  8.556927355406895E-008
  3.667685708142979E-005  8.556927355406895E-008
  3.928742358740351E-005  8.556927355406895E-008
  3.994058198588993E-005  8.556927355406895E-008
  4.765785944449341E-005  8.556927355406895E-008
  4.862395667855469E-005  8.556927355406895E-008
  4.884597656636373E-005  8.556927355406895E-008
  5.067217405743548E-005  8.556927355406895E-008
  5.146464035048429E-005  8.556927355406895E-008
  5.323957927372894E-005  8.556927355406895E-008
  5.670151431575310E-005  8.556927355406895E-008
  5.703042668199342E-005  8.556927355406895E-008
  6.030765249275588E-005  8.556927355406895E-008
  6.267046568304973E-005  8.556927355406895E-008
  6.835382664691470E-005  8.556927355406895E-008
  7.025201712994825E-005  8.556927355406895E-008
  7.086178692143055E-005  8.556927355406895E-008
  7.373860734530779E-005  8.556927355406895E-008
  8.055394312979572E-005  8.556927355406895E-008
  8.147871148701448E-005  8.556927355406895E-008
  8.242381048310512E-005  8.556927355406895E-008
  8.536183216803935E-005  8.556927355406895E-008
  8.639952312674153E-005  8.556927355406895E-008
  8.713646873708737E-005  8.556927355406895E-008
  9.299413882128513E-005  8.556927355406895E-008
  9.499868192339841E-005  8.556927355406895E-008
  9.574655291700634E-005  8.556927355406895E-008
  1.030563451970959E-004  8.556927355406895E-008
  1.032929452019188E-004  8.556927355406895E-008
  1.070724662166278E-004  8.556927355406895E-008
  1.149835251276280E-004  8.556927355406895E-008
  1.153490152263136E-004  8.556927355406895E-008
  1.190820039255554E-004  8.556927355406895E-008
  1.224710990483896E-004  8.556927355406895E-008
  1.344465091805541E-004  8.556927355406895E-008
  1.363236942842436E-004  8.556927355406895E-008
  1.372281571146823E-004  8.556927355406895E-008
  1.403711582347665E-004  8.556927355406895E-008
  1.496603083306361E-004  8.556927355406895E-008
  1.548706064692651E-004  8.556927355406895E-008
  1.575068674174043E-004  8.556927355406895E-008
  1.589924452003873E-004  8.556927355406895E-008
  1.668944824796818E-004  8.556927355406895E-008
  1.769335324743268E-004  8.556927355406895E-008
  1.812604711772304E-004  8.556927355406895E-008
  1.935376661844191E-004  8.556927355406895E-008
  1.981460370968140E-004  8.556927355406895E-008
  2.194831206715517E-004  8.556927355406895E-008
  2.216605775314053E-004  8.556927355406895E-008
  2.252566063170098E-004  8.556927355406895E-008
  2.301103673186727E-004  8.556927355406895E-008
  2.305584326320242E-004  8.556927355406895E-008
  2.538596886437514E-004  8.556927355406895E-008
  2.663926631680420E-004  8.556927355406895E-008
  2.806591663570230E-004  8.556927355406895E-008
  2.876645186139206E-004  8.556927355406895E-008
  2.907462021849859E-004  8.556927355406895E-008
  2.969559939281874E-004  8.556927355406895E-008
  3.080091337474305E-004  8.556927355406895E-008
  3.098088988954121E-004  8.556927355406895E-008
  3.408073171718604E-004  8.556927355406895E-008
  3.423399373162371E-004  8.556927355406895E-008
  3.591934170441168E-004  8.556927355406895E-008
  3.674294453618632E-004  8.556927355406895E-008
  3.715329296309712E-004  8.556927355406895E-008
  3.826942739003494E-004  8.556927355406895E-008
  3.894393936684480E-004  8.556927355406895E-008
  3.926315419497142E-004  8.556927355406895E-008
  4.041817109967355E-004  8.556927355406895E-008
  4.101845414485654E-004  8.556927355406895E-008
  4.202188546910554E-004  8.556927355406895E-008
  4.255336520670724E-004  8.556927355406895E-008
  4.308860085809371E-004  8.556927355406895E-008
  4.316955299861861E-004  8.556927355406895E-008
  4.354761467779109E-004  8.556927355406895E-008
  4.406251874385610E-004  8.556927355406895E-008
  4.421642482808665E-004  8.556927355406895E-008
  4.621967038681454E-004  8.556927355406895E-008
  4.676137926458695E-004  8.556927355406895E-008
  4.689307599256442E-004  8.556927355406895E-008
  4.956817478959720E-004  8.556927355406895E-008
  5.197929061742549E-004  8.556927355406895E-008
  5.341122304254811E-004  8.556927355406895E-008
  5.371614986614771E-004  8.556927355406895E-008
  5.504447538145910E-004  8.556927355406895E-008
  5.541009408137445E-004  8.556927355406895E-008
  5.560150632837741E-004  8.556927355406895E-008
  5.561632239780538E-004  8.556927355406895E-008
  5.906784637503098E-004  8.556927355406895E-008
  5.964439171033294E-004  8.556927355406895E-008
  5.966045551315373E-004  8.556927355406895E-008
  5.984950703217563E-004  8.556927355406895E-008
  5.992301119473686E-004  8.556927355406895E-008
  5.995665600456454E-004  8.556927355406895E-008
  5.998417562523152E-004  8.556927355406895E-008
  6.021857461385549E-004  8.556927355406895E-008
  6.055232736032442E-004  8.556927355406895E-008
  6.165248781776140E-004  8.556927355406895E-008
  6.229449918573279E-004  8.556927355406895E-008
  6.306511533293561E-004  8.556927355406895E-008
  6.352941838685723E-004  8.556927355406895E-008
  6.407653196032364E-004  8.556927355406895E-008
  6.442221432202958E-004  8.556927355406895E-008
  6.450381842994456E-004  8.556927355406895E-008
  6.468262681746396E-004  8.556927355406895E-008
  6.625613358130854E-004  8.556927355406895E-008
  6.708320370893936E-004  8.556927355406895E-008
  6.770656278091672E-004  8.556927355406895E-008
  6.940747107845814E-004  8.556927355406895E-008
  6.977459225301302E-004  8.556927355406895E-008
  7.997105660296188E-004  8.556927355406895E-008
  8.157989807921160E-004  8.556927355406895E-008
  9.401410408172008E-004  8.556927355406895E-008
  9.752474088837073E-004  8.556927355406895E-008
  9.999569778470071E-004  8.556927355406895E-008
  1.035964472710211E-003  8.556927355406895E-008
  1.081459909532262E-003  8.556927355406895E-008
  1.092290584874714E-003  8.556927355406895E-008
  1.093340895422274E-003  8.556927355406895E-008
  1.094289877981100E-003  8.556927355406895E-008
  1.094945567029810E-003  8.556927355406895E-008
  1.095467413573858E-003  8.556927355406895E-008
  1.141675592203332E-003  8.556927355406895E-008
  1.142861949174013E-003  8.556927355406895E-008
  1.152699863791587E-003  8.556927355406895E-008
  1.165305500579855E-003  8.556927355406895E-008
  1.165616487329197E-003  8.556927355406895E-008
  1.165826813314986E-003  8.556927355406895E-008
  1.166173896877681E-003  8.556927355406895E-008
  1.171259255944289E-003  8.556927355406895E-008
  1.171853178354146E-003  8.556927355406895E-008
  1.186485365701040E-003  8.556927355406895E-008
  1.187934146081698E-003  8.556927355406895E-008
  1.209202901771382E-003  8.556927355406895E-008
  1.261678536475524E-003  8.556927355406895E-008
  1.291970042580381E-003  8.556927355406895E-008
  1.295435955355236E-003  8.556927355406895E-008
  1.382585130254482E-003  8.556927355406895E-008
  1.481158704082935E-003  8.556927355406895E-008
  1.563846891299260E-003  8.556927355406895E-008
  1.715854546959797E-003  8.556927355406895E-008
  1.776508899916858E-003  8.556927355406895E-008
  1.917484195271130E-003  8.556927355406895E-008
  2.084683642310859E-003  8.556927355406895E-008
  2.281070475383294E-003  8.556927355406895E-008
  2.339365836808897E-003  8.556927355406895E-008
  2.519825173973907E-003  8.556927355406895E-008
  2.522647387005408E-003  8.556927355406895E-008
  2.557839409729788E-003  8.556927355406895E-008
  2.643609305270556E-003  8.556927355406895E-008
  2.791438120863953E-003  8.556927355406895E-008
  2.918921513950964E-003  8.556927355406895E-008
  2.921693634086754E-003  8.556927355406895E-008
  2.942368202751441E-003  8.556927355406895E-008
  3.023477922120239E-003  8.556927355406895E-008
  3.042079735728227E-003  8.556927355406895E-008
  3.081216582651583E-003  8.556927355406895E-008
  3.096211391614216E-003  8.556927355406895E-008
  3.532619347081937E-003  8.556927355406895E-008
  3.655398088307108E-003  8.556927355406895E-008
  3.673811727908859E-003  8.556927355406895E-008
  3.676271752636886E-003  8.556927355406895E-008
  3.720759671789598E-003  8.556927355406895E-008
  3.722877465776818E-003  8.556927355406895E-008
  3.945546841864935E-003  8.556927355406895E-008
  3.970441982372946E-003  8.556927355406895E-008
 cut=1d-8, nber non-redundant internal coords=         195
 Check on Eigenvals of non-red overlap matrix:
  0.00000009  0.00000031  0.00000067  0.00000101  0.00000235  0.00000279  0.00000308  0.00000335
  0.00000560  0.00000800  0.00000846  0.00001037  0.00001176  0.00001226  0.00001289  0.00001572
  0.00001645  0.00001703  0.00001769  0.00001798  0.00001840  0.00002101  0.00002219  0.00002400
  0.00002423  0.00002544  0.00002986  0.00003060  0.00003145  0.00003610  0.00003668  0.00003929
  0.00003994  0.00004766  0.00004862  0.00004885  0.00005067  0.00005146  0.00005324  0.00005670
  0.00005703  0.00006031  0.00006267  0.00006835  0.00007025  0.00007086  0.00007374  0.00008055
  0.00008148  0.00008242  0.00008536  0.00008640  0.00008714  0.00009299  0.00009500  0.00009575
  0.00010306  0.00010329  0.00010707  0.00011498  0.00011535  0.00011908  0.00012247  0.00013445
  0.00013632  0.00013723  0.00014037  0.00014966  0.00015487  0.00015751  0.00015899  0.00016689
  0.00017693  0.00018126  0.00019354  0.00019815  0.00021948  0.00022166  0.00022526  0.00023011
  0.00023056  0.00025386  0.00026639  0.00028066  0.00028766  0.00029075  0.00029696  0.00030801
  0.00030981  0.00034081  0.00034234  0.00035919  0.00036743  0.00037153  0.00038269  0.00038944
  0.00039263  0.00040418  0.00041018  0.00042022  0.00042553  0.00043089  0.00043170  0.00043548
  0.00044063  0.00044216  0.00046220  0.00046761  0.00046893  0.00049568  0.00051979  0.00053411
  0.00053716  0.00055044  0.00055410  0.00055602  0.00055616  0.00059068  0.00059644  0.00059660
  0.00059850  0.00059923  0.00059957  0.00059984  0.00060219  0.00060552  0.00061652  0.00062294
  0.00063065  0.00063529  0.00064077  0.00064422  0.00064504  0.00064683  0.00066256  0.00067083
  0.00067707  0.00069407  0.00069775  0.00079971  0.00081580  0.00094014  0.00097525  0.00099996
  0.00103596  0.00108146  0.00109229  0.00109334  0.00109429  0.00109495  0.00109547  0.00114168
  0.00114286  0.00115270  0.00116531  0.00116562  0.00116583  0.00116617  0.00117126  0.00117185
  0.00118649  0.00118793  0.00120920  0.00126168  0.00129197  0.00129544  0.00138259  0.00148116
  0.00156385  0.00171585  0.00177651  0.00191748  0.00208468  0.00228107  0.00233937  0.00251983
  0.00252265  0.00255784  0.00264361  0.00279144  0.00291892  0.00292169  0.00294237  0.00302348
  0.00304208  0.00308122  0.00309621  0.00353262  0.00365540  0.00367381  0.00367627  0.00372076
  0.00372288  0.00394555  0.00397044
 Checking for correct frequencies
 recalc frequencies=
    -0.0   -0.0    0.0    0.0    0.0    0.0    7.7   15.9   17.6   24.8
    29.9   38.8   54.7   59.0   68.7   74.8   88.2   94.3  106.3  106.5
   129.9  137.3  167.7  172.1  185.3  193.0  201.2  208.2  212.3  220.5
   234.0  235.5  237.8  253.6  256.1  289.9  301.9  304.0  322.0  345.5
   347.6  368.9  390.0  395.7  410.9  417.6  419.3  431.7  438.9  440.6
   447.2  447.9  466.2  467.5  471.8  480.6  484.1  499.1  500.6  505.9
   513.2  543.5  551.6  571.1  574.5  576.6  595.9  604.7  615.8  619.9
   632.2  632.9  652.0  665.0  677.2  677.8  699.2  700.8  708.4  718.5
   727.1  743.6  750.1  757.7  763.7  765.5  801.9  807.7  809.4  811.9
   815.3  824.8  826.5  832.3  840.6  844.7  857.8  875.1  901.3  907.2
   914.1  920.2  935.4  945.1  953.7  956.7  962.0  974.9  976.7  988.0
   988.9 1026.4 1030.2 1062.6 1091.9 1092.9 1104.4 1126.7 1137.7 1155.4
  1158.2 1161.4 1170.3 1181.7 1185.7 1195.6 1197.6 1212.5 1223.7 1226.7
  1232.6 1241.7 1244.0 1253.3 1281.1 1295.4 1312.8 1318.2 1320.4 1327.2
  1340.6 1352.7 1364.3 1366.8 1371.5 1380.3 1382.1 1392.2 1400.1 1401.8
  1404.9 1416.1 1430.0 1438.6 1447.4 1450.7 1460.8 1466.3 1484.8 1493.4
  1497.5 1500.1 1505.2 1510.4 1522.6 1531.3 1546.0 1553.8 1571.3 1582.1
  1599.6 1601.0 1620.5 1648.0 1657.5 1686.2 1690.2 1725.0 1732.2 3034.4
  3038.5 3092.4 3095.6 3112.5 3125.8 3132.5 3136.8 3142.9 3198.2 3198.7
  3205.8 3206.2 3208.1 3212.7 3213.5 3213.9 3216.9 3223.7 3224.3 3239.0
  3244.9
 recalc symmetries=
                                                                       
                                                                       
                                                                       
                                                                       
                                                                       
                                                                       
                                                                       
                                                                       
                                                                       
                                                                       
                                                                       
                                                                       
                                                                       
                                                                       
                                                                       
                                                                       
                                                                       
                                                                       
                                                                       
                                                                       
        
 recalc freqs check OK
 Zero-point lengths:
 10.0000 10.0000 10.0000 10.0000 10.0000 10.0000 89.3102 62.1410 59.1261 49.8148
 45.3430 39.8005 33.5139 32.2843 29.9086 28.6591 26.4026 25.5340 24.0432 24.0197
 21.7513 21.1605 19.1453 18.8975 18.2120 17.8472 17.4775 17.1808 17.0147 16.6962
 16.2069 16.1556 16.0770 15.5667 15.4928 14.5605 14.2672 14.2185 13.8154 13.3373
 13.2969 12.9069 12.5532 12.4629 12.2301 12.1318 12.1063 11.9324 11.8339 11.8111
 11.7230 11.7143 11.4816 11.4657 11.4135 11.3081 11.2674 11.0974 11.0802 11.0222
 10.9437 10.6343 10.5554 10.3739 10.3427 10.3243 10.1560 10.0813  9.9898  9.9568
  9.8595  9.8545  9.7087  9.6133  9.5263  9.5222  9.3758  9.3650  9.3143  9.2488
  9.1939  9.0916  9.0517  9.0064  8.9711  8.9600  8.7545  8.7233  8.7139  8.7003
  8.6823  8.6321  8.6234  8.5932  8.5508  8.5299  8.4647  8.3807  8.2579  8.2309
  8.1996  8.1725  8.1059  8.0641  8.0277  8.0152  7.9928  7.9401  7.9324  7.8872
  7.8833  7.7383  7.7238  7.6052  7.5025  7.4992  7.4597  7.3857  7.3501  7.2933
  7.2845  7.2747  7.2469  7.2118  7.1995  7.1697  7.1637  7.1197  7.0869  7.0783
  7.0612  7.0354  7.0289  7.0027  6.9265  6.8879  6.8423  6.8281  6.8224  6.8050
  6.7710  6.7405  6.7119  6.7057  6.6941  6.6729  6.6684  6.6443  6.6254  6.6214
  6.6141  6.5878  6.5558  6.5362  6.5163  6.5088  6.4864  6.4742  6.4336  6.4151
  6.4063  6.4007  6.3900  6.3790  6.3534  6.3353  6.3050  6.2893  6.2541  6.2328
  6.1985  6.1959  6.1585  6.1069  6.0893  6.0372  6.0302  5.9689  5.9566  4.5005
  4.4975  4.4581  4.4558  4.4436  4.4342  4.4294  4.4264  4.4221  4.3837  4.3834
  4.3785  4.3782  4.3770  4.3738  4.3733  4.3730  4.3710  4.3664  4.3659  4.3561
  4.3521
 highest evec of mol 1
  0.0000 -0.0000 -0.0000
 -0.0000 -0.0000 -0.0000
  0.0000 -0.0000 -0.0000
 -0.0000 -0.0000  0.0000
  0.0000 -0.0000 -0.0000
 -0.0000 -0.0000  0.0000
 -0.0000 -0.0000  0.0000
  0.0000  0.0000 -0.0000
  0.0000  0.0000 -0.0000
 -0.0000 -0.0000  0.0000
  0.0000  0.0000 -0.0000
 -0.0000 -0.0001  0.0000
 -0.0000  0.0000  0.0001
  0.0000 -0.0001 -0.0001
 -0.0001  0.0000  0.0002
  0.0000 -0.0000 -0.0000
  0.0000 -0.0001 -0.0002
 -0.0006 -0.0007  0.0013
 -0.0009 -0.0014  0.0016
  0.0000 -0.0000 -0.0000
 -0.0001 -0.0003  0.0002
  0.0001  0.0005  0.0001
 -0.0009 -0.0017  0.0015
  0.0008 -0.0017 -0.0029
  0.0009  0.0015 -0.0016
 -0.0570  0.1609  0.2267
 -0.0344 -0.0686  0.0552
  0.0024 -0.0015 -0.0070
 -0.0001  0.0002  0.0003
  0.0000  0.0002  0.0001
 -0.0000 -0.0001 -0.0000
 -0.0000 -0.0000  0.0000
 -0.0001 -0.0001  0.0001
 -0.0000 -0.0001  0.0001
  0.0000  0.0000 -0.0001
  0.0000  0.0001  0.0000
 -0.0001 -0.0001  0.0001
 -0.0000 -0.0001  0.0000
  0.0000  0.0001  0.0000
  0.0000 -0.0001 -0.0001
 -0.0000  0.0000  0.0000
 -0.0000  0.0000  0.0000
  0.0000  0.0000 -0.0000
 -0.0000  0.0000  0.0000
  0.0001  0.0001 -0.0001
 -0.0000  0.0001  0.0001
  0.0000 -0.0000 -0.0000
  0.0000 -0.0000 -0.0000
  0.0000  0.0001 -0.0000
  0.0000 -0.0000 -0.0000
 -0.0000  0.0001  0.0001
 -0.0000 -0.0000 -0.0000
 -0.0000 -0.0000  0.0001
 -0.0000 -0.0001  0.0000
  0.0001  0.0001 -0.0002
  0.0000  0.0000  0.0000
  0.0022  0.0031 -0.0040
  0.0030  0.0046 -0.0054
  0.0001  0.0002 -0.0003
  0.0003  0.0005 -0.0005
  0.0025  0.0042 -0.0045
  0.1983 -0.4846 -0.7515
  0.1018  0.1677 -0.1812
  0.0002  0.0002 -0.0003
  0.0000  0.0002 -0.0000
  0.0001  0.0001 -0.0003
  0.0001  0.0004 -0.0000
 generating redundant internal coords
         300        3600          67
 Adding extra bonds for z output only
           6           6           6           7           6           8
           6           6           6           6           6           6
           6           6           6           8           7           6
           6           6           6           6           6           6
          16           6           6           6          16           6
           8           6           6           6           6           6
           6           6           6           6           8           6
           6           6           6           1           1           1
           1           1           1           1           1           1
           1           1           1           1           1           1
           1           1           1           1           1           1
           1
 search for int coords
   1 str   2   1   1.532
   2 str   3   2   1.532
   3 str   4   2   1.498
   4 str   5   4   1.399
   5 str   6   5   1.222
   6 str   7   5   1.480
   7 str   8   7   1.400
   8 str   9   8   1.380
   9 str  10   9   1.422
  10 str  11  10   1.441
  11 str  12  11   1.422
  12 str  13  12   1.379
  13 str  14  13   1.401
  14 str  15  14   1.475
  15 str  16  15   1.220
  16 str  17  15   1.414
  17 str  18  17   1.415
  18 str  19  18   1.350
  19 str  20  19   1.440
  20 str  21  20   1.354
  21 str  22  21   1.439
  22 str  23  22   1.379
  23 str  24  23   1.415
  24 str  25  24   1.745
  25 str  26  25   1.749
  26 str  27  26   1.365
  27 str  28  24   1.390
  28 str  28  27   1.421
  29 str  29  22   1.774
  30 str  29  28   1.744
  31 str  30  17   1.431
  32 str  31  30   1.218
  33 str  32  30   1.469
  34 str  33  32   1.402
  35 str  34  33   1.379
  36 str  35  34   1.422
  37 str  36  35   1.441
  38 str  37  36   1.422
  39 str  38  37   1.380
  40 str  39  38   1.400
  41 str  40   4   1.408
  42 str  40  39   1.477
  43 str  41  40   1.221
  44 str  42   7   1.411
  45 str  42  39   1.410
  46 str  43  10   1.427
  47 str  43  36   1.427
  48 str  43  42   1.428
  49 str  44  11   1.427
  50 str  44  35   1.427
  51 str  45  14   1.411
  52 str  45  32   1.410
  53 str  45  44   1.428
  54 str  46   1   1.093
  55 str  47   1   1.089
  56 str  48   1   1.093
  57 str  49   2   1.088
  58 str  50   3   1.089
  59 str  51   3   1.093
  60 str  52   3   1.093
  61 str  53   8   1.082
  62 str  54   9   1.081
  63 str  55  12   1.081
  64 str  56  13   1.082
  65 str  57  18   1.081
  66 str  58  19   1.079
  67 str  59  20   1.088
  68 str  60  21   1.088
  69 str  61  23   1.082
  70 str  62  26   1.079
  71 str  63  27   1.081
  72 str  64  33   1.082
  73 str  65  34   1.081
  74 str  66  37   1.081
  75 str  67  38   1.082
 nber stretches=          75
  76 ben   1   2   3
  77 prop tor   1   2   3  50
  78 prop tor   1   2   3  51
  79 prop tor   1   2   3  52
  80 ben   1   2   4
  81 prop tor   1   2   4   5
  82 prop tor   1   2   4  40
  83 ben   1   2  49
  84 ben   2   1  46
  85 ben   2   1  47
  86 ben   2   1  48
  87 ben   2   3  50
  88 ben   2   3  51
  89 ben   2   3  52
  90 ben   2   4   5
  91 prop tor   2   4   5   6
  92 prop tor   2   4   5   7
  93 ben   2   4  40
  94 prop tor   2   4  40  39
  95 prop tor   2   4  40  41
  96 ben   3   2   4
  97 prop tor   3   2   4   5
  98 prop tor   3   2   4  40
  99 ben   3   2  49
 100 prop tor   4   2   3  50
 101 prop tor   4   2   3  51
 102 prop tor   4   2   3  52
 103 ben   4   2  49
 104 ben   4   5   6
 105 ben   4   5   7
 106 prop tor   4   5   7   8
 107 prop tor   4   5   7  42
 108 ben   4  40  39
 109 ben   4  40  41
 110 ben   5   4  40
 111 prop tor   5   4  40  39
 112 prop tor   5   4  40  41
 113 ben   5   7   8
 114 prop tor   5   7   8   9
 115 prop tor   5   7   8  53
 116 ben   5   7  42
 117 prop tor   5   7  42  39
 118 prop tor   5   7  42  43
 119 ben   6   5   7
 120 prop tor   6   5   7   8
 121 prop tor   6   5   7  42
 122 ben   7   8   9
 123 prop tor   7   8   9  10
 124 prop tor   7   8   9  54
 125 ben   7   8  53
 126 ben   7  42  39
 127 ben   7  42  43
 128 prop tor   7  42  43  10
 129 prop tor   7  42  43  36
 130 ben   8   7  42
 131 prop tor   8   7  42  39
 132 prop tor   8   7  42  43
 133 ben   8   9  10
 134 prop tor   8   9  10  11
 135 prop tor   8   9  10  43
 136 ben   8   9  54
 137 ben   9   8  53
 138 ben   9  10  11
 139 prop tor   9  10  11  12
 140 prop tor   9  10  11  44
 141 ben   9  10  43
 142 prop tor   9  10  43  36
 143 prop tor   9  10  43  42
 144 ben  10   9  54
 145 ben  10  11  12
 146 prop tor  10  11  12  13
 147 prop tor  10  11  12  55
 148 ben  10  11  44
 149 prop tor  10  11  44  35
 150 prop tor  10  11  44  45
 151 ben  10  43  36
 152 ben  10  43  42
 153 ben  11  10  43
 154 prop tor  11  10  43  36
 155 prop tor  11  10  43  42
 156 ben  11  12  13
 157 prop tor  11  12  13  14
 158 prop tor  11  12  13  56
 159 ben  11  12  55
 160 ben  11  44  35
 161 ben  11  44  45
 162 prop tor  11  44  45  14
 163 prop tor  11  44  45  32
 164 ben  12  11  44
 165 prop tor  12  11  44  35
 166 prop tor  12  11  44  45
 167 ben  12  13  14
 168 prop tor  12  13  14  15
 169 prop tor  12  13  14  45
 170 ben  12  13  56
 171 ben  13  12  55
 172 ben  13  14  15
 173 prop tor  13  14  15  16
 174 prop tor  13  14  15  17
 175 ben  13  14  45
 176 prop tor  13  14  45  32
 177 prop tor  13  14  45  44
 178 ben  14  13  56
 179 ben  14  15  16
 180 ben  14  15  17
 181 prop tor  14  15  17  18
 182 prop tor  14  15  17  30
 183 ben  14  45  32
 184 ben  14  45  44
 185 ben  15  14  45
 186 prop tor  15  14  45  32
 187 prop tor  15  14  45  44
 188 ben  15  17  18
 189 prop tor  15  17  18  19
 190 prop tor  15  17  18  57
 191 ben  15  17  30
 192 prop tor  15  17  30  31
 193 prop tor  15  17  30  32
 194 ben  16  15  17
 195 prop tor  16  15  17  18
 196 prop tor  16  15  17  30
 197 ben  17  18  19
 198 prop tor  17  18  19  20
 199 prop tor  17  18  19  58
 200 ben  17  18  57
 201 ben  17  30  31
 202 ben  17  30  32
 203 prop tor  17  30  32  33
 204 prop tor  17  30  32  45
 205 ben  18  17  30
 206 prop tor  18  17  30  31
 207 prop tor  18  17  30  32
 208 ben  18  19  20
 209 prop tor  18  19  20  21
 210 prop tor  18  19  20  59
 211 ben  18  19  58
 212 ben  19  18  57
 213 ben  19  20  21
 214 prop tor  19  20  21  22
 215 prop tor  19  20  21  60
 216 ben  19  20  59
 217 ben  20  19  58
 218 ben  20  21  22
 219 prop tor  20  21  22  23
 220 prop tor  20  21  22  29
 221 ben  20  21  60
 222 ben  21  20  59
 223 ben  21  22  23
 224 prop tor  21  22  23  24
 225 prop tor  21  22  23  61
 226 ben  21  22  29
 227 prop tor  21  22  29  28
 228 ben  22  21  60
 229 ben  22  23  24
 230 prop tor  22  23  24  25
 231 prop tor  22  23  24  28
 232 ben  22  23  61
 233 ben  22  29  28
 234 ben  23  22  29
 235 prop tor  23  22  29  28
 236 ben  23  24  25
 237 prop tor  23  24  25  26
 238 ben  23  24  28
 239 prop tor  23  24  28  27
 240 prop tor  23  24  28  29
 241 ben  24  23  61
 242 ben  24  25  26
 243 prop tor  24  25  26  27
 244 prop tor  24  25  26  62
 245 ben  24  28  27
 246 ben  24  28  29
 247 prop tor  24  28  29  22
 248 ben  25  24  28
 249 prop tor  25  24  28  27
 250 prop tor  25  24  28  29
 251 ben  25  26  27
 252 prop tor  25  26  27  28
 253 prop tor  25  26  27  63
 254 ben  25  26  62
 255 ben  26  27  28
 256 prop tor  26  27  28  24
 257 prop tor  26  27  28  29
 258 ben  26  27  63
 259 ben  27  26  62
 260 ben  27  28  29
 261 prop tor  27  28  29  22
 262 prop tor  28  24  25  26
 263 ben  28  27  63
 264 prop tor  29  22  23  24
 265 prop tor  29  22  23  61
 266 prop tor  30  17  18  19
 267 prop tor  30  17  18  57
 268 ben  30  32  33
 269 prop tor  30  32  33  34
 270 prop tor  30  32  33  64
 271 ben  30  32  45
 272 prop tor  30  32  45  14
 273 prop tor  30  32  45  44
 274 ben  31  30  32
 275 prop tor  31  30  32  33
 276 prop tor  31  30  32  45
 277 ben  32  33  34
 278 prop tor  32  33  34  35
 279 prop tor  32  33  34  65
 280 ben  32  33  64
 281 ben  32  45  44
 282 ben  33  32  45
 283 prop tor  33  32  45  14
 284 prop tor  33  32  45  44
 285 ben  33  34  35
 286 prop tor  33  34  35  36
 287 prop tor  33  34  35  44
 288 ben  33  34  65
 289 ben  34  33  64
 290 ben  34  35  36
 291 prop tor  34  35  36  37
 292 prop tor  34  35  36  43
 293 ben  34  35  44
 294 prop tor  34  35  44  11
 295 prop tor  34  35  44  45
 296 ben  35  34  65
 297 ben  35  36  37
 298 prop tor  35  36  37  38
 299 prop tor  35  36  37  66
 300 ben  35  36  43
 301 prop tor  35  36  43  10
 302 prop tor  35  36  43  42
 303 ben  35  44  45
 304 prop tor  35  44  45  14
 305 prop tor  35  44  45  32
 306 ben  36  35  44
 307 prop tor  36  35  44  11
 308 prop tor  36  35  44  45
 309 ben  36  37  38
 310 prop tor  36  37  38  39
 311 prop tor  36  37  38  67
 312 ben  36  37  66
 313 ben  36  43  42
 314 ben  37  36  43
 315 prop tor  37  36  43  10
 316 prop tor  37  36  43  42
 317 ben  37  38  39
 318 prop tor  37  38  39  40
 319 prop tor  37  38  39  42
 320 ben  37  38  67
 321 ben  38  37  66
 322 ben  38  39  40
 323 prop tor  38  39  40   4
 324 prop tor  38  39  40  41
 325 ben  38  39  42
 326 prop tor  38  39  42   7
 327 prop tor  38  39  42  43
 328 ben  39  38  67
 329 ben  39  40  41
 330 ben  39  42  43
 331 prop tor  39  42  43  10
 332 prop tor  39  42  43  36
 333 prop tor  40   4   5   6
 334 prop tor  40   4   5   7
 335 ben  40  39  42
 336 prop tor  40  39  42   7
 337 prop tor  40  39  42  43
 338 prop tor  42   7   8   9
 339 prop tor  42   7   8  53
 340 prop tor  42  39  40   4
 341 prop tor  42  39  40  41
 342 prop tor  43  10  11  12
 343 prop tor  43  10  11  44
 344 prop tor  43  36  37  38
 345 prop tor  43  36  37  66
 346 prop tor  44  11  12  13
 347 prop tor  44  11  12  55
 348 prop tor  44  35  36  37
 349 prop tor  44  35  36  43
 350 prop tor  45  14  15  16
 351 prop tor  45  14  15  17
 352 prop tor  45  32  33  34
 353 prop tor  45  32  33  64
 354 prop tor  46   1   2   3
 355 prop tor  46   1   2   4
 356 prop tor  46   1   2  49
 357 ben  46   1  47
 358 ben  46   1  48
 359 prop tor  47   1   2   3
 360 prop tor  47   1   2   4
 361 prop tor  47   1   2  49
 362 ben  47   1  48
 363 prop tor  48   1   2   3
 364 prop tor  48   1   2   4
 365 prop tor  48   1   2  49
 366 prop tor  49   2   3  50
 367 prop tor  49   2   3  51
 368 prop tor  49   2   3  52
 369 prop tor  49   2   4   5
 370 prop tor  49   2   4  40
 371 ben  50   3  51
 372 ben  50   3  52
 373 ben  51   3  52
 374 prop tor  53   8   9  10
 375 prop tor  53   8   9  54
 376 prop tor  54   9  10  11
 377 prop tor  54   9  10  43
 378 prop tor  55  12  13  14
 379 prop tor  55  12  13  56
 380 prop tor  56  13  14  15
 381 prop tor  56  13  14  45
 382 prop tor  57  18  19  20
 383 prop tor  57  18  19  58
 384 prop tor  58  19  20  21
 385 prop tor  58  19  20  59
 386 prop tor  59  20  21  22
 387 prop tor  59  20  21  60
 388 prop tor  60  21  22  23
 389 prop tor  60  21  22  29
 390 prop tor  61  23  24  25
 391 prop tor  61  23  24  28
 392 prop tor  62  26  27  28
 393 prop tor  62  26  27  63
 394 prop tor  63  27  28  24
 395 prop tor  63  27  28  29
 396 prop tor  64  33  34  35
 397 prop tor  64  33  34  65
 398 prop tor  65  34  35  36
 399 prop tor  65  34  35  44
 400 prop tor  66  37  38  39
 401 prop tor  66  37  38  67
 402 prop tor  67  38  39  40
 403 prop tor  67  38  39  42
 nber bend=             128
 nber lin bend=           0
 nber prop tor=         200
 nber impr tor=           0
 nber tot redund int=         403
 Reading file: 
 ./TT-PDI_4_C0S1.log                                                            
                                          
  Entering Gaussian System, Link 0=g16                                          
  
 Gaussian format, type: g94, g98, g03= F F F
  #P Geom=AllCheck Guess=TCheck SCRF=Check GenChk RB3LYP TD(FC,Read)/6-3    
 energy type= TD      
 Original G94 input coords:
  6  1.159990 -0.741090 -0.675053
  6  2.124386  0.101133  0.167593
  6  3.316280 -0.698525  0.705534
  7  2.561375  1.333400 -0.552856
  6  3.315992  1.205967 -1.729264
  8  3.618089  0.102391 -2.167648
  6  3.722612  2.449616 -2.403840
  6  4.473192  2.374924 -3.576950
  6  4.870950  3.524286 -4.234529
  6  4.538942  4.810133 -3.753169
  6  4.949184  6.021453 -4.432795
  6  5.711046  5.986232 -5.627037
  6  6.096730  7.137433 -6.266559
  6  5.746973  8.399147 -5.755521
  6  6.185139  9.573916 -6.478980
  8  6.838958  9.561364 -7.504339
  7  5.793241 10.853207 -5.903560
  6  6.134800 12.040497 -6.479911
  6  6.854557 12.310070 -7.622731
  6  7.052341 13.656648 -7.979368
  6  7.754748 14.067855 -9.100596
  6  7.975772 15.399264 -9.493749
  6  8.690153 15.805213-10.633605
  6  8.739369 17.191215-10.757788
 16  9.443916 18.303531-11.905795
  6  8.832444 19.650752-10.987025
  6  8.128157 19.291859 -9.864798
  6  8.073741 17.889579 -9.731947
 16  7.365443 16.798941 -8.578676
  6  4.997881 10.988351 -4.657297
  8  4.730006 12.108576 -4.269597
  6  4.619306  9.754095 -4.026189
  6  3.862425  9.815518 -2.840317
  6  3.471714  8.671951 -2.193926
  6  3.810435  7.385210 -2.687602
  6  3.400235  6.176326 -2.009398
  6  2.639407  6.197296 -0.818241
  6  2.253096  5.034410 -0.179149
  6  2.605604  3.786326 -0.694555
  6  2.177614  2.569868  0.011233
  8  1.518282  2.615321  1.041783
  6  3.365317  3.711248 -1.881972
  6  3.772107  4.910317 -2.554723
  6  4.578932  7.290655 -3.889871
  6  4.987967  8.497522 -4.567481
  1  0.756920 -1.549444 -0.057917
  1  1.659245 -1.175645 -1.540035
  1  0.319399 -0.132751 -1.019276
  1  1.572260  0.495824  1.017781
  1  3.905079 -1.131161 -0.102208
  1  2.947241 -1.506314  1.344309
  1  3.963276 -0.060865  1.313771
  1  4.734052  1.394939 -3.955869
  1  5.451258  3.418291 -5.140092
  1  6.000971  5.037473 -6.053902
  1  6.678554  7.097031 -7.178414
  1  5.748820 12.872683 -5.899255
  1  7.256309 11.514612 -8.229412
  1  6.623221 14.415719 -7.328198
  1  8.180450 13.305594 -9.746288
  1  9.137293 15.094758-11.314625
  1  9.032666 20.652381-11.336272
  1  7.682453 20.004400 -9.186165
  1  3.596812 10.790541 -2.452273
  1  2.892046  8.765052 -1.287403
  1  2.343188  7.140657 -0.382009
  1  1.670282  5.065544  0.732596
 nber atoms=          67
  Total Energy, E(TD-HF/TD-DFT) =  -2630.52206945                               
  
          32          49 "  -2630.52206945"
After scan for Atom:   Atom  AN      X      Y      Z        X      Y      Z        X      Y      Z   
After scan for Atom:   Atom  AN      X      Y      Z        X      Y      Z        X      Y      Z   
After scan for Atom:   Atom  AN      X      Y      Z        X      Y      Z        X      Y      Z   
After scan for Atom:   Atom  AN      X      Y      Z        X      Y      Z        X      Y      Z   
After scan for Atom:   Atom  AN      X      Y      Z        X      Y      Z        X      Y      Z   
After scan for Atom:   Atom  AN      X      Y      Z        X      Y      Z        X      Y      Z   
After scan for Atom:   Atom  AN      X      Y      Z        X      Y      Z        X      Y      Z   
After scan for Atom:   Atom  AN      X      Y      Z        X      Y      Z        X      Y      Z   
After scan for Atom:   Atom  AN      X      Y      Z        X      Y      Z        X      Y      Z   
After scan for Atom:   Atom  AN      X      Y      Z        X      Y      Z        X      Y      Z   
After scan for Atom:   Atom  AN      X      Y      Z        X      Y      Z        X      Y      Z   
After scan for Atom:   Atom  AN      X      Y      Z        X      Y      Z        X      Y      Z   
After scan for Atom:   Atom  AN      X      Y      Z        X      Y      Z        X      Y      Z   
After scan for Atom:   Atom  AN      X      Y      Z        X      Y      Z        X      Y      Z   
After scan for Atom:   Atom  AN      X      Y      Z        X      Y      Z        X      Y      Z   
After scan for Atom:   Atom  AN      X      Y      Z        X      Y      Z        X      Y      Z   
After scan for Atom:   Atom  AN      X      Y      Z        X      Y      Z        X      Y      Z   
After scan for Atom:   Atom  AN      X      Y      Z        X      Y      Z        X      Y      Z   
After scan for Atom:   Atom  AN      X      Y      Z        X      Y      Z        X      Y      Z   
After scan for Atom:   Atom  AN      X      Y      Z        X      Y      Z        X      Y      Z   
After scan for Atom:   Atom  AN      X      Y      Z        X      Y      Z        X      Y      Z   
After scan for Atom:   Atom  AN      X      Y      Z        X      Y      Z        X      Y      Z   
After scan for Atom:   Atom  AN      X      Y      Z        X      Y      Z        X      Y      Z   
After scan for Atom:   Atom  AN      X      Y      Z        X      Y      Z        X      Y      Z   
After scan for Atom:   Atom  AN      X      Y      Z        X      Y      Z        X      Y      Z   
After scan for Atom:   Atom  AN      X      Y      Z        X      Y      Z        X      Y      Z   
After scan for Atom:   Atom  AN      X      Y      Z        X      Y      Z        X      Y      Z   
After scan for Atom:   Atom  AN      X      Y      Z        X      Y      Z        X      Y      Z   
After scan for Atom:   Atom  AN      X      Y      Z        X      Y      Z        X      Y      Z   
After scan for Atom:   Atom  AN      X      Y      Z        X      Y      Z        X      Y      Z   
After scan for Atom:   Atom  AN      X      Y      Z        X      Y      Z        X      Y      Z   
After scan for Atom:   Atom  AN      X      Y      Z        X      Y      Z        X      Y      Z   
After scan for Atom:   Atom  AN      X      Y      Z        X      Y      Z        X      Y      Z   
After scan for Atom:   Atom  AN      X      Y      Z        X      Y      Z        X      Y      Z   
After scan for Atom:   Atom  AN      X      Y      Z        X      Y      Z        X      Y      Z   
After scan for Atom:   Atom  AN      X      Y      Z        X      Y      Z        X      Y      Z   
After scan for Atom:   Atom  AN      X      Y      Z        X      Y      Z        X      Y      Z   
After scan for Atom:   Atom  AN      X      Y      Z        X      Y      Z        X      Y      Z   
After scan for Atom:   Atom  AN      X      Y      Z        X      Y      Z        X      Y      Z   
After scan for Atom:   Atom  AN      X      Y      Z        X      Y      Z        X      Y      Z   
After scan for Atom:   Atom  AN      X      Y      Z        X      Y      Z        X      Y      Z   
After scan for Atom:   Atom  AN      X      Y      Z        X      Y      Z        X      Y      Z   
After scan for Atom:   Atom  AN      X      Y      Z        X      Y      Z        X      Y      Z   
After scan for Atom:   Atom  AN      X      Y      Z        X      Y      Z        X      Y      Z   
After scan for Atom:   Atom  AN      X      Y      Z        X      Y      Z        X      Y      Z   
After scan for Atom:   Atom  AN      X      Y      Z        X      Y      Z        X      Y      Z   
After scan for Atom:   Atom  AN      X      Y      Z        X      Y      Z        X      Y      Z   
After scan for Atom:   Atom  AN      X      Y      Z        X      Y      Z        X      Y      Z   
After scan for Atom:   Atom  AN      X      Y      Z        X      Y      Z        X      Y      Z   
After scan for Atom:   Atom  AN      X      Y      Z        X      Y      Z        X      Y      Z   
After scan for Atom:   Atom  AN      X      Y      Z        X      Y      Z        X      Y      Z   
After scan for Atom:   Atom  AN      X      Y      Z        X      Y      Z        X      Y      Z   
After scan for Atom:   Atom  AN      X      Y      Z        X      Y      Z        X      Y      Z   
After scan for Atom:   Atom  AN      X      Y      Z        X      Y      Z        X      Y      Z   
After scan for Atom:   Atom  AN      X      Y      Z        X      Y      Z        X      Y      Z   
After scan for Atom:   Atom  AN      X      Y      Z        X      Y      Z        X      Y      Z   
After scan for Atom:   Atom  AN      X      Y      Z        X      Y      Z        X      Y      Z   
After scan for Atom:   Atom  AN      X      Y      Z        X      Y      Z        X      Y      Z   
After scan for Atom:   Atom  AN      X      Y      Z        X      Y      Z        X      Y      Z   
After scan for Atom:   Atom  AN      X      Y      Z        X      Y      Z        X      Y      Z   
After scan for Atom:   Atom  AN      X      Y      Z        X      Y      Z        X      Y      Z   
After scan for Atom:   Atom  AN      X      Y      Z        X      Y      Z        X      Y      Z   
After scan for Atom:   Atom  AN      X      Y      Z        X      Y      Z        X      Y      Z   
After scan for Atom:   Atom  AN      X      Y      Z        X      Y      Z        X      Y      Z   
After scan for Atom:   Atom  AN      X      Y      Z        X      Y      Z        X      Y      Z   
 g94    frequencies=
     0.0    0.0    0.0    0.0    0.0    0.0    6.5   17.7   17.9   24.4
    27.9   37.2   55.3   59.4   69.6   77.0   88.2   95.0  103.9  111.3
   131.1  163.6  169.3  180.5  194.9  195.1  207.5  211.8  214.8  220.4
   234.7  235.0  258.4  258.6  262.3  291.1  296.0  307.5  335.1  344.4
   350.9  376.6  395.7  398.7  417.2  423.6  424.1  434.7  442.4  450.0
   453.4  453.6  458.4  467.5  469.5  481.3  495.5  501.9  507.3  514.3
   516.7  540.4  549.9  579.1  580.0  590.6  598.8  623.7  624.4  629.7
   633.9  661.4  663.8  668.6  675.1  712.2  719.3  730.0  732.1  747.8
   758.4  764.9  765.3  772.3  786.5  804.3  808.1  816.3  823.6  825.4
   827.6  829.9  833.3  838.4  845.6  847.3  889.4  894.3  903.2  917.3
   922.5  926.5  943.6  954.7  955.6  972.7  973.8  975.7  976.9  978.5
   986.1  989.3 1051.3 1053.2 1068.9 1094.3 1106.1 1125.1 1150.5 1155.1
  1160.7 1165.0 1174.8 1189.8 1193.8 1201.0 1216.1 1221.6 1226.9 1232.8
  1236.5 1250.3 1264.4 1282.2 1290.5 1295.8 1298.6 1304.4 1316.6 1326.6
  1348.5 1360.8 1364.5 1371.4 1372.9 1379.2 1384.2 1393.5 1397.3 1397.7
  1411.6 1418.3 1426.3 1440.3 1458.6 1464.7 1469.6 1475.0 1484.1 1484.7
  1486.7 1496.2 1497.9 1506.5 1523.5 1551.2 1558.5 1574.4 1588.4 1592.8
  1611.0 1615.4 1619.3 1626.3 1638.1 1684.0 1720.6 1786.7 1881.0 3029.7
  3034.3 3086.9 3090.1 3109.5 3131.8 3134.0 3141.6 3162.3 3167.5 3193.1
  3193.4 3199.1 3199.4 3208.9 3209.0 3221.8 3224.4 3224.5 3225.7 3247.5
  3250.0
 g94    symmetries=
                                                 A      A      A      A
       A      A      A      A      A      A      A      A      A      A
       A      A      A      A      A      A      A      A      A      A
       A      A      A      A      A      A      A      A      A      A
       A      A      A      A      A      A      A      A      A      A
       A      A      A      A      A      A      A      A      A      A
       A      A      A      A      A      A      A      A      A      A
       A      A      A      A      A      A      A      A      A      A
       A      A      A      A      A      A      A      A      A      A
       A      A      A      A      A      A      A      A      A      A
       A      A      A      A      A      A      A      A      A      A
       A      A      A      A      A      A      A      A      A      A
       A      A      A      A      A      A      A      A      A      A
       A      A      A      A      A      A      A      A      A      A
       A      A      A      A      A      A      A      A      A      A
       A      A      A      A      A      A      A      A      A      A
       A      A      A      A      A      A      A      A      A      A
       A      A      A      A      A      A      A      A      A      A
       A      A      A      A      A      A      A      A      A      A
       A      A      A      A      A      A      A      A      A      A
       A
 atomic masses:
 12.0000 12.0000 12.0000 14.0031 12.0000 15.9949 12.0000 12.0000 12.0000 12.0000
 12.0000 12.0000 12.0000 12.0000 12.0000 15.9949 14.0031 12.0000 12.0000 12.0000
 12.0000 12.0000 12.0000 12.0000 31.9721 12.0000 12.0000 12.0000 31.9721 12.0000
 15.9949 12.0000 12.0000 12.0000 12.0000 12.0000 12.0000 12.0000 12.0000 12.0000
 15.9949 12.0000 12.0000 12.0000 12.0000  1.0078  1.0078  1.0078  1.0078  1.0078
  1.0078  1.0078  1.0078  1.0078  1.0078  1.0078  1.0078  1.0078  1.0078  1.0078
  1.0078  1.0078  1.0078  1.0078  1.0078  1.0078  1.0078
 looking for force constants in 
 ./TT-PDI_4_C0S1.fchk                                                           
  
 Cartesian Force Constants                  R   N=       20301                  
  
 n3=         201       20301
 g94-fc frequencies=
    -5.1   -1.2   -0.6   -0.0    0.0    0.0    6.5   17.7   17.9   24.4
    27.9   37.2   55.3   59.4   69.6   77.0   88.2   95.1  103.9  111.3
   131.1  163.6  169.3  180.5  194.9  195.1  207.5  211.8  214.9  220.4
   234.7  235.0  258.4  258.6  262.3  291.2  296.0  307.5  335.1  344.4
   350.9  376.6  395.7  398.7  417.2  423.6  424.1  434.7  442.4  450.1
   453.4  453.6  458.4  467.5  469.5  481.3  495.6  501.9  507.3  514.3
   516.7  540.4  549.9  579.1  580.1  590.6  598.8  623.8  624.5  629.7
   633.9  661.4  663.9  668.6  675.1  712.2  719.3  730.0  732.1  747.8
   758.4  765.0  765.3  772.4  786.5  804.3  808.2  816.3  823.7  825.4
   827.7  829.9  833.3  838.4  845.6  847.3  889.4  894.3  903.2  917.3
   922.5  926.5  943.7  954.7  955.6  972.7  973.9  975.7  976.9  978.5
   986.1  989.3 1051.3 1053.2 1068.9 1094.3 1106.1 1125.2 1150.5 1155.1
  1160.7 1165.1 1174.8 1189.8 1193.8 1201.1 1216.1 1221.6 1226.9 1232.8
  1236.6 1250.3 1264.4 1282.3 1290.5 1295.8 1298.7 1304.4 1316.6 1326.6
  1348.6 1360.9 1364.6 1371.4 1372.9 1379.2 1384.2 1393.5 1397.3 1397.7
  1411.6 1418.4 1426.4 1440.4 1458.6 1464.8 1469.7 1475.1 1484.1 1484.7
  1486.8 1496.2 1497.9 1506.6 1523.6 1551.2 1558.5 1574.5 1588.4 1592.8
  1611.0 1615.5 1619.4 1626.4 1638.1 1684.1 1720.7 1786.7 1881.0 3029.7
  3034.4 3087.0 3090.2 3109.6 3131.9 3134.0 3141.7 3162.4 3167.6 3193.2
  3193.5 3199.1 3199.4 3209.0 3209.1 3221.9 3224.4 3224.6 3225.7 3247.5
  3250.1
 at 99999: n3=         201
 symm operator            1 :  F  nop=           0
 symm operator            2 :  F  nop=           0
 symm operator            3 :  F  nop=           0
 symm operator            4 :  F  nop=           0
 symm operator            5 :  F  nop=           0
 symm operator            6 :  F  nop=           0
 symm operator            7 :  F  nop=           0
 The point group of the molecule is  C1
 Symmetry rotation matrix:
   1.00000   0.00000   0.00000
   0.00000   1.00000   0.00000
   0.00000   0.00000   1.00000

 Projecting out zero-frequency components
 generating redundant internal coords
         300        3600          67
 search for int coords
   1 str   2   1   1.533
   2 str   3   2   1.533
   3 str   4   2   1.493
   4 str   5   4   1.403
   5 str   6   5   1.225
   6 str   7   5   1.472
   7 str   8   7   1.395
   8 str   9   8   1.383
   9 str  10   9   1.413
  10 str  11  10   1.448
  11 str  12  11   1.417
  12 str  13  12   1.372
  13 str  14  13   1.405
  14 str  15  14   1.448
  15 str  16  15   1.216
  16 str  17  15   1.456
  17 str  18  17   1.363
  18 str  19  18   1.377
  19 str  20  19   1.407
  20 str  21  20   1.386
  21 str  22  21   1.406
  22 str  23  22   1.405
  23 str  24  23   1.392
  24 str  25  24   1.747
  25 str  26  25   1.742
  26 str  27  26   1.373
  27 str  28  24   1.408
  28 str  28  27   1.410
  29 str  29  22   1.780
  30 str  29  28   1.738
  31 str  30  17   1.485
  32 str  31  30   1.215
  33 str  32  30   1.437
  34 str  33  32   1.408
  35 str  34  33   1.370
  36 str  35  34   1.419
  37 str  36  35   1.446
  38 str  37  36   1.414
  39 str  38  37   1.382
  40 str  39  38   1.396
  41 str  40   4   1.412
  42 str  40  39   1.470
  43 str  41  40   1.224
  44 str  42   7   1.411
  45 str  42  39   1.412
  46 str  43  10   1.426
  47 str  43  36   1.428
  48 str  43  42   1.434
  49 str  44  11   1.429
  50 str  44  35   1.430
  51 str  45  14   1.413
  52 str  45  32   1.417
  53 str  45  44   1.443
  54 str  46   1   1.094
  55 str  47   1   1.089
  56 str  48   1   1.093
  57 str  49   2   1.088
  58 str  50   3   1.089
  59 str  51   3   1.094
  60 str  52   3   1.093
  61 str  53   8   1.083
  62 str  54   9   1.081
  63 str  55  12   1.080
  64 str  56  13   1.082
  65 str  57  18   1.086
  66 str  58  19   1.078
  67 str  59  20   1.088
  68 str  60  21   1.086
  69 str  61  23   1.081
  70 str  62  26   1.080
  71 str  63  27   1.080
  72 str  64  33   1.082
  73 str  65  34   1.080
  74 str  66  37   1.081
  75 str  67  38   1.083
 nber stretches=          75
  76 ben   1   2   3
  77 prop tor   1   2   3  50
  78 prop tor   1   2   3  51
  79 prop tor   1   2   3  52
  80 ben   1   2   4
  81 prop tor   1   2   4   5
  82 prop tor   1   2   4  40
  83 ben   1   2  49
  84 ben   2   1  46
  85 ben   2   1  47
  86 ben   2   1  48
  87 ben   2   3  50
  88 ben   2   3  51
  89 ben   2   3  52
  90 ben   2   4   5
  91 prop tor   2   4   5   6
  92 prop tor   2   4   5   7
  93 ben   2   4  40
  94 prop tor   2   4  40  39
  95 prop tor   2   4  40  41
  96 ben   3   2   4
  97 prop tor   3   2   4   5
  98 prop tor   3   2   4  40
  99 ben   3   2  49
 100 prop tor   4   2   3  50
 101 prop tor   4   2   3  51
 102 prop tor   4   2   3  52
 103 ben   4   2  49
 104 ben   4   5   6
 105 ben   4   5   7
 106 prop tor   4   5   7   8
 107 prop tor   4   5   7  42
 108 ben   4  40  39
 109 ben   4  40  41
 110 ben   5   4  40
 111 prop tor   5   4  40  39
 112 prop tor   5   4  40  41
 113 ben   5   7   8
 114 prop tor   5   7   8   9
 115 prop tor   5   7   8  53
 116 ben   5   7  42
 117 prop tor   5   7  42  39
[...]
 nber times 1st assigned=         197           0
 nber times 1st assigned=         198           0
 nber times 1st assigned=         199           0
 nber times 1st assigned=         200           0
 nber times 1st assigned=         201           0
 modes represented=   197.379694009052     
 p1=
    0.   -0.   -0.   -0.    0.   -0.    6.   11. -143.    1.    1.   -0.    0.    0.  -18.    0.   -0.    0.   -0.  -23.
   20.    0.   -0.   -0.   -0.   -7.   -0.   -0.   -6.    0.    0.   -2.    0.   -2.    0.   -3.    0.   -3.   -0.    7.
    0.    3.   -0.    2.    0.    0.   -4.   -3.    1.   -2.    0.    1.    0.   -6.   -0.   -3.   -0.    0.    6.   -0.
   -4.    5.   -0.    0.   -0.    2.   -4.   -0.    1.   -0.    0.    3.    0.    1.   -0.   -0.   -0.    0.   -1.    0.
   -2.    0.   -0.    0.    0.    1.   -1.   -0.    1.    0.   -0.    0.   -0.    0.    1.    1.    0.    0.   -1.    0.
   -0.    0.    0.    0.   -0.   -0.   -1.   -0.   -0.   -0.   -0.    1.   -0.    0.   -1.    1.    1.    3.   -0.    0.
   -1.   -1.    0.    3.    0.    0.    0.   -0.   -1.   -1.   -0.   -1.   -1.   -0.   -0.    3.    2.   -1.    1.    2.
   -4.    1.   -3.   -1.   -3.   -0.   -0.   -0.   -0.   -1.    0.   -0.    0.   -1.   -0.    2.   -1.   -0.    0.    1.
   -0.   -1.   -0.   -0.   -0.    2.    0.   -1.    0.   -0.   -0.   -1.    0.    3.   -1.   -0.    1.   -1.    0.    0.
   -0.   -0.   -0.   -0.   -0.   -0.   -0.    0.   -0.    0.    0.   -0.    0.   -0.    0.    0.   -0.    0.    0.    0.
    0.
 p2=
   -0.    0.    0.    0.   -0.    0.    5. -146.   -4.   -1.   -0.    1.   -1.    0.   19.    0.   -0.    0.   -0.   24.
   20.   -0.    0.    0.    0.    7.    0.    0.   -6.    0.   -1.    2.    0.   -2.   -0.   -2.   -0.    3.    0.    0.
    7.   -3.    0.    1.   -0.    0.    2.    2.    2.   -0.   -0.    3.   10.   -0.    2.   -1.   -5.    0.   -2.    0.
   -0.   -3.   -0.   -1.    2.    0.   -4.    0.    1.    0.    2.   -0.    1.   -0.   -0.   -1.    1.   -2.   -0.   -0.
    0.   -0.    1.   -0.    0.   -1.    1.   -0.    0.   -0.   -0.   -0.    0.    1.   -1.   -0.    0.   -0.   -1.    0.
   -0.   -0.   -0.   -1.   -0.    0.   -0.    1.   -0.   -1.   -0.    0.   -0.    3.    0.    1.   -0.   -3.    0.    0.
    1.   -0.   -0.    0.   -3.   -0.    0.   -1.   -0.   -2.   -1.   -0.    0.    3.   -1.   -1.   -1.   -1.   -1.    2.
   -1.    2.    0.    3.    1.   -1.   -0.    0.   -0.   -0.    0.    0.    1.   -1.   -0.    1.    0.    0.   -0.   -0.
    0.    0.   -3.   -0.    0.    1.   -1.    1.    0.   -0.   -3.    0.    0.    1.   -2.    0.   -1.    2.   -0.   -0.
    0.   -0.   -0.    0.   -0.    0.   -0.    0.    0.   -0.    0.   -0.   -0.    0.    0.   -0.    0.    0.   -0.   -0.
   -0.

 Displacement: in terms of nc of 1 THEN of nc of 2

   1     freq=    -0. Q=  0.000 lam=    -0.0     freq=    -0. Q=  0.000 lam=    -0.0
   2     freq=    -0. Q= -0.000 lam=    -0.0     freq=    -0. Q= -0.000 lam=    -0.0
   3     freq=     0. Q= -0.000 lam=     0.0     freq=     0. Q= -0.000 lam=     0.0
   4     freq=     0. Q= -0.000 lam=     0.0     freq=     0. Q= -0.000 lam=     0.0
   5     freq=     0. Q=  0.000 lam=     0.0     freq=     0. Q=  0.000 lam=     0.0
   6     freq=     0. Q= -0.000 lam=     0.0     freq=     0. Q= -0.000 lam=     0.0
   7     freq=     8. Q=  0.069 lam=     0.0     freq=     6. Q=  0.055 lam=     0.0
   8     freq=    16. Q=  0.174 lam=     0.2     freq=    18. Q=  2.474 lam=    54.2
   9     freq=    18. Q= -2.424 lam=    51.6     freq=    18. Q= -0.070 lam=     0.0
  10     freq=    25. Q=  0.018 lam=     0.0     freq=    24. Q=  0.013 lam=     0.0
  11     freq=    30. Q=  0.023 lam=     0.0     freq=    28. Q=  0.000 lam=     0.0
  12     freq=    39. Q= -0.007 lam=     0.0     freq=    37. Q= -0.019 lam=     0.0
  13     freq=    55. Q=  0.008 lam=     0.0     freq=    55. Q=  0.027 lam=     0.0
  14     freq=    59. Q=  0.002 lam=     0.0     freq=    59. Q=  0.001 lam=     0.0
  15     freq=    69. Q= -0.590 lam=    12.0     freq=    70. Q= -0.630 lam=    13.8
  16     freq=    75. Q=  0.002 lam=     0.0     freq=    77. Q=  0.004 lam=     0.0
  17     freq=    88. Q= -0.001 lam=     0.0     freq=    88. Q= -0.003 lam=     0.0
  18     freq=    94. Q=  0.003 lam=     0.0     freq=    95. Q=  0.003 lam=     0.0
  19     freq=   106. Q= -0.013 lam=     0.0     freq=   104. Q= -0.001 lam=     0.0
  20     freq=   107. Q= -0.959 lam=    49.0     freq=   111. Q= -1.024 lam=    58.3
  21     freq=   130. Q=  0.942 lam=    57.7     freq=   131. Q=  0.919 lam=    55.3
  22     freq=   137. Q=  0.001 lam=     0.0     freq=   164. Q=  0.004 lam=     0.0
  23     freq=   168. Q= -0.003 lam=     0.0     freq=   169. Q= -0.001 lam=     0.0
  24     freq=   172. Q= -0.000 lam=     0.0     freq=   181. Q= -0.006 lam=     0.0
  25     freq=   185. Q= -0.001 lam=     0.0     freq=   195. Q= -0.027 lam=     0.1
  26     freq=   193. Q= -0.417 lam=    16.8     freq=   195. Q= -0.404 lam=    15.9
  27     freq=   201. Q= -0.001 lam=     0.0     freq=   208. Q= -0.005 lam=     0.0
  28     freq=   208. Q= -0.001 lam=     0.0     freq=   212. Q= -0.010 lam=     0.0
  29     freq=   212. Q= -0.357 lam=    13.5     freq=   215. Q= -0.351 lam=    13.3
  30     freq=   220. Q=  0.001 lam=     0.0     freq=   220. Q=  0.007 lam=     0.0
  31     freq=   234. Q=  0.003 lam=     0.0     freq=   235. Q=  0.039 lam=     0.2
  32     freq=   235. Q= -0.109 lam=     1.4     freq=   235. Q= -0.100 lam=     1.2
  33     freq=   238. Q=  0.004 lam=     0.0     freq=   258. Q=  0.017 lam=     0.0
  34     freq=   254. Q= -0.153 lam=     3.0     freq=   259. Q= -0.098 lam=     1.2
  35     freq=   256. Q=  0.001 lam=     0.0     freq=   262. Q=  0.001 lam=     0.0
  36     freq=   290. Q= -0.196 lam=     5.6     freq=   291. Q= -0.165 lam=     4.0
  37     freq=   302. Q=  0.001 lam=     0.0     freq=   296. Q=  0.002 lam=     0.0
  38     freq=   304. Q= -0.187 lam=     5.3     freq=   307. Q= -0.234 lam=     8.4
  39     freq=   322. Q= -0.001 lam=     0.0     freq=   335. Q= -0.001 lam=     0.0
  40     freq=   345. Q=  0.503 lam=    43.8     freq=   344. Q=  0.001 lam=     0.0
  41     freq=   348. Q=  0.002 lam=     0.0     freq=   351. Q=  0.492 lam=    42.5
  42     freq=   369. Q=  0.270 lam=    13.4     freq=   377. Q=  0.200 lam=     7.5
  43     freq=   390. Q= -0.022 lam=     0.1     freq=   396. Q= -0.020 lam=     0.1
  44     freq=   396. Q=  0.158 lam=     4.9     freq=   399. Q=  0.086 lam=     1.5
  45     freq=   411. Q=  0.001 lam=     0.0     freq=   417. Q=  0.001 lam=     0.0
  46     freq=   418. Q=  0.001 lam=     0.0     freq=   424. Q=  0.005 lam=     0.0
  47     freq=   419. Q= -0.291 lam=    17.8     freq=   424. Q= -0.181 lam=     6.9
  48     freq=   432. Q= -0.242 lam=    12.7     freq=   435. Q= -0.206 lam=     9.2
  49     freq=   439. Q=  0.092 lam=     1.9     freq=   442. Q=  0.142 lam=     4.5
  50     freq=   441. Q= -0.130 lam=     3.7     freq=   450. Q= -0.036 lam=     0.3
  51     freq=   447. Q=  0.001 lam=     0.0     freq=   453. Q=  0.014 lam=     0.0
  52     freq=   448. Q=  0.059 lam=     0.8     freq=   454. Q=  0.271 lam=    16.7
  53     freq=   466. Q=  0.020 lam=     0.1     freq=   458. Q=  0.841 lam=   162.0
  54     freq=   467. Q= -0.558 lam=    72.7     freq=   467. Q= -0.000 lam=     0.0
  55     freq=   472. Q= -0.000 lam=     0.0     freq=   469. Q= -0.148 lam=     5.2
  56     freq=   481. Q= -0.294 lam=    20.8     freq=   481. Q= -0.110 lam=     2.9
  57     freq=   484. Q= -0.000 lam=     0.0     freq=   496. Q= -0.411 lam=    41.9
  58     freq=   499. Q=  0.001 lam=     0.0     freq=   502. Q=  0.000 lam=     0.0
  59     freq=   501. Q=  0.549 lam=    75.5     freq=   507. Q=  0.145 lam=     5.4
  60     freq=   506. Q= -0.001 lam=     0.0     freq=   514. Q= -0.000 lam=     0.0
  61     freq=   513. Q= -0.333 lam=    28.4     freq=   517. Q= -0.001 lam=     0.0
  62     freq=   543. Q=  0.425 lam=    49.1     freq=   540. Q=  0.307 lam=    25.5
  63     freq=   552. Q= -0.000 lam=     0.0     freq=   550. Q= -0.000 lam=     0.0
  64     freq=   571. Q=  0.001 lam=     0.0     freq=   579. Q=  0.063 lam=     1.1
  65     freq=   575. Q= -0.027 lam=     0.2     freq=   580. Q= -0.224 lam=    14.5
  66     freq=   577. Q=  0.169 lam=     8.2     freq=   591. Q=  0.000 lam=     0.0
  67     freq=   596. Q= -0.353 lam=    37.2     freq=   599. Q= -0.351 lam=    36.9
  68     freq=   605. Q= -0.000 lam=     0.0     freq=   624. Q= -0.002 lam=     0.0
  69     freq=   616. Q=  0.090 lam=     2.5     freq=   624. Q=  0.146 lam=     6.7
  70     freq=   620. Q= -0.000 lam=     0.0     freq=   630. Q= -0.000 lam=     0.0
  71     freq=   632. Q=  0.005 lam=     0.0     freq=   634. Q=  0.240 lam=    18.3
  72     freq=   633. Q=  0.302 lam=    28.8     freq=   661. Q=  0.000 lam=     0.0
  73     freq=   652. Q=  0.001 lam=     0.0     freq=   664. Q=  0.139 lam=     6.4
  74     freq=   665. Q=  0.107 lam=     3.8     freq=   669. Q=  0.001 lam=     0.0
  75     freq=   677. Q= -0.001 lam=     0.0     freq=   675. Q= -0.011 lam=     0.0
  76     freq=   678. Q= -0.031 lam=     0.3     freq=   712. Q= -0.086 lam=     2.6
  77     freq=   699. Q= -0.000 lam=     0.0     freq=   719. Q= -0.062 lam=     1.4
  78     freq=   701. Q=  0.001 lam=     0.0     freq=   730. Q=  0.216 lam=    17.0
  79     freq=   708. Q= -0.117 lam=     4.9     freq=   732. Q= -0.000 lam=     0.0
  80     freq=   718. Q=  0.036 lam=     0.5     freq=   748. Q=  0.000 lam=     0.0
  81     freq=   727. Q= -0.268 lam=    26.1     freq=   758. Q= -0.001 lam=     0.0
  82     freq=   744. Q=  0.000 lam=     0.0     freq=   765. Q=  0.002 lam=     0.0
  83     freq=   750. Q= -0.002 lam=     0.0     freq=   765. Q= -0.130 lam=     6.5
  84     freq=   758. Q=  0.000 lam=     0.0     freq=   772. Q=  0.000 lam=     0.0
  85     freq=   764. Q=  0.000 lam=     0.0     freq=   786. Q=  0.000 lam=     0.0
  86     freq=   766. Q=  0.123 lam=     5.8     freq=   804. Q=  0.071 lam=     2.0
  87     freq=   802. Q= -0.066 lam=     1.7     freq=   808. Q= -0.062 lam=     1.5
  88     freq=   808. Q= -0.000 lam=     0.0     freq=   816. Q= -0.000 lam=     0.0
  89     freq=   809. Q=  0.084 lam=     2.9     freq=   824. Q=  0.000 lam=     0.0
  90     freq=   812. Q=  0.001 lam=     0.0     freq=   825. Q=  0.031 lam=     0.4
  91     freq=   815. Q= -0.000 lam=     0.0     freq=   828. Q= -0.000 lam=     0.0
  92     freq=   825. Q=  0.026 lam=     0.3     freq=   830. Q=  0.000 lam=     0.0
  93     freq=   826. Q= -0.000 lam=     0.0     freq=   833. Q= -0.000 lam=     0.0
  94     freq=   832. Q=  0.000 lam=     0.0     freq=   838. Q=  0.126 lam=     6.7
  95     freq=   841. Q=  0.125 lam=     6.5     freq=   846. Q=  0.068 lam=     2.0
  96     freq=   845. Q=  0.108 lam=     4.9     freq=   847. Q=  0.001 lam=     0.0
  97     freq=   858. Q=  0.001 lam=     0.0     freq=   889. Q=  0.000 lam=     0.0
  98     freq=   875. Q=  0.000 lam=     0.0     freq=   894. Q=  0.000 lam=     0.0
  99     freq=   901. Q= -0.079 lam=     2.8     freq=   903. Q= -0.084 lam=     3.2
 100     freq=   907. Q=  0.001 lam=     0.0     freq=   917. Q=  0.049 lam=     1.1
 101     freq=   914. Q= -0.019 lam=     0.2     freq=   923. Q= -0.056 lam=     1.4
 102     freq=   920. Q=  0.027 lam=     0.3     freq=   927. Q=  0.000 lam=     0.0
 103     freq=   935. Q=  0.010 lam=     0.0     freq=   944. Q=  0.000 lam=     0.0
 104     freq=   945. Q=  0.001 lam=     0.0     freq=   955. Q=  0.136 lam=     8.8
 105     freq=   954. Q= -0.000 lam=     0.0     freq=   956. Q= -0.001 lam=     0.0
 106     freq=   957. Q= -0.001 lam=     0.0     freq=   973. Q= -0.001 lam=     0.0
 107     freq=   962. Q= -0.153 lam=    11.2     freq=   974. Q= -0.002 lam=     0.0
 108     freq=   975. Q= -0.000 lam=     0.0     freq=   976. Q= -0.078 lam=     3.0
 109     freq=   977. Q= -0.000 lam=     0.0     freq=   977. Q= -0.002 lam=     0.0
 110     freq=   988. Q= -0.000 lam=     0.0     freq=   978. Q= -0.164 lam=    13.2
 111     freq=   989. Q= -0.000 lam=     0.0     freq=   986. Q= -0.000 lam=     0.0
 112     freq=  1026. Q=  0.072 lam=     2.6     freq=   989. Q=  0.000 lam=     0.0
 113     freq=  1030. Q= -0.000 lam=     0.0     freq=  1051. Q= -0.000 lam=     0.0
 114     freq=  1063. Q=  0.001 lam=     0.0     freq=  1053. Q=  0.333 lam=    58.4
 115     freq=  1092. Q= -0.097 lam=     5.1     freq=  1069. Q= -0.003 lam=     0.0
 116     freq=  1093. Q=  0.090 lam=     4.5     freq=  1094. Q=  0.107 lam=     6.3
 117     freq=  1104. Q=  0.099 lam=     5.4     freq=  1106. Q=  0.049 lam=     1.3
 118     freq=  1127. Q=  0.385 lam=    83.6     freq=  1125. Q=  0.462 lam=   120.0
 119     freq=  1138. Q= -0.038 lam=     0.8     freq=  1151. Q= -0.068 lam=     2.7
 120     freq=  1155. Q=  0.000 lam=     0.0     freq=  1155. Q=  0.000 lam=     0.0
 121     freq=  1158. Q= -0.118 lam=     8.1     freq=  1161. Q= -0.154 lam=    13.8
 122     freq=  1161. Q= -0.080 lam=     3.7     freq=  1165. Q= -0.049 lam=     1.4
 123     freq=  1170. Q=  0.054 lam=     1.7     freq=  1175. Q=  0.010 lam=     0.1
 124     freq=  1182. Q=  0.363 lam=    77.8     freq=  1190. Q=  0.007 lam=     0.0
 125     freq=  1186. Q=  0.052 lam=     1.6     freq=  1194. Q=  0.416 lam=   103.5
 126     freq=  1196. Q=  0.012 lam=     0.1     freq=  1201. Q=  0.001 lam=     0.0
 127     freq=  1198. Q=  0.002 lam=     0.0     freq=  1216. Q=  0.019 lam=     0.2
 128     freq=  1212. Q= -0.067 lam=     2.8     freq=  1222. Q= -0.169 lam=    17.5
 129     freq=  1224. Q= -0.112 lam=     7.6     freq=  1227. Q= -0.043 lam=     1.1
 130     freq=  1227. Q= -0.088 lam=     4.7     freq=  1233. Q= -0.258 lam=    41.1
 131     freq=  1233. Q= -0.018 lam=     0.2     freq=  1237. Q= -0.081 lam=     4.1
 132     freq=  1242. Q= -0.082 lam=     4.1     freq=  1250. Q= -0.022 lam=     0.3
 133     freq=  1244. Q= -0.209 lam=    27.2     freq=  1264. Q= -0.019 lam=     0.2
 134     freq=  1253. Q= -0.029 lam=     0.5     freq=  1282. Q= -0.365 lam=    85.3
 135     freq=  1281. Q= -0.007 lam=     0.0     freq=  1291. Q= -0.164 lam=    17.4
 136     freq=  1295. Q=  0.378 lam=    92.8     freq=  1296. Q=  0.175 lam=    19.8
 137     freq=  1313. Q=  0.264 lam=    45.9     freq=  1299. Q=  0.135 lam=    11.8
 138     freq=  1318. Q= -0.118 lam=     9.1     freq=  1304. Q= -0.135 lam=    11.8
 139     freq=  1320. Q=  0.130 lam=    11.1     freq=  1317. Q=  0.179 lam=    21.1
 140     freq=  1327. Q=  0.288 lam=    55.0     freq=  1327. Q=  0.303 lam=    61.0
 141     freq=  1341. Q= -0.577 lam=   223.3     freq=  1349. Q= -0.098 lam=     6.5
 142     freq=  1353. Q=  0.118 lam=     9.4     freq=  1361. Q=  0.234 lam=    37.4
 143     freq=  1364. Q= -0.430 lam=   126.0     freq=  1365. Q= -0.018 lam=     0.2
 144     freq=  1367. Q= -0.084 lam=     4.8     freq=  1371. Q= -0.489 lam=   164.1
 145     freq=  1371. Q= -0.448 lam=   137.3     freq=  1373. Q= -0.192 lam=    25.4
 146     freq=  1380. Q= -0.038 lam=     1.0     freq=  1379. Q= -0.111 lam=     8.5
 147     freq=  1382. Q= -0.001 lam=     0.0     freq=  1384. Q= -0.000 lam=     0.0
 148     freq=  1392. Q= -0.022 lam=     0.3     freq=  1393. Q= -0.010 lam=     0.1
 149     freq=  1400. Q= -0.000 lam=     0.0     freq=  1397. Q= -0.010 lam=     0.1
 150     freq=  1402. Q= -0.169 lam=    20.1     freq=  1398. Q= -0.000 lam=     0.0
 151     freq=  1405. Q=  0.024 lam=     0.4     freq=  1412. Q=  0.028 lam=     0.6
 152     freq=  1416. Q= -0.031 lam=     0.7     freq=  1418. Q= -0.022 lam=     0.3
 153     freq=  1430. Q=  0.053 lam=     2.0     freq=  1426. Q=  0.118 lam=    10.0
 154     freq=  1439. Q= -0.144 lam=    14.9     freq=  1440. Q= -0.201 lam=    29.0
 155     freq=  1447. Q= -0.024 lam=     0.4     freq=  1459. Q= -0.001 lam=     0.0
 156     freq=  1451. Q=  0.295 lam=    63.3     freq=  1465. Q=  0.150 lam=    16.4
 157     freq=  1461. Q= -0.089 lam=     5.7     freq=  1470. Q= -0.057 lam=     2.4
 158     freq=  1466. Q= -0.067 lam=     3.2     freq=  1475. Q= -0.056 lam=     2.3
 159     freq=  1485. Q=  0.000 lam=     0.0     freq=  1484. Q=  0.000 lam=     0.0
 160     freq=  1493. Q=  0.098 lam=     7.1     freq=  1485. Q=  0.068 lam=     3.5
 161     freq=  1498. Q= -0.024 lam=     0.4     freq=  1487. Q= -0.044 lam=     1.4
 162     freq=  1500. Q= -0.193 lam=    28.1     freq=  1496. Q= -0.035 lam=     0.9
 163     freq=  1505. Q= -0.000 lam=     0.0     freq=  1498. Q= -0.416 lam=   129.5
 164     freq=  1510. Q= -0.020 lam=     0.3     freq=  1507. Q= -0.000 lam=     0.0
 165     freq=  1523. Q= -0.014 lam=     0.2     freq=  1524. Q= -0.009 lam=     0.1
 166     freq=  1531. Q=  0.276 lam=    58.2     freq=  1551. Q=  0.110 lam=     9.4
 167     freq=  1546. Q=  0.061 lam=     2.9     freq=  1558. Q=  0.163 lam=    20.8
 168     freq=  1554. Q= -0.141 lam=    15.4     freq=  1574. Q= -0.154 lam=    18.7
 169     freq=  1571. Q=  0.049 lam=     1.9     freq=  1588. Q=  0.003 lam=     0.0
 170     freq=  1582. Q= -0.065 lam=     3.3     freq=  1593. Q= -0.033 lam=     0.8
 171     freq=  1600. Q= -0.011 lam=     0.1     freq=  1611. Q= -0.535 lam=   230.6
 172     freq=  1601. Q= -0.085 lam=     5.8     freq=  1615. Q= -0.028 lam=     0.6
 173     freq=  1620. Q=  0.016 lam=     0.2     freq=  1619. Q=  0.006 lam=     0.0
 174     freq=  1648. Q=  0.515 lam=   218.5     freq=  1626. Q=  0.207 lam=    34.7
 175     freq=  1657. Q= -0.245 lam=    49.6     freq=  1638. Q= -0.282 lam=    65.3
 176     freq=  1686. Q= -0.006 lam=     0.0     freq=  1684. Q= -0.006 lam=     0.0
 177     freq=  1690. Q=  0.084 lam=     5.9     freq=  1721. Q=  0.120 lam=    12.3
 178     freq=  1725. Q= -0.112 lam=    10.9     freq=  1787. Q= -0.362 lam=   117.2
 179     freq=  1732. Q=  0.049 lam=     2.0     freq=  1881. Q=  0.026 lam=     0.6
 180     freq=  3034. Q=  0.000 lam=     0.0     freq=  3030. Q=  0.000 lam=     0.0
 181     freq=  3038. Q= -0.006 lam=     0.1     freq=  3034. Q= -0.008 lam=     0.1
 182     freq=  3092. Q= -0.000 lam=     0.0     freq=  3087. Q= -0.000 lam=     0.0
 183     freq=  3095. Q= -0.005 lam=     0.0     freq=  3090. Q= -0.006 lam=     0.1
 184     freq=  3112. Q= -0.003 lam=     0.0     freq=  3109. Q= -0.004 lam=     0.0
 185     freq=  3126. Q= -0.021 lam=     0.7     freq=  3132. Q= -0.000 lam=     0.0
 186     freq=  3132. Q= -0.000 lam=     0.0     freq=  3134. Q= -0.011 lam=     0.2
 187     freq=  3137. Q= -0.015 lam=     0.3     freq=  3142. Q= -0.005 lam=     0.0
 188     freq=  3143. Q=  0.004 lam=     0.0     freq=  3162. Q=  0.021 lam=     0.7
 189     freq=  3198. Q= -0.003 lam=     0.0     freq=  3168. Q= -0.038 lam=     2.3
 190     freq=  3199. Q=  0.002 lam=     0.0     freq=  3193. Q=  0.003 lam=     0.0
 191     freq=  3206. Q=  0.002 lam=     0.0     freq=  3193. Q=  0.000 lam=     0.0
 192     freq=  3206. Q= -0.004 lam=     0.0     freq=  3199. Q= -0.003 lam=     0.0
 193     freq=  3208. Q=  0.009 lam=     0.1     freq=  3199. Q=  0.004 lam=     0.0
 194     freq=  3213. Q= -0.009 lam=     0.1     freq=  3209. Q= -0.003 lam=     0.0
 195     freq=  3213. Q=  0.003 lam=     0.0     freq=  3209. Q=  0.004 lam=     0.0
 196     freq=  3214. Q=  0.002 lam=     0.0     freq=  3222. Q=  0.008 lam=     0.1
 197     freq=  3217. Q= -0.032 lam=     1.7     freq=  3224. Q= -0.001 lam=     0.0
 198     freq=  3224. Q=  0.001 lam=     0.0     freq=  3225. Q=  0.003 lam=     0.0
 199     freq=  3224. Q=  0.002 lam=     0.0     freq=  3226. Q=  0.012 lam=     0.2
 200     freq=  3239. Q=  0.013 lam=     0.3     freq=  3247. Q=  0.002 lam=     0.0
 201     freq=  3245. Q=  0.003 lam=     0.0     freq=  3250. Q=  0.002 lam=     0.0

 total reorg energy (cm**-1, kcal/mol)=     2194.     2267.      6.27      6.48
 Nber of molecules processed=           2
