 Enter ifcurve (0=recti, 1=orth curvi, 2=apprx curvi, -1 = skip
 And atom ordering flag, 0= never changes, 1= use the first order thenceforth,
  2= deduce it (does read on fail), 3= always read it
 Reading file: 
 ./Phenyls_3_C0S0.log                                                           
                                          
  Entering Gaussian System, Link 0=g16                                          
  
 Gaussian format, type: g94, g98, g03= F F F
  #P Geom=AllCheck Guess=TCheck SCRF=Check GenChk RB3LYP/6-311G(d,p) Fre    
 energy type= B3LYP   
 Original G94 input coords:
  6  0.000000  0.000000 10.127183
  6  0.000000  1.199147  9.419649
  6  0.000000  1.197674  8.029203
  6  0.000000  0.000000  7.292790
  6  0.000000 -1.197674  8.029203
  6  0.000000 -1.199147  9.419649
  6  0.000000  0.000000  5.802995
  6  0.000000 -1.189904  5.056909
  6  0.000000 -1.190220  3.670186
  6  0.000000  0.000000  2.924386
  6  0.000000  1.190220  3.670186
  6  0.000000  1.189904  5.056909
  6  0.000000  0.000000  1.438827
  6  0.000000 -1.190654  0.693225
  6  0.000000 -1.190654 -0.693225
  6  0.000000  0.000000 -1.438827
  6  0.000000  1.190654 -0.693225
  6  0.000000  1.190654  0.693225
  6  0.000000  0.000000 -2.924386
  6  0.000000 -1.190220 -3.670186
  6  0.000000 -1.189904 -5.056909
  6  0.000000  0.000000 -5.802995
  6  0.000000  1.189904 -5.056909
  6  0.000000  1.190220 -3.670186
  6  0.000000  0.000000 -7.292790
  6  0.000000 -1.197674 -8.029203
  6  0.000000 -1.199147 -9.419649
  6  0.000000  0.000000-10.127183
  6  0.000000  1.199147 -9.419649
  6  0.000000  1.197674 -8.029203
  1  0.000000  0.000000 11.210714
  1  0.000000  2.144549  9.951197
  1  0.000000  2.152416  7.519859
  1  0.000000 -2.152416  7.519859
  1  0.000000 -2.144549  9.951197
  1  0.000000 -2.149107  5.557306
  1  0.000000 -2.148944  3.168760
  1  0.000000  2.148944  3.168760
  1  0.000000  2.149107  5.557306
  1  0.000000 -2.149054  1.195154
  1  0.000000 -2.149054 -1.195154
  1  0.000000  2.149054 -1.195154
  1  0.000000  2.149054  1.195154
  1  0.000000 -2.148944 -3.168760
  1  0.000000 -2.149107 -5.557306
  1  0.000000  2.149107 -5.557306
  1  0.000000  2.148944 -3.168760
  1  0.000000 -2.152416 -7.519859
  1  0.000000 -2.144549 -9.951197
  1  0.000000  0.000000-11.210714
  1  0.000000  2.144549 -9.951197
  1  0.000000  2.152416 -7.519859
 nber atoms=          52
  SCF Done:  E(RB3LYP) =  -1156.73571259     A.U. after    1 cycles             
  
          23          40 "  -1156.73571259"
After scan for Atom:   Atom  AN      X      Y      Z        X      Y      Z        X      Y      Z   
After scan for Atom:   Atom  AN      X      Y      Z        X      Y      Z        X      Y      Z   
After scan for Atom:   Atom  AN      X      Y      Z        X      Y      Z        X      Y      Z   
After scan for Atom:   Atom  AN      X      Y      Z        X      Y      Z        X      Y      Z   
After scan for Atom:   Atom  AN      X      Y      Z        X      Y      Z        X      Y      Z   
After scan for Atom:   Atom  AN      X      Y      Z        X      Y      Z        X      Y      Z   
After scan for Atom:   Atom  AN      X      Y      Z        X      Y      Z        X      Y      Z   
After scan for Atom:   Atom  AN      X      Y      Z        X      Y      Z        X      Y      Z   
After scan for Atom:   Atom  AN      X      Y      Z        X      Y      Z        X      Y      Z   
After scan for Atom:   Atom  AN      X      Y      Z        X      Y      Z        X      Y      Z   
After scan for Atom:   Atom  AN      X      Y      Z        X      Y      Z        X      Y      Z   
After scan for Atom:   Atom  AN      X      Y      Z        X      Y      Z        X      Y      Z   
After scan for Atom:   Atom  AN      X      Y      Z        X      Y      Z        X      Y      Z   
After scan for Atom:   Atom  AN      X      Y      Z        X      Y      Z        X      Y      Z   
After scan for Atom:   Atom  AN      X      Y      Z        X      Y      Z        X      Y      Z   
After scan for Atom:   Atom  AN      X      Y      Z        X      Y      Z        X      Y      Z   
After scan for Atom:   Atom  AN      X      Y      Z        X      Y      Z        X      Y      Z   
After scan for Atom:   Atom  AN      X      Y      Z        X      Y      Z        X      Y      Z   
After scan for Atom:   Atom  AN      X      Y      Z        X      Y      Z        X      Y      Z   
After scan for Atom:   Atom  AN      X      Y      Z        X      Y      Z        X      Y      Z   
After scan for Atom:   Atom  AN      X      Y      Z        X      Y      Z        X      Y      Z   
After scan for Atom:   Atom  AN      X      Y      Z        X      Y      Z        X      Y      Z   
After scan for Atom:   Atom  AN      X      Y      Z        X      Y      Z        X      Y      Z   
After scan for Atom:   Atom  AN      X      Y      Z        X      Y      Z        X      Y      Z   
After scan for Atom:   Atom  AN      X      Y      Z        X      Y      Z        X      Y      Z   
After scan for Atom:   Atom  AN      X      Y      Z        X      Y      Z        X      Y      Z   
After scan for Atom:   Atom  AN      X      Y      Z        X      Y      Z        X      Y      Z   
After scan for Atom:   Atom  AN      X      Y      Z        X      Y      Z        X      Y      Z   
After scan for Atom:   Atom  AN      X      Y      Z        X      Y      Z        X      Y      Z   
After scan for Atom:   Atom  AN      X      Y      Z        X      Y      Z        X      Y      Z   
After scan for Atom:   Atom  AN      X      Y      Z        X      Y      Z        X      Y      Z   
After scan for Atom:   Atom  AN      X      Y      Z        X      Y      Z        X      Y      Z   
After scan for Atom:   Atom  AN      X      Y      Z        X      Y      Z        X      Y      Z   
After scan for Atom:   Atom  AN      X      Y      Z        X      Y      Z        X      Y      Z   
After scan for Atom:   Atom  AN      X      Y      Z        X      Y      Z        X      Y      Z   
After scan for Atom:   Atom  AN      X      Y      Z        X      Y      Z        X      Y      Z   
After scan for Atom:   Atom  AN      X      Y      Z        X      Y      Z        X      Y      Z   
After scan for Atom:   Atom  AN      X      Y      Z        X      Y      Z        X      Y      Z   
After scan for Atom:   Atom  AN      X      Y      Z        X      Y      Z        X      Y      Z   
After scan for Atom:   Atom  AN      X      Y      Z        X      Y      Z        X      Y      Z   
After scan for Atom:   Atom  AN      X      Y      Z        X      Y      Z        X      Y      Z   
After scan for Atom:   Atom  AN      X      Y      Z        X      Y      Z        X      Y      Z   
After scan for Atom:   Atom  AN      X      Y      Z        X      Y      Z        X      Y      Z   
After scan for Atom:   Atom  AN      X      Y      Z        X      Y      Z        X      Y      Z   
After scan for Atom:   Atom  AN      X      Y      Z        X      Y      Z        X      Y      Z   
After scan for Atom:   Atom  AN      X      Y      Z        X      Y      Z        X      Y      Z   
After scan for Atom:   Atom  AN      X      Y      Z        X      Y      Z        X      Y      Z   
After scan for Atom:   Atom  AN      X      Y      Z        X      Y      Z        X      Y      Z   
After scan for Atom:   Atom  AN      X      Y      Z        X      Y      Z        X      Y      Z   
After scan for Atom:   Atom  AN      X      Y      Z        X      Y      Z        X      Y      Z   
 g94    frequencies=
     0.0    0.0    0.0    0.0    0.0    0.0 -104.3  -91.0  -66.8  -34.0
    13.5   37.3   38.3   73.0   97.5  128.7  139.4  162.9  170.8  229.8
   238.3  273.2  296.4  355.7  364.1  380.2  389.3  396.1  401.3  409.6
   411.7  416.4  454.4  458.7  482.3  496.7  502.1  539.9  555.1  557.2
   626.5  631.0  632.2  648.1  661.6  671.7  673.6  694.8  694.9  725.9
   726.1  729.2  739.2  776.1  776.9  784.9  797.7  808.8  812.3  824.2
   835.6  842.0  845.9  852.5  861.7  919.2  919.2  934.3  946.9  949.3
   954.9  962.9  963.0  974.0  975.1  997.8  997.8 1011.7 1013.4 1015.3
  1019.0 1021.1 1022.4 1041.2 1054.4 1064.0 1065.3 1065.7 1111.6 1111.7
  1151.9 1164.0 1176.3 1187.8 1189.0 1209.3 1212.5 1230.9 1248.6 1251.2
  1286.7 1289.9 1292.5 1297.0 1300.2 1302.8 1313.5 1314.4 1318.8 1346.9
  1353.3 1358.1 1370.5 1372.9 1436.5 1436.7 1452.1 1480.5 1485.3 1518.9
  1525.9 1543.8 1563.4 1577.7 1579.1 1596.6 1609.9 1623.1 1623.4 1633.6
  1640.1 1646.2 1654.4 1661.2 3161.0 3161.0 3167.7 3167.7 3178.6 3179.5
  3181.6 3183.1 3185.2 3187.9 3188.1 3190.9 3193.1 3195.7 3199.6 3200.4
  3204.5 3206.1 3208.3 3210.6 3210.8 3213.7
 g94    symmetries=
                                                B1     AU     B1     AU
      B3     B2     B2     B3     B3     B2     AG     B3     B2     B2
      B3     B1     B3     B2     B2     AU     B1     AG     AU     B3
      B1     AU     B2     B3     B3     B2     B1     B3     B3     B2
      AG     B3     B2     B3     B2     B3     B1     B2     B3     B2
      B3     AG     B2     B3     B1     B2     B1     AU     AG     B1
      B3     AU     B1     B2     B3     B3     B2     AU     B2     B1
      B3     B2     AU     B1     AU     B3     B2     AG     B1     B1
      AG     AG     B1     B1     AG     B1     AG     B1     B2     B3
      B2     B3     B2     B3     B2     AG     B1     AG     AG     B1
      B1     B2     B3     AG     B2     AG     B3     B1     B2     B3
      B3     B2     B2     B3     B3     B2     B2     B3     B2     B1
      AG     B1     AG     B1     B3     B2     B3     B2     B3     AG
      B1     AG     B1     AG     B1     AG     B3     B2     B1     B3
      AG     B2     B1     AG     B3     B1     B2     AG     B3     B1
      B2     AG     B3     B1     B2     AG
 atomic masses:
 12.0000 12.0000 12.0000 12.0000 12.0000 12.0000 12.0000 12.0000 12.0000 12.0000
 12.0000 12.0000 12.0000 12.0000 12.0000 12.0000 12.0000 12.0000 12.0000 12.0000
 12.0000 12.0000 12.0000 12.0000 12.0000 12.0000 12.0000 12.0000 12.0000 12.0000
  1.0078  1.0078  1.0078  1.0078  1.0078  1.0078  1.0078  1.0078  1.0078  1.0078
  1.0078  1.0078  1.0078  1.0078  1.0078  1.0078  1.0078  1.0078  1.0078  1.0078
  1.0078  1.0078
 looking for force constants in 
 ./Phenyls_3_C0S0.fchk                                                          
  
 Cartesian Force Constants                  R   N=       12246                  
  
 n3=         156       12246
 g94-fc frequencies=
  -104.3  -91.0  -66.8  -34.0   -0.0    0.0    0.0    0.6    1.0    7.9
    13.5   37.3   38.3   73.0   97.5  128.7  139.4  162.9  170.8  229.8
   238.3  273.2  296.5  355.7  364.1  380.2  389.3  396.1  401.3  409.6
   411.7  416.4  454.4  458.7  482.3  496.7  502.1  539.9  555.1  557.2
   626.6  631.1  632.2  648.1  661.6  671.7  673.6  694.8  694.9  726.0
   726.1  729.2  739.2  776.1  776.9  784.9  797.7  808.9  812.4  824.3
   835.6  842.0  846.0  852.5  861.7  919.2  919.3  934.3  946.9  949.3
   954.9  962.9  963.0  974.0  975.1  997.8  997.8 1011.7 1013.4 1015.3
  1019.1 1021.2 1022.4 1041.2 1054.4 1064.0 1065.4 1065.8 1111.6 1111.7
  1151.9 1164.1 1176.3 1187.8 1189.0 1209.3 1212.6 1231.0 1248.6 1251.2
  1286.8 1289.9 1292.5 1297.0 1300.2 1302.9 1313.5 1314.4 1318.8 1347.0
  1353.3 1358.1 1370.6 1372.9 1436.6 1436.8 1452.2 1480.5 1485.3 1518.9
  1525.9 1543.8 1563.4 1577.8 1579.2 1596.6 1609.9 1623.2 1623.5 1633.6
  1640.1 1646.2 1654.4 1661.2 3161.0 3161.1 3167.8 3167.8 3178.6 3179.6
  3181.7 3183.2 3185.3 3188.0 3188.2 3191.0 3193.2 3195.7 3199.7 3200.5
  3204.6 3206.2 3208.3 3210.6 3210.9 3213.8
 at 99999: n3=         156
 symm operator            1 :  T  nop=           1
 symm operator            2 :  T  nop=           2
 symm operator            3 :  T  nop=           3
 symm operator            4 :  T  nop=           4
 symm operator            5 :  T  nop=           5
 symm operator            6 :  T  nop=           6
 symm operator            7 :  T  nop=           7
 The point group of the molecule is D2H
 enforcing symm op           1  jsymt=          -1          -1           1
 enforcing symm op           2  jsymt=          -1           1          -1
 enforcing symm op           3  jsymt=           1          -1          -1
 enforcing symm op           4  jsymt=          -1          -1          -1
 enforcing symm op           5  jsymt=           1           1          -1
 enforcing symm op           6  jsymt=           1          -1           1
 enforcing symm op           7  jsymt=          -1           1           1
 cartesian coord symmetries:
 Ag :   26 Au :   10 B1g:   10 B1u:   26 B2g:   16 B2u:   26 B3g:   26 B3u:   16
 Symmetry rotation matrix:
   1.00000   0.00000   0.00000
   0.00000   1.00000   0.00000
   0.00000   0.00000   1.00000

 Projecting out zero-frequency components
 generating redundant internal coords
         300        3600          52
 search for int coords
   1 str   2   1   1.392
   2 str   3   2   1.390
   3 str   4   3   1.406
   4 str   5   4   1.406
   5 str   6   1   1.392
   6 str   6   5   1.390
   7 str   7   4   1.490
   8 str   8   7   1.404
   9 str   9   8   1.387
  10 str  10   9   1.405
  11 str  11  10   1.405
  12 str  12   7   1.404
  13 str  12  11   1.387
  14 str  13  10   1.486
  15 str  14  13   1.405
  16 str  15  14   1.386
  17 str  16  15   1.405
  18 str  17  16   1.405
  19 str  18  13   1.405
  20 str  18  17   1.386
  21 str  19  16   1.486
  22 str  20  19   1.405
  23 str  21  20   1.387
  24 str  22  21   1.404
  25 str  23  22   1.404
  26 str  24  19   1.405
  27 str  24  23   1.387
  28 str  25  22   1.490
  29 str  26  25   1.406
  30 str  27  26   1.390
  31 str  28  27   1.392
  32 str  29  28   1.392
  33 str  30  25   1.406
  34 str  30  29   1.390
  35 str  31   1   1.084
  36 str  32   2   1.085
  37 str  33   3   1.082
  38 str  34   5   1.082
  39 str  35   6   1.085
  40 str  36   8   1.082
  41 str  37   9   1.082
  42 str  38  11   1.082
  43 str  39  12   1.082
  44 str  40  14   1.082
  45 str  41  15   1.082
  46 str  42  17   1.082
  47 str  43  18   1.082
  48 str  44  20   1.082
  49 str  45  21   1.082
  50 str  46  23   1.082
  51 str  47  24   1.082
  52 str  48  26   1.082
  53 str  49  27   1.085
  54 str  50  28   1.084
  55 str  51  29   1.085
  56 str  52  30   1.082
 nber stretches=          56
  57 ben   1   2   3
  58 prop tor   1   2   3   4
  59 prop tor   1   2   3  33
  60 ben   1   2  32
  61 ben   1   6   5
  62 ben   1   6  35
  63 ben   2   1   6
  64 prop tor   2   1   6   5
  65 prop tor   2   1   6  35
  66 ben   2   1  31
  67 ben   2   3   4
  68 prop tor   2   3   4   5
  69 prop tor   2   3   4   7
  70 ben   2   3  33
  71 ben   3   2  32
  72 ben   3   4   5
  73 prop tor   3   4   5   6
  74 prop tor   3   4   5  34
  75 ben   3   4   7
  76 prop tor   3   4   7   8
  77 prop tor   3   4   7  12
  78 ben   4   3  33
  79 ben   4   5   6
  80 prop tor   4   5   6   1
  81 prop tor   4   5   6  35
  82 ben   4   5  34
  83 ben   4   7   8
  84 prop tor   4   7   8   9
  85 prop tor   4   7   8  36
  86 ben   4   7  12
  87 prop tor   4   7  12  11
  88 prop tor   4   7  12  39
  89 ben   5   4   7
  90 prop tor   5   4   7   8
  91 prop tor   5   4   7  12
  92 ben   5   6  35
  93 prop tor   6   1   2   3
  94 prop tor   6   1   2  32
  95 ben   6   1  31
  96 ben   6   5  34
  97 prop tor   7   4   5   6
  98 prop tor   7   4   5  34
  99 ben   7   8   9
 100 prop tor   7   8   9  10
 101 prop tor   7   8   9  37
 102 ben   7   8  36
 103 ben   7  12  11
 104 ben   7  12  39
 105 ben   8   7  12
 106 prop tor   8   7  12  11
 107 prop tor   8   7  12  39
 108 ben   8   9  10
 109 prop tor   8   9  10  11
 110 prop tor   8   9  10  13
 111 ben   8   9  37
 112 ben   9   8  36
 113 ben   9  10  11
 114 prop tor   9  10  11  12
 115 prop tor   9  10  11  38
 116 ben   9  10  13
 117 prop tor   9  10  13  14
 118 prop tor   9  10  13  18
 119 ben  10   9  37
 120 ben  10  11  12
 121 prop tor  10  11  12   7
 122 prop tor  10  11  12  39
 123 ben  10  11  38
 124 ben  10  13  14
 125 prop tor  10  13  14  15
 126 prop tor  10  13  14  40
 127 ben  10  13  18
 128 prop tor  10  13  18  17
 129 prop tor  10  13  18  43
 130 ben  11  10  13
 131 prop tor  11  10  13  14
 132 prop tor  11  10  13  18
 133 ben  11  12  39
 134 prop tor  12   7   8   9
 135 prop tor  12   7   8  36
 136 ben  12  11  38
 137 prop tor  13  10  11  12
 138 prop tor  13  10  11  38
 139 ben  13  14  15
 140 prop tor  13  14  15  16
 141 prop tor  13  14  15  41
 142 ben  13  14  40
 143 ben  13  18  17
 144 ben  13  18  43
 145 ben  14  13  18
 146 prop tor  14  13  18  17
 147 prop tor  14  13  18  43
 148 ben  14  15  16
 149 prop tor  14  15  16  17
 150 prop tor  14  15  16  19
 151 ben  14  15  41
 152 ben  15  14  40
 153 ben  15  16  17
 154 prop tor  15  16  17  18
 155 prop tor  15  16  17  42
 156 ben  15  16  19
 157 prop tor  15  16  19  20
 158 prop tor  15  16  19  24
 159 ben  16  15  41
 160 ben  16  17  18
 161 prop tor  16  17  18  13
 162 prop tor  16  17  18  43
 163 ben  16  17  42
 164 ben  16  19  20
 165 prop tor  16  19  20  21
 166 prop tor  16  19  20  44
 167 ben  16  19  24
 168 prop tor  16  19  24  23
 169 prop tor  16  19  24  47
 170 ben  17  16  19
 171 prop tor  17  16  19  20
 172 prop tor  17  16  19  24
 173 ben  17  18  43
 174 prop tor  18  13  14  15
 175 prop tor  18  13  14  40
 176 ben  18  17  42
 177 prop tor  19  16  17  18
 178 prop tor  19  16  17  42
 179 ben  19  20  21
 180 prop tor  19  20  21  22
 181 prop tor  19  20  21  45
 182 ben  19  20  44
 183 ben  19  24  23
 184 ben  19  24  47
 185 ben  20  19  24
 186 prop tor  20  19  24  23
 187 prop tor  20  19  24  47
 188 ben  20  21  22
 189 prop tor  20  21  22  23
 190 prop tor  20  21  22  25
 191 ben  20  21  45
 192 ben  21  20  44
 193 ben  21  22  23
 194 prop tor  21  22  23  24
 195 prop tor  21  22  23  46
 196 ben  21  22  25
 197 prop tor  21  22  25  26
 198 prop tor  21  22  25  30
 199 ben  22  21  45
 200 ben  22  23  24
 201 prop tor  22  23  24  19
 202 prop tor  22  23  24  47
 203 ben  22  23  46
 204 ben  22  25  26
 205 prop tor  22  25  26  27
 206 prop tor  22  25  26  48
 207 ben  22  25  30
 208 prop tor  22  25  30  29
 209 prop tor  22  25  30  52
 210 ben  23  22  25
 211 prop tor  23  22  25  26
 212 prop tor  23  22  25  30
 213 ben  23  24  47
 214 prop tor  24  19  20  21
 215 prop tor  24  19  20  44
 216 ben  24  23  46
 217 prop tor  25  22  23  24
 218 prop tor  25  22  23  46
 219 ben  25  26  27
 220 prop tor  25  26  27  28
 221 prop tor  25  26  27  49
 222 ben  25  26  48
 223 ben  25  30  29
 224 ben  25  30  52
 225 ben  26  25  30
 226 prop tor  26  25  30  29
 227 prop tor  26  25  30  52
 228 ben  26  27  28
 229 prop tor  26  27  28  29
 230 prop tor  26  27  28  50
 231 ben  26  27  49
 232 ben  27  26  48
 233 ben  27  28  29
 234 prop tor  27  28  29  30
 235 prop tor  27  28  29  51
 236 ben  27  28  50
 237 ben  28  27  49
 238 ben  28  29  30
 239 prop tor  28  29  30  25
 240 prop tor  28  29  30  52
 241 ben  28  29  51
 242 ben  29  28  50
 243 ben  29  30  52
 244 prop tor  30  25  26  27
 245 prop tor  30  25  26  48
 246 ben  30  29  51
 247 prop tor  31   1   2   3
 248 prop tor  31   1   2  32
 249 prop tor  31   1   6   5
 250 prop tor  31   1   6  35
 251 prop tor  32   2   3   4
 252 prop tor  32   2   3  33
 253 prop tor  33   3   4   5
 254 prop tor  33   3   4   7
 255 prop tor  34   5   6   1
 256 prop tor  34   5   6  35
 257 prop tor  36   8   9  10
 258 prop tor  36   8   9  37
 259 prop tor  37   9  10  11
 260 prop tor  37   9  10  13
 261 prop tor  38  11  12   7
 262 prop tor  38  11  12  39
 263 prop tor  40  14  15  16
 264 prop tor  40  14  15  41
 265 prop tor  41  15  16  17
 266 prop tor  41  15  16  19
 267 prop tor  42  17  18  13
 268 prop tor  42  17  18  43
 269 prop tor  44  20  21  22
 270 prop tor  44  20  21  45
 271 prop tor  45  21  22  23
 272 prop tor  45  21  22  25
 273 prop tor  46  23  24  19
 274 prop tor  46  23  24  47
 275 prop tor  48  26  27  28
 276 prop tor  48  26  27  49
 277 prop tor  49  27  28  29
 278 prop tor  49  27  28  50
 279 prop tor  50  28  29  30
 280 prop tor  50  28  29  51
 281 prop tor  51  29  30  25
 282 prop tor  51  29  30  52
 nber bend=              90
 nber lin bend=           0
 nber prop tor=         136
 nber impr tor=           0
 nber tot redund int=         282
 Eigenvalues of G in red int coords
    Gval -0.00000000 -0.00000000 -0.00000000 -0.00000000 -0.00000000 -0.00000000 -0.00000000 -0.00000000
    Gval -0.00000000 -0.00000000 -0.00000000 -0.00000000 -0.00000000 -0.00000000 -0.00000000 -0.00000000
    Gval -0.00000000 -0.00000000 -0.00000000 -0.00000000 -0.00000000 -0.00000000 -0.00000000 -0.00000000
    Gval -0.00000000 -0.00000000 -0.00000000 -0.00000000 -0.00000000 -0.00000000 -0.00000000 -0.00000000
    Gval -0.00000000 -0.00000000 -0.00000000 -0.00000000 -0.00000000 -0.00000000 -0.00000000 -0.00000000
    Gval -0.00000000 -0.00000000 -0.00000000 -0.00000000 -0.00000000 -0.00000000 -0.00000000 -0.00000000
    Gval -0.00000000 -0.00000000 -0.00000000 -0.00000000 -0.00000000 -0.00000000 -0.00000000 -0.00000000
    Gval -0.00000000 -0.00000000 -0.00000000 -0.00000000 -0.00000000 -0.00000000 -0.00000000 -0.00000000
    Gval -0.00000000 -0.00000000 -0.00000000  0.00000000  0.00000000  0.00000000  0.00000000  0.00000000
    Gval  0.00000000  0.00000000  0.00000000  0.00000000  0.00000000  0.00000000  0.00000000  0.00000000
    Gval  0.00000000  0.00000000  0.00000000  0.00000000  0.00000000  0.00000000  0.00000000  0.00000000
    Gval  0.00000000  0.00000000  0.00000000  0.00000000  0.00000000  0.00000000  0.00000000  0.00000000
    Gval  0.00000000  0.00000000  0.00000000  0.00000000  0.00000000  0.00000000  0.00000000  0.00000000
    Gval  0.00000000  0.00000000  0.00000000  0.00000000  0.00000000  0.00000000  0.00000000  0.00000000
    Gval  0.00000000  0.00000000  0.00000000  0.00000000  0.00000000  0.00000000  0.00000000  0.00000000
    Gval  0.00000000  0.00000000  0.00000000  0.00000000  0.00000000  0.00000000  0.00000000  0.00000000
    Gval  0.00000000  0.00000000  0.00000000  0.00000000  0.00000021  0.00000079  0.00000133  0.00000135
    Gval  0.00000430  0.00000512  0.00000600  0.00000813  0.00000919  0.00001074  0.00001677  0.00001939
    Gval  0.00002247  0.00002629  0.00003019  0.00003036  0.00003052  0.00004287  0.00004504  0.00004848
    Gval  0.00005024  0.00005096  0.00005801  0.00005802  0.00005896  0.00005908  0.00006095  0.00006389
    Gval  0.00006441  0.00006469  0.00007165  0.00007868  0.00008031  0.00008857  0.00009914  0.00010105
    Gval  0.00010409  0.00010688  0.00011353  0.00011655  0.00011826  0.00011915  0.00012203  0.00012259
    Gval  0.00012330  0.00012947  0.00013555  0.00016351  0.00019811  0.00020031  0.00023690  0.00026070
    Gval  0.00026295  0.00026918  0.00027552  0.00029017  0.00029133  0.00030732  0.00031225  0.00035917
    Gval  0.00036308  0.00037643  0.00038704  0.00039151  0.00039383  0.00040853  0.00042449  0.00043512
    Gval  0.00044729  0.00053253  0.00053776  0.00057546  0.00059307  0.00059307  0.00059343  0.00059343
    Gval  0.00059611  0.00059733  0.00059883  0.00059966  0.00059975  0.00059986  0.00060406  0.00060406
    Gval  0.00061170  0.00062293  0.00062346  0.00063057  0.00063249  0.00063832  0.00063976  0.00064572
    Gval  0.00064860  0.00065018  0.00065183  0.00066106  0.00066106  0.00073386  0.00087608  0.00099903
    Gval  0.00104127  0.00104127  0.00107748  0.00108004  0.00108252  0.00109292  0.00110911  0.00110967
    Gval  0.00111057  0.00111161  0.00111241  0.00113868  0.00113868  0.00115059  0.00115100  0.00115157
    Gval  0.00116783  0.00116834  0.00116914  0.00116971  0.00116981  0.00117317  0.00117317  0.00143028
    Gval  0.00143095  0.00155104  0.00161403  0.00173130  0.00188835  0.00199285  0.00234413  0.00234670
    Gval  0.00235382  0.00236160  0.00236331  0.00237049  0.00255808  0.00272626  0.00314024  0.00314323
    Gval  0.00354016  0.00360209  0.00365287  0.00366227  0.00367035  0.00368138  0.00370715  0.00370725
    Gval  0.00406696  0.00406696
  2.070766646126072E-007  2.070766646126072E-007
  7.940579592623684E-007  2.070766646126072E-007
  1.328587742337751E-006  2.070766646126072E-007
  1.348116018193597E-006  2.070766646126072E-007
  4.295802343578800E-006  2.070766646126072E-007
  5.120961772269942E-006  2.070766646126072E-007
  6.004885453110563E-006  2.070766646126072E-007
  8.132430404683164E-006  2.070766646126072E-007
  9.193995688802109E-006  2.070766646126072E-007
  1.074095213379091E-005  2.070766646126072E-007
  1.677204395176673E-005  2.070766646126072E-007
  1.938843608920493E-005  2.070766646126072E-007
  2.246985545516562E-005  2.070766646126072E-007
  2.629480787571495E-005  2.070766646126072E-007
  3.019148263995658E-005  2.070766646126072E-007
  3.035979756856031E-005  2.070766646126072E-007
  3.051904294319011E-005  2.070766646126072E-007
  4.286681945208714E-005  2.070766646126072E-007
  4.503704057174552E-005  2.070766646126072E-007
  4.847731906147748E-005  2.070766646126072E-007
  5.024334700238929E-005  2.070766646126072E-007
  5.096128753034068E-005  2.070766646126072E-007
  5.800737764374371E-005  2.070766646126072E-007
  5.801563423514687E-005  2.070766646126072E-007
  5.896481611078304E-005  2.070766646126072E-007
  5.907851573211198E-005  2.070766646126072E-007
  6.095361882537029E-005  2.070766646126072E-007
  6.389459567061190E-005  2.070766646126072E-007
  6.441498778305287E-005  2.070766646126072E-007
  6.469139375689977E-005  2.070766646126072E-007
  7.164737706049061E-005  2.070766646126072E-007
  7.868344738398535E-005  2.070766646126072E-007
  8.030515182037155E-005  2.070766646126072E-007
  8.857290536338680E-005  2.070766646126072E-007
  9.914203337995321E-005  2.070766646126072E-007
  1.010457072346534E-004  2.070766646126072E-007
  1.040881155402170E-004  2.070766646126072E-007
  1.068756663390429E-004  2.070766646126072E-007
  1.135251115230444E-004  2.070766646126072E-007
  1.165540703517491E-004  2.070766646126072E-007
  1.182586812283178E-004  2.070766646126072E-007
  1.191488645288243E-004  2.070766646126072E-007
  1.220273735606251E-004  2.070766646126072E-007
  1.225909588406558E-004  2.070766646126072E-007
  1.233004604425739E-004  2.070766646126072E-007
  1.294665866831693E-004  2.070766646126072E-007
  1.355523229413218E-004  2.070766646126072E-007
  1.635089106019014E-004  2.070766646126072E-007
  1.981111842599635E-004  2.070766646126072E-007
  2.003079770828874E-004  2.070766646126072E-007
  2.368976857072358E-004  2.070766646126072E-007
  2.607044755033187E-004  2.070766646126072E-007
  2.629516064445296E-004  2.070766646126072E-007
  2.691775618777826E-004  2.070766646126072E-007
  2.755186355713784E-004  2.070766646126072E-007
  2.901719880915181E-004  2.070766646126072E-007
  2.913287786138860E-004  2.070766646126072E-007
  3.073245407387078E-004  2.070766646126072E-007
  3.122546204953085E-004  2.070766646126072E-007
  3.591717501573222E-004  2.070766646126072E-007
  3.630849341176852E-004  2.070766646126072E-007
  3.764322123290703E-004  2.070766646126072E-007
  3.870406610416912E-004  2.070766646126072E-007
  3.915081992050617E-004  2.070766646126072E-007
  3.938305484513751E-004  2.070766646126072E-007
  4.085285337910392E-004  2.070766646126072E-007
  4.244861714372320E-004  2.070766646126072E-007
  4.351203631317961E-004  2.070766646126072E-007
  4.472896395899915E-004  2.070766646126072E-007
  5.325261987974217E-004  2.070766646126072E-007
  5.377587009355808E-004  2.070766646126072E-007
  5.754570830952754E-004  2.070766646126072E-007
  5.930744364267950E-004  2.070766646126072E-007
  5.930744364274626E-004  2.070766646126072E-007
  5.934283748545632E-004  2.070766646126072E-007
  5.934312174097434E-004  2.070766646126072E-007
  5.961092372578847E-004  2.070766646126072E-007
  5.973295784441411E-004  2.070766646126072E-007
  5.988325544506269E-004  2.070766646126072E-007
  5.996617862806216E-004  2.070766646126072E-007
  5.997541675275408E-004  2.070766646126072E-007
  5.998633328875874E-004  2.070766646126072E-007
  6.040567092065233E-004  2.070766646126072E-007
  6.040567301553400E-004  2.070766646126072E-007
  6.117007069562754E-004  2.070766646126072E-007
  6.229339910480013E-004  2.070766646126072E-007
  6.234574961137616E-004  2.070766646126072E-007
  6.305730051328224E-004  2.070766646126072E-007
  6.324944654513273E-004  2.070766646126072E-007
  6.383162175698320E-004  2.070766646126072E-007
  6.397632604847281E-004  2.070766646126072E-007
  6.457192895575347E-004  2.070766646126072E-007
  6.486024003118558E-004  2.070766646126072E-007
  6.501807123323594E-004  2.070766646126072E-007
  6.518324993771277E-004  2.070766646126072E-007
  6.610608779428375E-004  2.070766646126072E-007
  6.610633783686340E-004  2.070766646126072E-007
  7.338622884518384E-004  2.070766646126072E-007
  8.760849520793480E-004  2.070766646126072E-007
  9.990332601487858E-004  2.070766646126072E-007
  1.041266946456096E-003  2.070766646126072E-007
  1.041267338246169E-003  2.070766646126072E-007
  1.077479584235846E-003  2.070766646126072E-007
  1.080041736446113E-003  2.070766646126072E-007
  1.082518533374883E-003  2.070766646126072E-007
  1.092924618001475E-003  2.070766646126072E-007
  1.109108026344017E-003  2.070766646126072E-007
  1.109674975279390E-003  2.070766646126072E-007
  1.110572688460073E-003  2.070766646126072E-007
  1.111608646891432E-003  2.070766646126072E-007
  1.112410630330240E-003  2.070766646126072E-007
  1.138683658855011E-003  2.070766646126072E-007
  1.138683877468874E-003  2.070766646126072E-007
  1.150589965794720E-003  2.070766646126072E-007
  1.150996699657885E-003  2.070766646126072E-007
  1.151566633343858E-003  2.070766646126072E-007
  1.167830139441056E-003  2.070766646126072E-007
  1.168338797989121E-003  2.070766646126072E-007
  1.169140918614915E-003  2.070766646126072E-007
  1.169714354940532E-003  2.070766646126072E-007
  1.169808211012604E-003  2.070766646126072E-007
  1.173167094946357E-003  2.070766646126072E-007
  1.173167094946432E-003  2.070766646126072E-007
  1.430276619407677E-003  2.070766646126072E-007
  1.430953148021682E-003  2.070766646126072E-007
  1.551044039138393E-003  2.070766646126072E-007
  1.614033409622548E-003  2.070766646126072E-007
  1.731299409106110E-003  2.070766646126072E-007
  1.888351651386285E-003  2.070766646126072E-007
  1.992851271055894E-003  2.070766646126072E-007
  2.344130013342968E-003  2.070766646126072E-007
  2.346698149955185E-003  2.070766646126072E-007
  2.353817405697703E-003  2.070766646126072E-007
  2.361599818979368E-003  2.070766646126072E-007
  2.363313811530133E-003  2.070766646126072E-007
  2.370488569319807E-003  2.070766646126072E-007
  2.558082682711823E-003  2.070766646126072E-007
  2.726258389820587E-003  2.070766646126072E-007
  3.140243900980437E-003  2.070766646126072E-007
  3.143226324465126E-003  2.070766646126072E-007
  3.540162966639265E-003  2.070766646126072E-007
  3.602089977914196E-003  2.070766646126072E-007
  3.652870336452754E-003  2.070766646126072E-007
  3.662272329896861E-003  2.070766646126072E-007
  3.670352364679303E-003  2.070766646126072E-007
  3.681377456794621E-003  2.070766646126072E-007
  3.707151429266496E-003  2.070766646126072E-007
  3.707247853620346E-003  2.070766646126072E-007
  4.066955896467011E-003  2.070766646126072E-007
  4.066956601968544E-003  2.070766646126072E-007
 cut=1d-8, nber non-redundant internal coords=         150
 Check on Eigenvals of non-red overlap matrix:
  0.00000021  0.00000079  0.00000133  0.00000135  0.00000430  0.00000512  0.00000600  0.00000813
  0.00000919  0.00001074  0.00001677  0.00001939  0.00002247  0.00002629  0.00003019  0.00003036
  0.00003052  0.00004287  0.00004504  0.00004848  0.00005024  0.00005096  0.00005801  0.00005802
  0.00005896  0.00005908  0.00006095  0.00006389  0.00006441  0.00006469  0.00007165  0.00007868
  0.00008031  0.00008857  0.00009914  0.00010105  0.00010409  0.00010688  0.00011353  0.00011655
  0.00011826  0.00011915  0.00012203  0.00012259  0.00012330  0.00012947  0.00013555  0.00016351
  0.00019811  0.00020031  0.00023690  0.00026070  0.00026295  0.00026918  0.00027552  0.00029017
  0.00029133  0.00030732  0.00031225  0.00035917  0.00036308  0.00037643  0.00038704  0.00039151
  0.00039383  0.00040853  0.00042449  0.00043512  0.00044729  0.00053253  0.00053776  0.00057546
  0.00059307  0.00059307  0.00059343  0.00059343  0.00059611  0.00059733  0.00059883  0.00059966
  0.00059975  0.00059986  0.00060406  0.00060406  0.00061170  0.00062293  0.00062346  0.00063057
  0.00063249  0.00063832  0.00063976  0.00064572  0.00064860  0.00065018  0.00065183  0.00066106
  0.00066106  0.00073386  0.00087608  0.00099903  0.00104127  0.00104127  0.00107748  0.00108004
  0.00108252  0.00109292  0.00110911  0.00110967  0.00111057  0.00111161  0.00111241  0.00113868
  0.00113868  0.00115059  0.00115100  0.00115157  0.00116783  0.00116834  0.00116914  0.00116971
  0.00116981  0.00117317  0.00117317  0.00143028  0.00143095  0.00155104  0.00161403  0.00173130
  0.00188835  0.00199285  0.00234413  0.00234670  0.00235382  0.00236160  0.00236331  0.00237049
  0.00255808  0.00272626  0.00314024  0.00314323  0.00354016  0.00360209  0.00365287  0.00366227
  0.00367035  0.00368138  0.00370715  0.00370725  0.00406696  0.00406696
 Checking for correct frequencies
 recalc frequencies=
  -104.3  -91.0  -66.8  -34.0   -0.0   -0.0   -0.0   -0.0    0.0    0.0
    13.5   37.3   38.3   73.0   97.5  128.7  139.4  162.9  170.8  229.8
   238.3  273.2  296.5  355.7  364.1  380.2  389.3  396.1  401.3  409.6
   411.7  416.4  454.4  458.7  482.3  496.7  502.1  539.9  555.1  557.2
   626.6  631.1  632.2  648.1  661.6  671.7  673.6  694.8  694.9  726.0
   726.1  729.2  739.2  776.1  776.9  784.9  797.7  808.9  812.4  824.3
   835.6  842.0  846.0  852.5  861.7  919.2  919.3  934.3  946.9  949.3
   954.9  962.9  963.0  974.0  975.1  997.8  997.8 1011.7 1013.4 1015.3
  1019.1 1021.2 1022.4 1041.2 1054.4 1064.0 1065.4 1065.8 1111.6 1111.7
  1151.9 1164.1 1176.3 1187.8 1189.0 1209.3 1212.6 1231.0 1248.6 1251.2
  1286.8 1289.9 1292.5 1297.0 1300.2 1302.9 1313.5 1314.4 1318.8 1347.0
  1353.3 1358.1 1370.6 1372.9 1436.6 1436.8 1452.2 1480.5 1485.3 1518.9
  1525.9 1543.8 1563.4 1577.8 1579.2 1596.6 1609.9 1623.2 1623.5 1633.6
  1640.1 1646.2 1654.4 1661.2 3161.0 3161.1 3167.8 3167.8 3178.6 3179.6
  3181.7 3183.2 3185.3 3188.0 3188.2 3191.0 3193.2 3195.7 3199.7 3200.5
  3204.6 3206.2 3208.3 3210.6 3210.9 3213.8
 recalc symmetries=
     B1g    Au     B1g    Au     B3g    B2u    B3u    B1g    B2g    B1u
     B3u    B2g    B2u    B3u    B3g    B2g    Ag     B3u    B2u    B2g
     B3g    B1u    B3u    B2u    B2g    Au     B1g    Ag     Au     B3g
     B1g    Au     B2u    B3u    B3g    B2g    B1u    B3u    B3u    B2g
     Ag     B3g    B2u    B3g    B2u    B3g    B1u    B2g    B3u    B2g
     B3u    Ag     B2g    B3u    B1u    B2g    B1g    Au     Ag     B1g
     B3u    Au     B1g    B2g    B3u    B3u    B2g    Au     B2g    B1g
     B3u    B2g    Au     B1g    Au     B3u    B2g    Ag     B1u    B1u
     Ag     Ag     B1u    B1u    Ag     B1u    Ag     B1u    B2u    B3g
     B2u    B3g    B2u    B3g    B2u    Ag     B1u    Ag     Ag     B1u
     B1u    B2u    B3g    Ag     B2u    Ag     B3g    B1u    B2u    B3g
     B3g    B2u    B2u    B3g    B3g    B2u    B2u    B3g    B2u    B1u
     Ag     B1u    Ag     B1u    B3g    B2u    B3g    B2u    B3g    Ag 
     B1u    Ag     B1u    Ag     B1u    Ag     B3g    B2u    B1u    B3g
     Ag     B2u    B1u    Ag     B3g    B1u    B2u    Ag     B3g    B1u
     B2u    Ag     B3g    B1u    B2u    Ag 
 recalc freqs check OK
 Zero-point lengths:
 24.2748 25.9926 30.3324 42.5172 10.0000 10.0000 10.0000 10.0000 10.0000 10.0000
 67.4060 40.5840 40.0469 29.0143 25.1127 21.8495 20.9947 19.4250 18.9702 16.3537
 16.0586 14.9975 14.3984 13.1440 12.9927 12.7137 12.5651 12.4563 12.3755 12.2493
 12.2178 12.1484 11.6301 11.5755 11.2882 11.1236 11.0632 10.6692 10.5224 10.5021
  9.9041  9.8688  9.8594  9.7383  9.6382  9.5657  9.5520  9.4049  9.4045  9.2011
  9.2002  9.1803  9.1180  8.8987  8.8944  8.8489  8.7774  8.7168  8.6980  8.6350
  8.5761  8.5434  8.5236  8.4907  8.4452  8.1768  8.1767  8.1106  8.0564  8.0462
  8.0227  7.9892  7.9889  7.9434  7.9390  7.8482  7.8482  7.7941  7.7877  7.7802
  7.7659  7.7580  7.7532  7.6830  7.6346  7.6002  7.5954  7.5939  7.4357  7.4353
  7.3043  7.2662  7.2283  7.1932  7.1895  7.1291  7.1194  7.0660  7.0158  7.0085
  6.9111  6.9026  6.8957  6.8838  6.8752  6.8682  6.8404  6.8380  6.8266  6.7549
  6.7390  6.7271  6.6964  6.6908  6.5409  6.5404  6.5056  6.4430  6.4327  6.3610
  6.3465  6.3096  6.2699  6.2413  6.2385  6.2044  6.1786  6.1534  6.1528  6.1337
  6.1215  6.1102  6.0950  6.0824  4.4094  4.4094  4.4047  4.4047  4.3972  4.3966
  4.3951  4.3941  4.3926  4.3907  4.3906  4.3887  4.3872  4.3854  4.3827  4.3822
  4.3793  4.3782  4.3768  4.3752  4.3751  4.3731
 highest evec of mol 1
  0.0000  0.0000 -0.0053
  0.0000 -0.0082 -0.0055
  0.0000 -0.0306  0.0165
  0.0000  0.0000  0.0010
  0.0000  0.0306  0.0165
  0.0000  0.0082 -0.0055
  0.0000  0.0000 -0.0031
  0.0000  0.0566 -0.0316
  0.0000  0.0711  0.0385
  0.0000  0.0000  0.0033
  0.0000 -0.0711  0.0385
  0.0000 -0.0566 -0.0316
  0.0000  0.0000 -0.0042
  0.0000  0.0824 -0.0454
  0.0000  0.0824  0.0454
  0.0000  0.0000  0.0042
  0.0000 -0.0824  0.0454
  0.0000 -0.0824 -0.0454
  0.0000  0.0000 -0.0033
  0.0000  0.0711 -0.0385
  0.0000  0.0566  0.0316
  0.0000  0.0000  0.0031
  0.0000 -0.0566  0.0316
  0.0000 -0.0711 -0.0385
  0.0000  0.0000 -0.0010
  0.0000  0.0306 -0.0165
  0.0000  0.0082  0.0055
  0.0000  0.0000  0.0053
  0.0000 -0.0082  0.0055
  0.0000 -0.0306 -0.0165
  0.0000  0.0000  0.0162
  0.0000  0.0260  0.0150
  0.0000  0.1027 -0.0572
  0.0000 -0.1027 -0.0572
  0.0000 -0.0260  0.0150
  0.0000 -0.1872  0.1014
  0.0000 -0.2361 -0.1281
  0.0000  0.2361 -0.1281
  0.0000  0.1872  0.1014
  0.0000 -0.2733  0.1484
  0.0000 -0.2733 -0.1484
  0.0000  0.2733 -0.1484
  0.0000  0.2733  0.1484
  0.0000 -0.2361  0.1281
  0.0000 -0.1872 -0.1014
  0.0000  0.1872 -0.1014
  0.0000  0.2361  0.1281
  0.0000 -0.1027  0.0572
  0.0000 -0.0260 -0.0150
  0.0000  0.0000 -0.0162
  0.0000  0.0260 -0.0150
  0.0000  0.1027  0.0572
 generating redundant internal coords
         300        3600          52
 Adding extra bonds for z output only
           6           6           6           6           6           6
           6           6           6           6           6           6
           6           6           6           6           6           6
           6           6           6           6           6           6
           6           6           6           6           6           6
           1           1           1           1           1           1
           1           1           1           1           1           1
           1           1           1           1           1           1
           1           1           1           1
 search for int coords
   1 str   2   1   1.392
   2 str   3   2   1.390
   3 str   4   3   1.406
   4 str   5   4   1.406
   5 str   6   1   1.392
   6 str   6   5   1.390
   7 str   7   4   1.490
   8 str   8   7   1.404
   9 str   9   8   1.387
  10 str  10   9   1.405
  11 str  11  10   1.405
  12 str  12   7   1.404
  13 str  12  11   1.387
  14 str  13  10   1.486
  15 str  14  13   1.405
  16 str  15  14   1.386
  17 str  16  15   1.405
  18 str  17  16   1.405
  19 str  18  13   1.405
  20 str  18  17   1.386
  21 str  19  16   1.486
  22 str  20  19   1.405
  23 str  21  20   1.387
  24 str  22  21   1.404
  25 str  23  22   1.404
  26 str  24  19   1.405
  27 str  24  23   1.387
  28 str  25  22   1.490
  29 str  26  25   1.406
  30 str  27  26   1.390
  31 str  28  27   1.392
  32 str  29  28   1.392
  33 str  30  25   1.406
  34 str  30  29   1.390
  35 str  31   1   1.084
  36 str  32   2   1.085
  37 str  33   3   1.082
  38 str  34   5   1.082
  39 str  35   6   1.085
  40 str  36   8   1.082
  41 str  37   9   1.082
  42 str  38  11   1.082
  43 str  39  12   1.082
  44 str  40  14   1.082
  45 str  41  15   1.082
  46 str  42  17   1.082
  47 str  43  18   1.082
  48 str  44  20   1.082
  49 str  45  21   1.082
  50 str  46  23   1.082
  51 str  47  24   1.082
  52 str  48  26   1.082
  53 str  49  27   1.085
  54 str  50  28   1.084
  55 str  51  29   1.085
  56 str  52  30   1.082
 nber stretches=          56
  57 ben   1   2   3
  58 prop tor   1   2   3   4
  59 prop tor   1   2   3  33
  60 ben   1   2  32
  61 ben   1   6   5
  62 ben   1   6  35
  63 ben   2   1   6
  64 prop tor   2   1   6   5
  65 prop tor   2   1   6  35
  66 ben   2   1  31
  67 ben   2   3   4
  68 prop tor   2   3   4   5
  69 prop tor   2   3   4   7
  70 ben   2   3  33
  71 ben   3   2  32
  72 ben   3   4   5
  73 prop tor   3   4   5   6
  74 prop tor   3   4   5  34
  75 ben   3   4   7
  76 prop tor   3   4   7   8
  77 prop tor   3   4   7  12
  78 ben   4   3  33
  79 ben   4   5   6
  80 prop tor   4   5   6   1
  81 prop tor   4   5   6  35
  82 ben   4   5  34
  83 ben   4   7   8
  84 prop tor   4   7   8   9
  85 prop tor   4   7   8  36
  86 ben   4   7  12
  87 prop tor   4   7  12  11
  88 prop tor   4   7  12  39
  89 ben   5   4   7
  90 prop tor   5   4   7   8
  91 prop tor   5   4   7  12
  92 ben   5   6  35
  93 prop tor   6   1   2   3
  94 prop tor   6   1   2  32
  95 ben   6   1  31
  96 ben   6   5  34
  97 prop tor   7   4   5   6
  98 prop tor   7   4   5  34
  99 ben   7   8   9
 100 prop tor   7   8   9  10
 101 prop tor   7   8   9  37
 102 ben   7   8  36
 103 ben   7  12  11
 104 ben   7  12  39
 105 ben   8   7  12
 106 prop tor   8   7  12  11
 107 prop tor   8   7  12  39
 108 ben   8   9  10
 109 prop tor   8   9  10  11
 110 prop tor   8   9  10  13
 111 ben   8   9  37
 112 ben   9   8  36
 113 ben   9  10  11
 114 prop tor   9  10  11  12
 115 prop tor   9  10  11  38
 116 ben   9  10  13
 117 prop tor   9  10  13  14
 118 prop tor   9  10  13  18
 119 ben  10   9  37
 120 ben  10  11  12
 121 prop tor  10  11  12   7
 122 prop tor  10  11  12  39
 123 ben  10  11  38
 124 ben  10  13  14
 125 prop tor  10  13  14  15
 126 prop tor  10  13  14  40
 127 ben  10  13  18
 128 prop tor  10  13  18  17
 129 prop tor  10  13  18  43
 130 ben  11  10  13
 131 prop tor  11  10  13  14
 132 prop tor  11  10  13  18
 133 ben  11  12  39
 134 prop tor  12   7   8   9
 135 prop tor  12   7   8  36
 136 ben  12  11  38
 137 prop tor  13  10  11  12
 138 prop tor  13  10  11  38
 139 ben  13  14  15
 140 prop tor  13  14  15  16
 141 prop tor  13  14  15  41
 142 ben  13  14  40
 143 ben  13  18  17
 144 ben  13  18  43
 145 ben  14  13  18
 146 prop tor  14  13  18  17
 147 prop tor  14  13  18  43
 148 ben  14  15  16
 149 prop tor  14  15  16  17
 150 prop tor  14  15  16  19
 151 ben  14  15  41
 152 ben  15  14  40
 153 ben  15  16  17
 154 prop tor  15  16  17  18
 155 prop tor  15  16  17  42
 156 ben  15  16  19
 157 prop tor  15  16  19  20
 158 prop tor  15  16  19  24
 159 ben  16  15  41
 160 ben  16  17  18
 161 prop tor  16  17  18  13
 162 prop tor  16  17  18  43
 163 ben  16  17  42
 164 ben  16  19  20
 165 prop tor  16  19  20  21
 166 prop tor  16  19  20  44
 167 ben  16  19  24
 168 prop tor  16  19  24  23
 169 prop tor  16  19  24  47
 170 ben  17  16  19
 171 prop tor  17  16  19  20
 172 prop tor  17  16  19  24
 173 ben  17  18  43
 174 prop tor  18  13  14  15
 175 prop tor  18  13  14  40
 176 ben  18  17  42
 177 prop tor  19  16  17  18
 178 prop tor  19  16  17  42
 179 ben  19  20  21
 180 prop tor  19  20  21  22
 181 prop tor  19  20  21  45
 182 ben  19  20  44
 183 ben  19  24  23
 184 ben  19  24  47
 185 ben  20  19  24
 186 prop tor  20  19  24  23
 187 prop tor  20  19  24  47
 188 ben  20  21  22
 189 prop tor  20  21  22  23
 190 prop tor  20  21  22  25
 191 ben  20  21  45
 192 ben  21  20  44
 193 ben  21  22  23
 194 prop tor  21  22  23  24
 195 prop tor  21  22  23  46
 196 ben  21  22  25
 197 prop tor  21  22  25  26
 198 prop tor  21  22  25  30
 199 ben  22  21  45
 200 ben  22  23  24
 201 prop tor  22  23  24  19
 202 prop tor  22  23  24  47
 203 ben  22  23  46
 204 ben  22  25  26
 205 prop tor  22  25  26  27
 206 prop tor  22  25  26  48
 207 ben  22  25  30
 208 prop tor  22  25  30  29
 209 prop tor  22  25  30  52
 210 ben  23  22  25
 211 prop tor  23  22  25  26
 212 prop tor  23  22  25  30
 213 ben  23  24  47
 214 prop tor  24  19  20  21
 215 prop tor  24  19  20  44
 216 ben  24  23  46
 217 prop tor  25  22  23  24
 218 prop tor  25  22  23  46
 219 ben  25  26  27
 220 prop tor  25  26  27  28
 221 prop tor  25  26  27  49
 222 ben  25  26  48
 223 ben  25  30  29
 224 ben  25  30  52
 225 ben  26  25  30
 226 prop tor  26  25  30  29
 227 prop tor  26  25  30  52
 228 ben  26  27  28
 229 prop tor  26  27  28  29
 230 prop tor  26  27  28  50
 231 ben  26  27  49
 232 ben  27  26  48
 233 ben  27  28  29
 234 prop tor  27  28  29  30
 235 prop tor  27  28  29  51
 236 ben  27  28  50
 237 ben  28  27  49
 238 ben  28  29  30
 239 prop tor  28  29  30  25
 240 prop tor  28  29  30  52
 241 ben  28  29  51
 242 ben  29  28  50
 243 ben  29  30  52
 244 prop tor  30  25  26  27
 245 prop tor  30  25  26  48
 246 ben  30  29  51
 247 prop tor  31   1   2   3
 248 prop tor  31   1   2  32
 249 prop tor  31   1   6   5
 250 prop tor  31   1   6  35
 251 prop tor  32   2   3   4
 252 prop tor  32   2   3  33
 253 prop tor  33   3   4   5
 254 prop tor  33   3   4   7
 255 prop tor  34   5   6   1
 256 prop tor  34   5   6  35
 257 prop tor  36   8   9  10
 258 prop tor  36   8   9  37
 259 prop tor  37   9  10  11
 260 prop tor  37   9  10  13
 261 prop tor  38  11  12   7
 262 prop tor  38  11  12  39
 263 prop tor  40  14  15  16
 264 prop tor  40  14  15  41
 265 prop tor  41  15  16  17
 266 prop tor  41  15  16  19
 267 prop tor  42  17  18  13
 268 prop tor  42  17  18  43
 269 prop tor  44  20  21  22
 270 prop tor  44  20  21  45
 271 prop tor  45  21  22  23
 272 prop tor  45  21  22  25
 273 prop tor  46  23  24  19
 274 prop tor  46  23  24  47
 275 prop tor  48  26  27  28
 276 prop tor  48  26  27  49
 277 prop tor  49  27  28  29
 278 prop tor  49  27  28  50
 279 prop tor  50  28  29  30
 280 prop tor  50  28  29  51
 281 prop tor  51  29  30  25
 282 prop tor  51  29  30  52
 nber bend=              90
 nber lin bend=           0
 nber prop tor=         136
 nber impr tor=           0
 nber tot redund int=         282
 Reading file: 
 ./Phenyls_3_C0S1.log                                                           
                                          
  Entering Gaussian System, Link 0=g16                                          
  
 Gaussian format, type: g94, g98, g03= F F F
  #P Geom=AllCheck Guess=TCheck SCRF=Check GenChk RB3LYP TD(FC,Read)/6-3    
 energy type= TD      
 Original G94 input coords:
  6  0.000000  0.000000 10.097139
  6  0.000000  1.202083  9.386956
  6  0.000000  1.204365  8.000914
  6  0.000000  0.000000  7.253339
  6  0.000000 -1.204365  8.000914
  6  0.000000 -1.202083  9.386956
  6  0.000000  0.000000  5.790423
  6  0.000000 -1.201044  5.031221
  6  0.000000 -1.204738  3.657188
  6  0.000000  0.000000  2.891511
  6  0.000000  1.204738  3.657188
  6  0.000000  1.201044  5.031221
  6  0.000000  0.000000  1.451066
  6  0.000000 -1.207673  0.685116
  6  0.000000 -1.207673 -0.685116
  6  0.000000  0.000000 -1.451066
  6  0.000000  1.207673 -0.685116
  6  0.000000  1.207673  0.685116
  6  0.000000  0.000000 -2.891511
  6  0.000000 -1.204738 -3.657188
  6  0.000000 -1.201044 -5.031221
  6  0.000000  0.000000 -5.790423
  6  0.000000  1.201044 -5.031221
  6  0.000000  1.204738 -3.657188
  6  0.000000  0.000000 -7.253339
  6  0.000000 -1.204365 -8.000914
  6  0.000000 -1.202083 -9.386956
  6  0.000000  0.000000-10.097139
  6  0.000000  1.202083 -9.386956
  6  0.000000  1.204365 -8.000914
  1  0.000000  0.000000 11.180487
  1  0.000000  2.146677  9.920428
  1  0.000000  2.159728  7.493329
  1  0.000000 -2.159728  7.493329
  1  0.000000 -2.146677  9.920428
  1  0.000000 -2.158200  5.534734
  1  0.000000 -2.162736  3.154872
  1  0.000000  2.162736  3.154872
  1  0.000000  2.158200  5.534734
  1  0.000000 -2.163998  1.190487
  1  0.000000 -2.163998 -1.190487
  1  0.000000  2.163998 -1.190487
  1  0.000000  2.163998  1.190487
  1  0.000000 -2.162736 -3.154872
  1  0.000000 -2.158200 -5.534734
  1  0.000000  2.158200 -5.534734
  1  0.000000  2.162736 -3.154872
  1  0.000000 -2.159728 -7.493329
  1  0.000000 -2.146677 -9.920428
  1  0.000000  0.000000-11.180487
  1  0.000000  2.146677 -9.920428
  1  0.000000  2.159728 -7.493329
 nber atoms=          52
  Total Energy, E(TD-HF/TD-DFT) =  -1156.62189711                               
  
          32          49 "  -1156.62189711"
After scan for Atom:   Atom  AN      X      Y      Z        X      Y      Z        X      Y      Z   
After scan for Atom:   Atom  AN      X      Y      Z        X      Y      Z        X      Y      Z   
After scan for Atom:   Atom  AN      X      Y      Z        X      Y      Z        X      Y      Z   
After scan for Atom:   Atom  AN      X      Y      Z        X      Y      Z        X      Y      Z   
After scan for Atom:   Atom  AN      X      Y      Z        X      Y      Z        X      Y      Z   
After scan for Atom:   Atom  AN      X      Y      Z        X      Y      Z        X      Y      Z   
After scan for Atom:   Atom  AN      X      Y      Z        X      Y      Z        X      Y      Z   
After scan for Atom:   Atom  AN      X      Y      Z        X      Y      Z        X      Y      Z   
After scan for Atom:   Atom  AN      X      Y      Z        X      Y      Z        X      Y      Z   
After scan for Atom:   Atom  AN      X      Y      Z        X      Y      Z        X      Y      Z   
After scan for Atom:   Atom  AN      X      Y      Z        X      Y      Z        X      Y      Z   
After scan for Atom:   Atom  AN      X      Y      Z        X      Y      Z        X      Y      Z   
After scan for Atom:   Atom  AN      X      Y      Z        X      Y      Z        X      Y      Z   
After scan for Atom:   Atom  AN      X      Y      Z        X      Y      Z        X      Y      Z   
After scan for Atom:   Atom  AN      X      Y      Z        X      Y      Z        X      Y      Z   
After scan for Atom:   Atom  AN      X      Y      Z        X      Y      Z        X      Y      Z   
After scan for Atom:   Atom  AN      X      Y      Z        X      Y      Z        X      Y      Z   
After scan for Atom:   Atom  AN      X      Y      Z        X      Y      Z        X      Y      Z   
After scan for Atom:   Atom  AN      X      Y      Z        X      Y      Z        X      Y      Z   
After scan for Atom:   Atom  AN      X      Y      Z        X      Y      Z        X      Y      Z   
After scan for Atom:   Atom  AN      X      Y      Z        X      Y      Z        X      Y      Z   
After scan for Atom:   Atom  AN      X      Y      Z        X      Y      Z        X      Y      Z   
After scan for Atom:   Atom  AN      X      Y      Z        X      Y      Z        X      Y      Z   
After scan for Atom:   Atom  AN      X      Y      Z        X      Y      Z        X      Y      Z   
After scan for Atom:   Atom  AN      X      Y      Z        X      Y      Z        X      Y      Z   
After scan for Atom:   Atom  AN      X      Y      Z        X      Y      Z        X      Y      Z   
After scan for Atom:   Atom  AN      X      Y      Z        X      Y      Z        X      Y      Z   
After scan for Atom:   Atom  AN      X      Y      Z        X      Y      Z        X      Y      Z   
After scan for Atom:   Atom  AN      X      Y      Z        X      Y      Z        X      Y      Z   
After scan for Atom:   Atom  AN      X      Y      Z        X      Y      Z        X      Y      Z   
After scan for Atom:   Atom  AN      X      Y      Z        X      Y      Z        X      Y      Z   
After scan for Atom:   Atom  AN      X      Y      Z        X      Y      Z        X      Y      Z   
After scan for Atom:   Atom  AN      X      Y      Z        X      Y      Z        X      Y      Z   
After scan for Atom:   Atom  AN      X      Y      Z        X      Y      Z        X      Y      Z   
After scan for Atom:   Atom  AN      X      Y      Z        X      Y      Z        X      Y      Z   
After scan for Atom:   Atom  AN      X      Y      Z        X      Y      Z        X      Y      Z   
After scan for Atom:   Atom  AN      X      Y      Z        X      Y      Z        X      Y      Z   
After scan for Atom:   Atom  AN      X      Y      Z        X      Y      Z        X      Y      Z   
After scan for Atom:   Atom  AN      X      Y      Z        X      Y      Z        X      Y      Z   
After scan for Atom:   Atom  AN      X      Y      Z        X      Y      Z        X      Y      Z   
After scan for Atom:   Atom  AN      X      Y      Z        X      Y      Z        X      Y      Z   
After scan for Atom:   Atom  AN      X      Y      Z        X      Y      Z        X      Y      Z   
After scan for Atom:   Atom  AN      X      Y      Z        X      Y      Z        X      Y      Z   
After scan for Atom:   Atom  AN      X      Y      Z        X      Y      Z        X      Y      Z   
After scan for Atom:   Atom  AN      X      Y      Z        X      Y      Z        X      Y      Z   
After scan for Atom:   Atom  AN      X      Y      Z        X      Y      Z        X      Y      Z   
After scan for Atom:   Atom  AN      X      Y      Z        X      Y      Z        X      Y      Z   
After scan for Atom:   Atom  AN      X      Y      Z        X      Y      Z        X      Y      Z   
After scan for Atom:   Atom  AN      X      Y      Z        X      Y      Z        X      Y      Z   
After scan for Atom:   Atom  AN      X      Y      Z        X      Y      Z        X      Y      Z   
 g94    frequencies=
     0.0    0.0    0.0    0.0    0.0    0.0  -70.0  -66.7  -41.1  -15.2
    11.7   33.2   38.9   62.7   98.2  119.3  140.3  141.1  171.3  201.7
   236.8  261.9  272.2  320.6  360.5  397.4  397.6  397.9  404.6  408.5
   408.7  411.2  420.8  454.3  462.9  479.8  500.5  506.7  529.2  530.3
   614.0  620.6  625.2  634.3  649.8  658.5  669.8  679.7  680.9  702.9
   713.8  719.2  732.7  756.0  761.7  769.5  774.9  780.1  780.8  794.5
   814.3  820.1  820.6  827.8  828.4  899.8  899.9  920.4  926.5  938.8
   943.5  952.5  953.9  969.9  970.4  984.7  989.5  989.5  990.3  993.9
   997.2 1003.1 1006.9 1011.3 1029.2 1032.6 1052.1 1053.4 1111.2 1111.3
  1155.2 1157.3 1162.0 1184.2 1184.3 1208.4 1211.1 1225.2 1230.0 1268.3
  1281.0 1296.6 1297.3 1299.8 1304.1 1321.5 1338.0 1340.1 1340.6 1348.7
  1359.0 1367.8 1368.9 1371.1 1456.4 1461.9 1468.0 1478.8 1489.2 1495.0
  1508.7 1513.2 1513.7 1523.5 1530.3 1540.8 1555.2 1589.4 1589.4 1590.7
  1626.1 1642.7 1653.7 1673.3 3159.5 3159.8 3165.4 3165.4 3179.8 3181.2
  3183.8 3185.1 3187.1 3189.4 3190.4 3192.9 3195.6 3197.8 3202.1 3203.3
  3208.0 3209.6 3212.1 3213.7 3214.7 3217.5
 g94    symmetries=
                                                B1     AU     B1     AU
      ?A     ?A     B2     B3     B3     B2     AG     B3     B2     B2
      B3     B3     B1     B2     B2     B1     AG     AU     AU     B1
      AU     B3     B3     B2     B2     B3     B3     B1     ?A     ?A
      AG     B3     B2     B3     B2     B3     B1     B2     B3     B2
      B3     AG     B2     B1     B1     B3     AU     B2     B1     AG
      B3     AU     B1     ?A     ?A     ?A     ?A     AU     B2     B1
      B3     AU     B2     B1     AU     AG     ?A     ?A     B1     B1
      AG     B1     AG     B1     AG     B1     B1     AG     ?A     ?A
      B2     B3     B2     B3     B2     AG     B1     B1     AG     AG
      B3     B2     B3     B2     B1     AG     B3     B3     B2     B2
      B1     B2     B3     AG     B3     B2     B3     B2     B1     B2
      B3     AG     B1     B3     B2     AG     B1     ?A     ?A     B1
      AG     B1     AG     AG     B1     AG     ?A     ?A     B1     B3
      AG     B2     B1     AG     B3     B1     B2     AG     B3     B1
      B2     AG     B3     B1     B2     AG
 atomic masses:
 12.0000 12.0000 12.0000 12.0000 12.0000 12.0000 12.0000 12.0000 12.0000 12.0000
 12.0000 12.0000 12.0000 12.0000 12.0000 12.0000 12.0000 12.0000 12.0000 12.0000
 12.0000 12.0000 12.0000 12.0000 12.0000 12.0000 12.0000 12.0000 12.0000 12.0000
  1.0078  1.0078  1.0078  1.0078  1.0078  1.0078  1.0078  1.0078  1.0078  1.0078
  1.0078  1.0078  1.0078  1.0078  1.0078  1.0078  1.0078  1.0078  1.0078  1.0078
  1.0078  1.0078
 looking for force constants in 
 ./Phenyls_3_C0S1.fchk                                                          
  
 Cartesian Force Constants                  R   N=       12246                  
  
 n3=         156       12246
 g94-fc frequencies=
   -70.0  -66.7  -41.1  -15.2   -0.0   -0.0    0.0    0.6    1.4    7.7
    11.7   33.2   38.9   62.7   98.2  119.3  140.3  141.1  171.3  201.7
   236.8  261.9  272.2  320.7  360.5  397.4  397.6  397.9  404.6  408.5
   408.7  411.2  420.8  454.3  462.9  479.8  500.5  506.7  529.2  530.3
   614.0  620.6  625.2  634.3  649.8  658.5  669.8  679.7  680.9  702.9
   713.8  719.2  732.7  756.0  761.7  769.6  774.9  780.1  780.8  794.5
   814.4  820.1  820.6  827.8  828.4  899.9  899.9  920.4  926.5  938.8
   943.6  952.5  953.9  970.0  970.4  984.7  989.5  989.6  990.3  993.9
   997.2 1003.1 1006.9 1011.4 1029.2 1032.6 1052.1 1053.4 1111.2 1111.4
  1155.3 1157.3 1162.1 1184.2 1184.3 1208.4 1211.1 1225.3 1230.0 1268.3
  1281.0 1296.6 1297.3 1299.8 1304.1 1321.5 1338.0 1340.1 1340.7 1348.7
  1359.1 1367.8 1368.9 1371.2 1456.4 1461.9 1468.0 1478.8 1489.2 1495.0
  1508.7 1513.2 1513.7 1523.6 1530.4 1540.8 1555.2 1589.5 1589.5 1590.8
  1626.1 1642.8 1653.8 1673.3 3159.6 3159.9 3165.5 3165.5 3179.9 3181.3
  3183.9 3185.2 3187.1 3189.5 3190.5 3192.9 3195.7 3197.8 3202.2 3203.4
  3208.1 3209.6 3212.2 3213.8 3214.7 3217.6
 at 99999: n3=         156
 symm operator            1 :  T  nop=           1
 symm operator            2 :  T  nop=           2
 symm operator            3 :  T  nop=           3
 symm operator            4 :  T  nop=           4
 symm operator            5 :  T  nop=           5
 symm operator            6 :  T  nop=           6
 symm operator            7 :  T  nop=           7
 The point group of the molecule is D2H
 enforcing symm op           1  jsymt=          -1          -1           1
 enforcing symm op           2  jsymt=          -1           1          -1
 enforcing symm op           3  jsymt=           1          -1          -1
 enforcing symm op           4  jsymt=          -1          -1          -1
 enforcing symm op           5  jsymt=           1           1          -1
 enforcing symm op           6  jsymt=           1          -1           1
 enforcing symm op           7  jsymt=          -1           1           1
 cartesian coord symmetries:
 Ag :   26 Au :   10 B1g:   10 B1u:   26 B2g:   16 B2u:   26 B3g:   26 B3u:   16
 Symmetry rotation matrix:
   1.00000   0.00000   0.00000
   0.00000   1.00000   0.00000
   0.00000   0.00000   1.00000

 Projecting out zero-frequency components
 generating redundant internal coords
         300        3600          52
 search for int coords
   1 str   2   1   1.396
   2 str   3   2   1.386
   3 str   4   3   1.418
   4 str   5   4   1.418
   5 str   6   1   1.396
   6 str   6   5   1.386
   7 str   7   4   1.463
   8 str   8   7   1.421
   9 str   9   8   1.374
  10 str  10   9   1.427
  11 str  11  10   1.427
  12 str  12   7   1.421
  13 str  12  11   1.374
  14 str  13  10   1.440
  15 str  14  13   1.430
  16 str  15  14   1.370
  17 str  16  15   1.430
  18 str  17  16   1.430
  19 str  18  13   1.430
  20 str  18  17   1.370
  21 str  19  16   1.440
  22 str  20  19   1.427
  23 str  21  20   1.374
  24 str  22  21   1.421
  25 str  23  22   1.421
  26 str  24  19   1.427
  27 str  24  23   1.374
  28 str  25  22   1.463
  29 str  26  25   1.418
  30 str  27  26   1.386
  31 str  28  27   1.396
  32 str  29  28   1.396
  33 str  30  25   1.418
  34 str  30  29   1.386
  35 str  31   1   1.083
  36 str  32   2   1.085
  37 str  33   3   1.082
  38 str  34   5   1.082
  39 str  35   6   1.085
  40 str  36   8   1.082
  41 str  37   9   1.082
  42 str  38  11   1.082
  43 str  39  12   1.082
  44 str  40  14   1.082
  45 str  41  15   1.082
  46 str  42  17   1.082
  47 str  43  18   1.082
  48 str  44  20   1.082
  49 str  45  21   1.082
  50 str  46  23   1.082
  51 str  47  24   1.082
  52 str  48  26   1.082
  53 str  49  27   1.085
  54 str  50  28   1.083
  55 str  51  29   1.085
  56 str  52  30   1.082
 nber stretches=          56
  57 ben   1   2   3
  58 prop tor   1   2   3   4
  59 prop tor   1   2   3  33
  60 ben   1   2  32
  61 ben   1   6   5
  62 ben   1   6  35
  63 ben   2   1   6
  64 prop tor   2   1   6   5
  65 prop tor   2   1   6  35
  66 ben   2   1  31
  67 ben   2   3   4
  68 prop tor   2   3   4   5
  69 prop tor   2   3   4   7
  70 ben   2   3  33
  71 ben   3   2  32
  72 ben   3   4   5
  73 prop tor   3   4   5   6
  74 prop tor   3   4   5  34
  75 ben   3   4   7
  76 prop tor   3   4   7   8
  77 prop tor   3   4   7  12
  78 ben   4   3  33
  79 ben   4   5   6
  80 prop tor   4   5   6   1
  81 prop tor   4   5   6  35
  82 ben   4   5  34
  83 ben   4   7   8
  84 prop tor   4   7   8   9
  85 prop tor   4   7   8  36
  86 ben   4   7  12
  87 prop tor   4   7  12  11
  88 prop tor   4   7  12  39
  89 ben   5   4   7
  90 prop tor   5   4   7   8
  91 prop tor   5   4   7  12
  92 ben   5   6  35
  93 prop tor   6   1   2   3
  94 prop tor   6   1   2  32
  95 ben   6   1  31
  96 ben   6   5  34
  97 prop tor   7   4   5   6
  98 prop tor   7   4   5  34
  99 ben   7   8   9
 100 prop tor   7   8   9  10
 101 prop tor   7   8   9  37
 102 ben   7   8  36
 103 ben   7  12  11
 104 ben   7  12  39
 105 ben   8   7  12
 106 prop tor   8   7  12  11
 107 prop tor   8   7  12  39
 108 ben   8   9  10
 109 prop tor   8   9  10  11
 110 prop tor   8   9  10  13
 111 ben   8   9  37
 112 ben   9   8  36
 113 ben   9  10  11
 114 prop tor   9  10  11  12
 115 prop tor   9  10  11  38
 116 ben   9  10  13
 117 prop tor   9  10  13  14
 118 prop tor   9  10  13  18
 119 ben  10   9  37
 120 ben  10  11  12
 121 prop tor  10  11  12   7
 122 prop tor  10  11  12  39
 123 ben  10  11  38
 124 ben  10  13  14
 125 prop tor  10  13  14  15
 126 prop tor  10  13  14  40
 127 ben  10  13  18
 128 prop tor  10  13  18  17
 129 prop tor  10  13  18  43
 130 ben  11  10  13
 131 prop tor  11  10  13  14
 132 prop tor  11  10  13  18
 133 ben  11  12  39
 134 prop tor  12   7   8   9
 135 prop tor  12   7   8  36
 136 ben  12  11  38
 137 prop tor  13  10  11  12
 138 prop tor  13  10  11  38
 139 ben  13  14  15
 140 prop tor  13  14  15  16
 141 prop tor  13  14  15  41
 142 ben  13  14  40
 143 ben  13  18  17
 144 ben  13  18  43
 145 ben  14  13  18
 146 prop tor  14  13  18  17
 147 prop tor  14  13  18  43
 148 ben  14  15  16
 149 prop tor  14  15  16  17
 150 prop tor  14  15  16  19
 151 ben  14  15  41
 152 ben  15  14  40
 153 ben  15  16  17
 154 prop tor  15  16  17  18
 155 prop tor  15  16  17  42
 156 ben  15  16  19
 157 prop tor  15  16  19  20
 158 prop tor  15  16  19  24
 159 ben  16  15  41
 160 ben  16  17  18
 161 prop tor  16  17  18  13
 162 prop tor  16  17  18  43
 163 ben  16  17  42
 164 ben  16  19  20
 165 prop tor  16  19  20  21
 166 prop tor  16  19  20  44
 167 ben  16  19  24
 168 prop tor  16  19  24  23
 169 prop tor  16  19  24  47
 170 ben  17  16  19
 171 prop tor  17  16  19  20
 172 prop tor  17  16  19  24
 173 ben  17  18  43
 174 prop tor  18  13  14  15
 175 prop tor  18  13  14  40
 176 ben  18  17  42
 177 prop tor  19  16  17  18
 178 prop tor  19  16  17  42
 179 ben  19  20  21
 180 prop tor  19  20  21  22
 181 prop tor  19  20  21  45
 182 ben  19  20  44
 183 ben  19  24  23
 184 ben  19  24  47
 185 ben  20  19  24
 186 prop tor  20  19  24  23
 187 prop tor  20  19  24  47
 188 ben  20  21  22
 189 prop tor  20  21  22  23
 190 prop tor  20  21  22  25
 191 ben  20  21  45
 192 ben  21  20  44
 193 ben  21  22  23
 194 prop tor  21  22  23  24
 195 prop tor  21  22  23  46
 196 ben  21  22  25
 197 prop tor  21  22  25  26
 198 prop tor  21  22  25  30
 199 ben  22  21  45
 200 ben  22  23  24
 201 prop tor  22  23  24  19
 202 prop tor  22  23  24  47
 203 ben  22  23  46
 204 ben  22  25  26
 205 prop tor  22  25  26  27
 206 prop tor  22  25  26  48
 207 ben  22  25  30
 208 prop tor  22  25  30  29
 209 prop tor  22  25  30  52
 210 ben  23  22  25
 211 prop tor  23  22  25  26
 212 prop tor  23  22  25  30
 213 ben  23  24  47
 214 prop tor  24  19  20  21
 215 prop tor  24  19  20  44
 216 ben  24  23  46
 217 prop tor  25  22  23  24
 218 prop tor  25  22  23  46
 219 ben  25  26  27
 220 prop tor  25  26  27  28
 221 prop tor  25  26  27  49
 222 ben  25  26  48
 223 ben  25  30  29
 224 ben  25  30  52
 225 ben  26  25  30
 226 prop tor  26  25  30  29
 227 prop tor  26  25  30  52
 228 ben  26  27  28
 229 prop tor  26  27  28  29
 230 prop tor  26  27  28  50
 231 ben  26  27  49
 232 ben  27  26  48
 233 ben  27  28  29
 234 prop tor  27  28  29  30
 235 prop tor  27  28  29  51
 236 ben  27  28  50
 237 ben  28  27  49
 238 ben  28  29  30
 239 prop tor  28  29  30  25
 240 prop tor  28  29  30  52
 241 ben  28  29  51
 242 ben  29  28  50
 243 ben  29  30  52
 244 prop tor  30  25  26  27
 245 prop tor  30  25  26  48
 246 ben  30  29  51
 247 prop tor  31   1   2   3
 248 prop tor  31   1   2  32
 249 prop tor  31   1   6   5
 250 prop tor  31   1   6  35
 251 prop tor  32   2   3   4
 252 prop tor  32   2   3  33
 253 prop tor  33   3   4   5
 254 prop tor  33   3   4   7
 255 prop tor  34   5   6   1
 256 prop tor  34   5   6  35
 257 prop tor  36   8   9  10
 258 prop tor  36   8   9  37
 259 prop tor  37   9  10  11
 260 prop tor  37   9  10  13
 261 prop tor  38  11  12   7
 262 prop tor  38  11  12  39
 263 prop tor  40  14  15  16
 264 prop tor  40  14  15  41
 265 prop tor  41  15  16  17
 266 prop tor  41  15  16  19
 267 prop tor  42  17  18  13
 268 prop tor  42  17  18  43
 269 prop tor  44  20  21  22
 270 prop tor  44  20  21  45
 271 prop tor  45  21  22  23
 272 prop tor  45  21  22  25
 273 prop tor  46  23  24  19
 274 prop tor  46  23  24  47
 275 prop tor  48  26  27  28
 276 prop tor  48  26  27  49
 277 prop tor  49  27  28  29
 278 prop tor  49  27  28  50
 279 prop tor  50  28  29  30
 280 prop tor  50  28  29  51
 281 prop tor  51  29  30  25
 282 prop tor  51  29  30  52
 nber bend=              90
 nber lin bend=           0
 nber prop tor=         136
 nber impr tor=           0
 nber tot redund int=         282
 Eigenvalues of G in red int coords
    Gval -0.00000000 -0.00000000 -0.00000000 -0.00000000 -0.00000000 -0.00000000 -0.00000000 -0.00000000
    Gval -0.00000000 -0.00000000 -0.00000000 -0.00000000 -0.00000000 -0.00000000 -0.00000000 -0.00000000
    Gval -0.00000000 -0.00000000 -0.00000000 -0.00000000 -0.00000000 -0.00000000 -0.00000000 -0.00000000
    Gval -0.00000000 -0.00000000 -0.00000000 -0.00000000 -0.00000000 -0.00000000 -0.00000000 -0.00000000
    Gval -0.00000000 -0.00000000 -0.00000000 -0.00000000 -0.00000000 -0.00000000 -0.00000000 -0.00000000
    Gval -0.00000000 -0.00000000 -0.00000000 -0.00000000 -0.00000000 -0.00000000 -0.00000000 -0.00000000
    Gval -0.00000000 -0.00000000 -0.00000000 -0.00000000 -0.00000000 -0.00000000 -0.00000000 -0.00000000
    Gval -0.00000000 -0.00000000 -0.00000000 -0.00000000 -0.00000000 -0.00000000 -0.00000000 -0.00000000
    Gval  0.00000000  0.00000000  0.00000000  0.00000000  0.00000000  0.00000000  0.00000000  0.00000000
    Gval  0.00000000  0.00000000  0.00000000  0.00000000  0.00000000  0.00000000  0.00000000  0.00000000
    Gval  0.00000000  0.00000000  0.00000000  0.00000000  0.00000000  0.00000000  0.00000000  0.00000000
    Gval  0.00000000  0.00000000  0.00000000  0.00000000  0.00000000  0.00000000  0.00000000  0.00000000
    Gval  0.00000000  0.00000000  0.00000000  0.00000000  0.00000000  0.00000000  0.00000000  0.00000000
    Gval  0.00000000  0.00000000  0.00000000  0.00000000  0.00000000  0.00000000  0.00000000  0.00000000
    Gval  0.00000000  0.00000000  0.00000000  0.00000000  0.00000000  0.00000000  0.00000000  0.00000000
    Gval  0.00000000  0.00000000  0.00000000  0.00000000  0.00000000  0.00000000  0.00000000  0.00000000
    Gval  0.00000000  0.00000000  0.00000000  0.00000000  0.00000021  0.00000081  0.00000132  0.00000135
    Gval  0.00000431  0.00000510  0.00000609  0.00000809  0.00000915  0.00001070  0.00001669  0.00001965
    Gval  0.00002278  0.00002629  0.00003006  0.00003010  0.00003017  0.00004287  0.00004502  0.00004845
    Gval  0.00005019  0.00005086  0.00005783  0.00005792  0.00005894  0.00005897  0.00006014  0.00006375
    Gval  0.00006486  0.00006498  0.00007156  0.00007912  0.00008027  0.00008685  0.00009935  0.00010183
    Gval  0.00010430  0.00010806  0.00011395  0.00011632  0.00011813  0.00011887  0.00012190  0.00012271
    Gval  0.00012325  0.00013056  0.00013481  0.00016577  0.00019995  0.00020136  0.00023790  0.00025696
    Gval  0.00026048  0.00026988  0.00027109  0.00028694  0.00029023  0.00030203  0.00031508  0.00035619
    Gval  0.00036037  0.00037260  0.00038323  0.00038916  0.00039952  0.00041412  0.00043001  0.00044164
    Gval  0.00045323  0.00053694  0.00054119  0.00058166  0.00059307  0.00059307  0.00059343  0.00059343
    Gval  0.00059603  0.00059732  0.00059892  0.00059941  0.00059953  0.00059960  0.00060385  0.00060385
    Gval  0.00061637  0.00061718  0.00062290  0.00062351  0.00063256  0.00064023  0.00064380  0.00064659
    Gval  0.00064719  0.00064886  0.00065021  0.00066049  0.00066049  0.00074297  0.00087608  0.00099988
    Gval  0.00104109  0.00104109  0.00107614  0.00107906  0.00108130  0.00109684  0.00110605  0.00110752
    Gval  0.00110829  0.00110967  0.00110984  0.00113931  0.00113931  0.00115248  0.00115275  0.00115353
    Gval  0.00116850  0.00116880  0.00116941  0.00116978  0.00117014  0.00117255  0.00117255  0.00142594
    Gval  0.00142714  0.00153215  0.00160214  0.00172164  0.00188309  0.00199350  0.00232866  0.00233666
    Gval  0.00234211  0.00235084  0.00235245  0.00235404  0.00255754  0.00273110  0.00314367  0.00314706
    Gval  0.00354026  0.00360442  0.00365754  0.00365760  0.00366550  0.00367623  0.00370298  0.00370307
    Gval  0.00406226  0.00406226
  2.083260535687216E-007  2.083260535687216E-007
  8.065237261117123E-007  2.083260535687216E-007
  1.321014389993851E-006  2.083260535687216E-007
  1.354801401658996E-006  2.083260535687216E-007
  4.310954441321714E-006  2.083260535687216E-007
  5.098179271671216E-006  2.083260535687216E-007
  6.091949578881369E-006  2.083260535687216E-007
  8.094252511781639E-006  2.083260535687216E-007
  9.150407406370642E-006  2.083260535687216E-007
  1.069505079564288E-005  2.083260535687216E-007
  1.668566718288062E-005  2.083260535687216E-007
  1.965319516830041E-005  2.083260535687216E-007
  2.278248712521552E-005  2.083260535687216E-007
  2.628994852006136E-005  2.083260535687216E-007
  3.006370553838129E-005  2.083260535687216E-007
  3.010209001690719E-005  2.083260535687216E-007
  3.016701478232991E-005  2.083260535687216E-007
  4.287286472612051E-005  2.083260535687216E-007
  4.501836907369189E-005  2.083260535687216E-007
  4.844862967433841E-005  2.083260535687216E-007
  5.018972485399456E-005  2.083260535687216E-007
  5.085932420231766E-005  2.083260535687216E-007
  5.783465794633259E-005  2.083260535687216E-007
  5.792337682721239E-005  2.083260535687216E-007
  5.894125721803911E-005  2.083260535687216E-007
  5.897147353291555E-005  2.083260535687216E-007
  6.013696215068297E-005  2.083260535687216E-007
  6.375142740291669E-005  2.083260535687216E-007
  6.486183924051705E-005  2.083260535687216E-007
  6.498158761839160E-005  2.083260535687216E-007
  7.156055771143103E-005  2.083260535687216E-007
  7.912373345931304E-005  2.083260535687216E-007
  8.026511085769671E-005  2.083260535687216E-007
  8.684840194619132E-005  2.083260535687216E-007
  9.935055276424170E-005  2.083260535687216E-007
  1.018332935593091E-004  2.083260535687216E-007
  1.043001276280050E-004  2.083260535687216E-007
  1.080608393699177E-004  2.083260535687216E-007
  1.139452391487467E-004  2.083260535687216E-007
  1.163156534412966E-004  2.083260535687216E-007
  1.181346848770294E-004  2.083260535687216E-007
  1.188748162292456E-004  2.083260535687216E-007
  1.219024803384498E-004  2.083260535687216E-007
  1.227140439512315E-004  2.083260535687216E-007
  1.232536479726529E-004  2.083260535687216E-007
  1.305606355164767E-004  2.083260535687216E-007
  1.348073404540094E-004  2.083260535687216E-007
  1.657667546519700E-004  2.083260535687216E-007
  1.999532486068778E-004  2.083260535687216E-007
  2.013607103055445E-004  2.083260535687216E-007
  2.379024312976732E-004  2.083260535687216E-007
  2.569647967169724E-004  2.083260535687216E-007
  2.604842225050020E-004  2.083260535687216E-007
  2.698825693691946E-004  2.083260535687216E-007
  2.710917705282939E-004  2.083260535687216E-007
  2.869372378334875E-004  2.083260535687216E-007
  2.902322601221842E-004  2.083260535687216E-007
  3.020304667040007E-004  2.083260535687216E-007
  3.150762974839981E-004  2.083260535687216E-007
  3.561941978161660E-004  2.083260535687216E-007
  3.603661167823691E-004  2.083260535687216E-007
  3.725999694751974E-004  2.083260535687216E-007
  3.832314685698317E-004  2.083260535687216E-007
  3.891562071898204E-004  2.083260535687216E-007
  3.995238584825424E-004  2.083260535687216E-007
  4.141213604375951E-004  2.083260535687216E-007
  4.300062149801471E-004  2.083260535687216E-007
  4.416357268501566E-004  2.083260535687216E-007
  4.532328035437795E-004  2.083260535687216E-007
  5.369432054940740E-004  2.083260535687216E-007
  5.411929259155585E-004  2.083260535687216E-007
  5.816594674470241E-004  2.083260535687216E-007
  5.930662496407593E-004  2.083260535687216E-007
  5.930662496413976E-004  2.083260535687216E-007
  5.934263315663739E-004  2.083260535687216E-007
  5.934298230474475E-004  2.083260535687216E-007
  5.960348536137634E-004  2.083260535687216E-007
  5.973192995425567E-004  2.083260535687216E-007
  5.989227699004355E-004  2.083260535687216E-007
  5.994125541483278E-004  2.083260535687216E-007
  5.995260110805674E-004  2.083260535687216E-007
  5.996001736821698E-004  2.083260535687216E-007
  6.038522320174104E-004  2.083260535687216E-007
  6.038522483762975E-004  2.083260535687216E-007
  6.163740246286791E-004  2.083260535687216E-007
  6.171772980312620E-004  2.083260535687216E-007
  6.229025253277316E-004  2.083260535687216E-007
  6.235116806798317E-004  2.083260535687216E-007
  6.325587972586270E-004  2.083260535687216E-007
  6.402321986309086E-004  2.083260535687216E-007
  6.437996426335189E-004  2.083260535687216E-007
  6.465888419832389E-004  2.083260535687216E-007
  6.471869092029798E-004  2.083260535687216E-007
  6.488613867923914E-004  2.083260535687216E-007
  6.502111065874966E-004  2.083260535687216E-007
  6.604884984598715E-004  2.083260535687216E-007
  6.604900744369696E-004  2.083260535687216E-007
  7.429702588595203E-004  2.083260535687216E-007
  8.760829466375301E-004  2.083260535687216E-007
  9.998801895097836E-004  2.083260535687216E-007
  1.041090406020010E-003  2.083260535687216E-007
  1.041090863874616E-003  2.083260535687216E-007
  1.076136883141118E-003  2.083260535687216E-007
  1.079058018255141E-003  2.083260535687216E-007
  1.081295777503751E-003  2.083260535687216E-007
  1.096842426451250E-003  2.083260535687216E-007
  1.106053141228982E-003  2.083260535687216E-007
  1.107518024923833E-003  2.083260535687216E-007
  1.108291979073374E-003  2.083260535687216E-007
  1.109672062060234E-003  2.083260535687216E-007
  1.109840969501735E-003  2.083260535687216E-007
  1.139314106676950E-003  2.083260535687216E-007
  1.139314270929614E-003  2.083260535687216E-007
  1.152483786765439E-003  2.083260535687216E-007
  1.152752095598274E-003  2.083260535687216E-007
  1.153534128577980E-003  2.083260535687216E-007
  1.168496148639541E-003  2.083260535687216E-007
  1.168798996946732E-003  2.083260535687216E-007
  1.169408968881028E-003  2.083260535687216E-007
  1.169781692229125E-003  2.083260535687216E-007
  1.170142343812040E-003  2.083260535687216E-007
  1.172546258680359E-003  2.083260535687216E-007
  1.172546258680447E-003  2.083260535687216E-007
  1.425935904000043E-003  2.083260535687216E-007
  1.427141147008416E-003  2.083260535687216E-007
  1.532148489174492E-003  2.083260535687216E-007
  1.602141612774951E-003  2.083260535687216E-007
  1.721643356357947E-003  2.083260535687216E-007
  1.883085868633293E-003  2.083260535687216E-007
  1.993501680168558E-003  2.083260535687216E-007
  2.328664388001145E-003  2.083260535687216E-007
  2.336658768357303E-003  2.083260535687216E-007
  2.342109720384969E-003  2.083260535687216E-007
  2.350842103593126E-003  2.083260535687216E-007
  2.352447340482153E-003  2.083260535687216E-007
  2.354042806341377E-003  2.083260535687216E-007
  2.557538290616796E-003  2.083260535687216E-007
  2.731102804479055E-003  2.083260535687216E-007
  3.143672381613888E-003  2.083260535687216E-007
  3.147061849706362E-003  2.083260535687216E-007
  3.540260304759675E-003  2.083260535687216E-007
  3.604415294103843E-003  2.083260535687216E-007
  3.657539991778337E-003  2.083260535687216E-007
  3.657596257692111E-003  2.083260535687216E-007
  3.665500120055093E-003  2.083260535687216E-007
  3.676228309080786E-003  2.083260535687216E-007
  3.702983536148885E-003  2.083260535687216E-007
  3.703067525851619E-003  2.083260535687216E-007
  4.062258877517755E-003  2.083260535687216E-007
  4.062259732865030E-003  2.083260535687216E-007
 cut=1d-8, nber non-redundant internal coords=         150
 Check on Eigenvals of non-red overlap matrix:
  0.00000021  0.00000081  0.00000132  0.00000135  0.00000431  0.00000510  0.00000609  0.00000809
  0.00000915  0.00001070  0.00001669  0.00001965  0.00002278  0.00002629  0.00003006  0.00003010
  0.00003017  0.00004287  0.00004502  0.00004845  0.00005019  0.00005086  0.00005783  0.00005792
  0.00005894  0.00005897  0.00006014  0.00006375  0.00006486  0.00006498  0.00007156  0.00007912
  0.00008027  0.00008685  0.00009935  0.00010183  0.00010430  0.00010806  0.00011395  0.00011632
  0.00011813  0.00011887  0.00012190  0.00012271  0.00012325  0.00013056  0.00013481  0.00016577
  0.00019995  0.00020136  0.00023790  0.00025696  0.00026048  0.00026988  0.00027109  0.00028694
  0.00029023  0.00030203  0.00031508  0.00035619  0.00036037  0.00037260  0.00038323  0.00038916
  0.00039952  0.00041412  0.00043001  0.00044164  0.00045323  0.00053694  0.00054119  0.00058166
  0.00059307  0.00059307  0.00059343  0.00059343  0.00059603  0.00059732  0.00059892  0.00059941
  0.00059953  0.00059960  0.00060385  0.00060385  0.00061637  0.00061718  0.00062290  0.00062351
  0.00063256  0.00064023  0.00064380  0.00064659  0.00064719  0.00064886  0.00065021  0.00066049
  0.00066049  0.00074297  0.00087608  0.00099988  0.00104109  0.00104109  0.00107614  0.00107906
  0.00108130  0.00109684  0.00110605  0.00110752  0.00110829  0.00110967  0.00110984  0.00113931
  0.00113931  0.00115248  0.00115275  0.00115353  0.00116850  0.00116880  0.00116941  0.00116978
[...]
 nber times 1st assigned=          65           0
 nber times 1st assigned=          66           0
 nber times 1st assigned=          67           0
 nber times 1st assigned=          68           0
 nber times 1st assigned=          69           0
 nber times 1st assigned=          70           0
 nber times 1st assigned=          71           0
 nber times 1st assigned=          72           0
 nber times 1st assigned=          73           0
 nber times 1st assigned=          74           0
 nber times 1st assigned=          75           0
 nber times 1st assigned=          76           0
 nber times 1st assigned=          77           0
 nber times 1st assigned=          78           0
 nber times 1st assigned=          79           0
 nber times 1st assigned=          80           0
 nber times 1st assigned=          81           0
 nber times 1st assigned=          82           0
 nber times 1st assigned=          83           0
 nber times 1st assigned=          84           0
 nber times 1st assigned=          85           0
 nber times 1st assigned=          86           0
 nber times 1st assigned=          87           0
 nber times 1st assigned=          88           0
 nber times 1st assigned=          89           0
 nber times 1st assigned=          90           0
 nber times 1st assigned=          91           0
 nber times 1st assigned=          92           0
 nber times 1st assigned=          93           0
 nber times 1st assigned=          94           0
 nber times 1st assigned=          95           0
 nber times 1st assigned=          96           0
 nber times 1st assigned=          97           0
 nber times 1st assigned=          98           0
 nber times 1st assigned=          99           0
 nber times 1st assigned=         100           0
 nber times 1st assigned=         101           0
 nber times 1st assigned=         102           0
 nber times 1st assigned=         103           0
 nber times 1st assigned=         104           0
 nber times 1st assigned=         105           0
 nber times 1st assigned=         106           0
 nber times 1st assigned=         107           0
 nber times 1st assigned=         108           0
 nber times 1st assigned=         109           0
 nber times 1st assigned=         110           0
 nber times 1st assigned=         111           0
 nber times 1st assigned=         112           0
 nber times 1st assigned=         113           0
 nber times 1st assigned=         114           0
 nber times 1st assigned=         115           0
 nber times 1st assigned=         116           0
 nber times 1st assigned=         117           0
 nber times 1st assigned=         118           0
 nber times 1st assigned=         119           0
 nber times 1st assigned=         120           0
 nber times 1st assigned=         121           0
 nber times 1st assigned=         122           0
 nber times 1st assigned=         123           0
 nber times 1st assigned=         124           0
 nber times 1st assigned=         125           0
 nber times 1st assigned=         126           0
 nber times 1st assigned=         127           0
 nber times 1st assigned=         128           0
 nber times 1st assigned=         129           0
 nber times 1st assigned=         130           0
 nber times 1st assigned=         131           0
 nber times 1st assigned=         132           0
 nber times 1st assigned=         133           0
 nber times 1st assigned=         134           0
 nber times 1st assigned=         135           0
 nber times 1st assigned=         136           0
 nber times 1st assigned=         137           0
 nber times 1st assigned=         138           0
 nber times 1st assigned=         139           0
 nber times 1st assigned=         140           0
 nber times 1st assigned=         141           0
 nber times 1st assigned=         142           0
 nber times 1st assigned=         143           0
 nber times 1st assigned=         144           0
 nber times 1st assigned=         145           0
 nber times 1st assigned=         146           0
 nber times 1st assigned=         147           0
 nber times 1st assigned=         148           0
 nber times 1st assigned=         149           0
 nber times 1st assigned=         150           0
 nber times 1st assigned=         151           0
 nber times 1st assigned=         152           0
 nber times 1st assigned=         153           0
 nber times 1st assigned=         154           0
 nber times 1st assigned=         155           0
 nber times 1st assigned=         156           0
 modes represented=   150.047100245541     
 p1=
   -0.    0.   -0.   -0.   -0.   -0.    0.   -0.   -0.   -0.   -0.   -0.   -0.    0.   -0.   -0.   20.    0.   -0.   -0.
   -0.   -0.   -0.   -0.    0.    0.    0.    0.   -0.   -0.   -0.    0.    0.    0.   -0.    0.    0.    0.   -0.   -0.
   -0.   -0.   -0.    0.    0.    0.   -0.   -0.    0.    0.    0.    0.    0.   -0.    0.   -0.   -0.   -0.   -4.   -0.
    0.   -0.   -0.    0.    0.   -0.   -0.   -0.    0.   -0.   -0.    0.    0.   -0.    0.   -0.    0.   -1.   -0.    0.
   -1.    1.   -0.    0.    0.    0.   -1.   -0.   -0.   -0.   -0.   -0.    0.    0.   -0.    0.   -0.   -0.   -6.   -0.
    0.   -0.    0.   -1.    0.    2.    0.   -0.    0.    0.    0.    0.    0.   -0.    0.   -0.    0.    0.   -0.   -0.
    1.   -0.    0.   -0.   -0.    0.    0.   -0.   -0.   -6.   -0.    1.   -0.   -0.    0.   -0.   -0.    0.   -0.   -0.
   -0.    0.   -0.    0.   -0.   -0.   -0.   -0.   -0.    0.   -0.    0.   -0.   -0.    0.   -0.
 p2=
    0.    0.    0.    0.    0.    0.    0.    0.   -0.   -0.    0.   -0.    0.    0.    0.    0.   19.   -0.    0.    0.
   -0.    0.   -0.   -0.    0.   -0.   -0.   -0.   -0.    0.   -0.   -0.   -0.    0.   -0.   -0.    0.    0.    0.   -0.
   -0.   -0.   -0.    0.   -0.    0.   -0.   -0.   -0.   -0.    0.    1.   -0.    0.    0.    0.   -0.    0.    0.   -5.
   -0.   -0.   -0.   -0.    0.   -0.    0.    0.   -0.    0.    0.    0.    0.    0.   -0.   -0.    0.   -0.   -0.   -0.
    0.    0.    1.   -0.   -1.    0.    0.    1.   -0.   -0.    0.    0.   -0.    0.   -0.    0.   -0.   -0.    0.    5.
   -0.    0.    0.    0.    0.   -1.    0.   -0.    0.    0.    0.   -0.    0.    4.    0.   -0.   -0.    0.   -0.    0.
    0.   -1.   -0.    0.   -0.    0.    0.    0.   -0.    0.   -1.    0.   -0.    6.   -0.    0.   -0.   -0.   -0.    0.
   -0.   -0.    0.   -0.    0.    0.   -0.    0.   -0.   -0.   -0.    0.   -0.    0.   -0.    0.

 Displacement: in terms of nc of 1 THEN of nc of 2

   1 B1g freq=  -104. Q= -0.000 lam=    -0.0 B1g freq=   -70. Q= -0.000 lam=    -0.0
   2 Au  freq=   -91. Q=  0.000 lam=    -0.0 Au  freq=   -67. Q=  0.000 lam=    -0.0
   3 B1g freq=   -67. Q= -0.000 lam=    -0.0 B1g freq=   -41. Q= -0.000 lam=    -0.0
   4 Au  freq=   -34. Q= -0.000 lam=    -0.0 Au  freq=   -15. Q= -0.000 lam=    -0.0
   5 B3g freq=    -0. Q= -0.000 lam=    -0.0 B3u freq=    -0. Q= -0.000 lam=    -0.0
   6 B2u freq=    -0. Q= -0.000 lam=    -0.0 B2u freq=    -0. Q= -0.000 lam=    -0.0
   7 B3u freq=    -0. Q=  0.000 lam=    -0.0 B1g freq=    -0. Q=  0.000 lam=    -0.0
   8 B1g freq=    -0. Q= -0.000 lam=    -0.0 B2g freq=     0. Q= -0.000 lam=     0.0
   9 B2g freq=     0. Q= -0.000 lam=     0.0 B3g freq=     0. Q= -0.000 lam=     0.0
  10 B1u freq=     0. Q= -0.000 lam=     0.0 B1u freq=     0. Q= -0.000 lam=     0.0
  11 B3u freq=    14. Q= -0.000 lam=     0.0 B3u freq=    12. Q= -0.000 lam=     0.0
  12 B2g freq=    37. Q= -0.000 lam=     0.0 B2g freq=    33. Q= -0.000 lam=     0.0
  13 B2u freq=    38. Q= -0.000 lam=     0.0 B2u freq=    39. Q= -0.000 lam=     0.0
  14 B3u freq=    73. Q=  0.000 lam=     0.0 B3u freq=    63. Q=  0.000 lam=     0.0
  15 B3g freq=    97. Q= -0.000 lam=     0.0 B3g freq=    98. Q= -0.000 lam=     0.0
  16 B2g freq=   129. Q= -0.000 lam=     0.0 B2g freq=   119. Q= -0.000 lam=     0.0
  17 Ag  freq=   139. Q=  0.948 lam=    62.7 Ag  freq=   140. Q=  0.931 lam=    60.8
  18 B3u freq=   163. Q=  0.000 lam=     0.0 B3u freq=   141. Q=  0.000 lam=     0.0
  19 B2u freq=   171. Q= -0.000 lam=     0.0 B2u freq=   171. Q= -0.000 lam=     0.0
  20 B2g freq=   230. Q= -0.000 lam=     0.0 B2g freq=   202. Q= -0.000 lam=     0.0
  21 B3g freq=   238. Q= -0.000 lam=     0.0 B3g freq=   237. Q= -0.000 lam=     0.0
  22 B1u freq=   273. Q= -0.000 lam=     0.0 B3u freq=   262. Q= -0.000 lam=     0.0
  23 B3u freq=   296. Q= -0.000 lam=     0.0 B1u freq=   272. Q= -0.000 lam=     0.0
  24 B2u freq=   356. Q= -0.000 lam=     0.0 B2g freq=   321. Q= -0.000 lam=     0.0
  25 B2g freq=   364. Q=  0.000 lam=     0.0 B2u freq=   361. Q=  0.000 lam=     0.0
  26 Au  freq=   380. Q=  0.000 lam=     0.0 B1g freq=   397. Q=  0.000 lam=     0.0
  27 B1g freq=   389. Q=  0.000 lam=     0.0 Ag  freq=   398. Q=  0.034 lam=     0.2
  28 Ag  freq=   396. Q=  0.036 lam=     0.3 Au  freq=   398. Q=  0.000 lam=     0.0
  29 Au  freq=   401. Q= -0.000 lam=     0.0 Au  freq=   405. Q= -0.000 lam=     0.0
  30 B3g freq=   410. Q= -0.000 lam=     0.0 B1g freq=   408. Q= -0.000 lam=     0.0
  31 B1g freq=   412. Q= -0.000 lam=     0.0 Au  freq=   409. Q= -0.000 lam=     0.0
  32 Au  freq=   416. Q=  0.000 lam=     0.0 B3g freq=   411. Q=  0.000 lam=     0.0
  33 B2u freq=   454. Q=  0.000 lam=     0.0 B3u freq=   421. Q=  0.000 lam=     0.0
  34 B3u freq=   459. Q=  0.000 lam=     0.0 B2u freq=   454. Q=  0.000 lam=     0.0
  35 B3g freq=   482. Q= -0.000 lam=     0.0 B2g freq=   463. Q= -0.000 lam=     0.0
  36 B2g freq=   497. Q=  0.000 lam=     0.0 B3g freq=   480. Q=  0.000 lam=     0.0
  37 B1u freq=   502. Q=  0.000 lam=     0.0 B3u freq=   500. Q=  0.000 lam=     0.0
  38 B3u freq=   540. Q=  0.000 lam=     0.0 B1u freq=   507. Q=  0.000 lam=     0.0
  39 B3u freq=   555. Q= -0.000 lam=     0.0 B2g freq=   529. Q= -0.000 lam=     0.0
  40 B2g freq=   557. Q= -0.000 lam=     0.0 B3u freq=   530. Q= -0.000 lam=     0.0
  41 Ag  freq=   627. Q= -0.003 lam=     0.0 Ag  freq=   614. Q= -0.000 lam=     0.0
  42 B3g freq=   631. Q= -0.000 lam=     0.0 B3g freq=   621. Q= -0.000 lam=     0.0
  43 B2u freq=   632. Q= -0.000 lam=     0.0 B2u freq=   625. Q= -0.000 lam=     0.0
  44 B3g freq=   648. Q=  0.000 lam=     0.0 B3g freq=   634. Q=  0.000 lam=     0.0
  45 B2u freq=   662. Q=  0.000 lam=     0.0 B2u freq=   650. Q=  0.000 lam=     0.0
  46 B3g freq=   672. Q=  0.000 lam=     0.0 B3g freq=   659. Q=  0.000 lam=     0.0
  47 B1u freq=   674. Q= -0.000 lam=     0.0 B1u freq=   670. Q= -0.000 lam=     0.0
  48 B2g freq=   695. Q= -0.000 lam=     0.0 B2g freq=   680. Q= -0.000 lam=     0.0
  49 B3u freq=   695. Q=  0.000 lam=     0.0 B3u freq=   681. Q=  0.000 lam=     0.0
  50 B2g freq=   726. Q=  0.000 lam=     0.0 B2g freq=   703. Q=  0.000 lam=     0.0
  51 B3u freq=   726. Q=  0.000 lam=     0.0 B3u freq=   714. Q=  0.000 lam=     0.0
  52 Ag  freq=   729. Q=  0.028 lam=     0.3 Ag  freq=   719. Q=  0.068 lam=     1.6
  53 B2g freq=   739. Q=  0.000 lam=     0.0 B2g freq=   733. Q=  0.000 lam=     0.0
  54 B3u freq=   776. Q= -0.000 lam=     0.0 B1u freq=   756. Q= -0.000 lam=     0.0
  55 B1u freq=   777. Q=  0.000 lam=     0.0 B1g freq=   762. Q=  0.000 lam=     0.0
  56 B2g freq=   785. Q= -0.000 lam=     0.0 B3u freq=   770. Q= -0.000 lam=     0.0
  57 B1g freq=   798. Q= -0.000 lam=     0.0 Au  freq=   775. Q= -0.000 lam=     0.0
  58 Au  freq=   809. Q= -0.000 lam=     0.0 B2g freq=   780. Q= -0.000 lam=     0.0
  59 Ag  freq=   812. Q= -0.469 lam=    89.5 B1g freq=   781. Q= -0.000 lam=     0.0
  60 B1g freq=   824. Q= -0.000 lam=     0.0 Ag  freq=   795. Q= -0.515 lam=   105.4
  61 B3u freq=   836. Q=  0.000 lam=     0.0 B3u freq=   814. Q=  0.000 lam=     0.0
  62 Au  freq=   842. Q= -0.000 lam=     0.0 Au  freq=   820. Q= -0.000 lam=     0.0
  63 B1g freq=   846. Q= -0.000 lam=     0.0 B1g freq=   821. Q= -0.000 lam=     0.0
  64 B2g freq=   852. Q=  0.000 lam=     0.0 B2g freq=   828. Q=  0.000 lam=     0.0
  65 B3u freq=   862. Q=  0.000 lam=     0.0 B3u freq=   828. Q=  0.000 lam=     0.0
  66 B3u freq=   919. Q= -0.000 lam=     0.0 B2g freq=   900. Q= -0.000 lam=     0.0
  67 B2g freq=   919. Q= -0.000 lam=     0.0 B3u freq=   900. Q= -0.000 lam=     0.0
  68 Au  freq=   934. Q= -0.000 lam=     0.0 Au  freq=   920. Q= -0.000 lam=     0.0
  69 B2g freq=   947. Q=  0.000 lam=     0.0 B2g freq=   927. Q=  0.000 lam=     0.0
  70 B1g freq=   949. Q= -0.000 lam=     0.0 B1g freq=   939. Q= -0.000 lam=     0.0
  71 B3u freq=   955. Q= -0.000 lam=     0.0 B3u freq=   944. Q= -0.000 lam=     0.0
  72 B2g freq=   963. Q=  0.000 lam=     0.0 Au  freq=   952. Q=  0.000 lam=     0.0
  73 Au  freq=   963. Q=  0.000 lam=     0.0 B2g freq=   954. Q=  0.000 lam=     0.0
  74 B1g freq=   974. Q= -0.000 lam=     0.0 B1g freq=   970. Q= -0.000 lam=     0.0
  75 Au  freq=   975. Q=  0.000 lam=     0.0 Au  freq=   970. Q=  0.000 lam=     0.0
  76 B3u freq=   998. Q= -0.000 lam=     0.0 Ag  freq=   985. Q= -0.033 lam=     0.5
  77 B2g freq=   998. Q=  0.000 lam=     0.0 B3u freq=   990. Q=  0.000 lam=     0.0
  78 Ag  freq=  1012. Q= -0.132 lam=     8.9 B2g freq=   990. Q= -0.000 lam=     0.0
  79 B1u freq=  1013. Q= -0.000 lam=     0.0 B1u freq=   990. Q= -0.000 lam=     0.0
  80 B1u freq=  1015. Q=  0.000 lam=     0.0 B1u freq=   994. Q=  0.000 lam=     0.0
  81 Ag  freq=  1019. Q= -0.168 lam=    14.4 Ag  freq=   997. Q= -0.026 lam=     0.3
  82 Ag  freq=  1021. Q=  0.137 lam=     9.6 B1u freq=  1003. Q=  0.000 lam=     0.0
  83 B1u freq=  1022. Q= -0.000 lam=     0.0 Ag  freq=  1007. Q= -0.188 lam=    17.8
  84 B1u freq=  1041. Q=  0.000 lam=     0.0 B1u freq=  1011. Q=  0.000 lam=     0.0
  85 Ag  freq=  1054. Q=  0.038 lam=     0.8 Ag  freq=  1029. Q=  0.156 lam=    12.5
  86 B1u freq=  1064. Q=  0.000 lam=     0.0 B1u freq=  1033. Q=  0.000 lam=     0.0
  87 Ag  freq=  1065. Q= -0.141 lam=    10.6 B1u freq=  1052. Q= -0.000 lam=     0.0
  88 B1u freq=  1066. Q= -0.000 lam=     0.0 Ag  freq=  1053. Q= -0.120 lam=     7.6
  89 B2u freq=  1112. Q= -0.000 lam=     0.0 B3g freq=  1111. Q= -0.000 lam=     0.0
  90 B3g freq=  1112. Q= -0.000 lam=     0.0 B2u freq=  1111. Q= -0.000 lam=     0.0
  91 B2u freq=  1152. Q= -0.000 lam=     0.0 B2u freq=  1155. Q= -0.000 lam=     0.0
  92 B3g freq=  1164. Q= -0.000 lam=     0.0 B3g freq=  1157. Q= -0.000 lam=     0.0
  93 B2u freq=  1176. Q=  0.000 lam=     0.0 B2u freq=  1162. Q=  0.000 lam=     0.0
  94 B3g freq=  1188. Q=  0.000 lam=     0.0 B3g freq=  1184. Q=  0.000 lam=     0.0
  95 B2u freq=  1189. Q= -0.000 lam=     0.0 B2u freq=  1184. Q= -0.000 lam=     0.0
  96 Ag  freq=  1209. Q=  0.025 lam=     0.4 Ag  freq=  1208. Q=  0.016 lam=     0.1
  97 B1u freq=  1213. Q= -0.000 lam=     0.0 B1u freq=  1211. Q= -0.000 lam=     0.0
  98 Ag  freq=  1231. Q= -0.011 lam=     0.1 B1u freq=  1225. Q= -0.000 lam=     0.0
  99 Ag  freq=  1249. Q= -0.922 lam=   530.7 Ag  freq=  1230. Q= -0.012 lam=     0.1
 100 B1u freq=  1251. Q= -0.000 lam=     0.0 Ag  freq=  1268. Q= -0.687 lam=   299.3
 101 B1u freq=  1287. Q=  0.000 lam=     0.0 B3g freq=  1281. Q=  0.000 lam=     0.0
 102 B2u freq=  1290. Q= -0.000 lam=     0.0 B2u freq=  1297. Q= -0.000 lam=     0.0
 103 B3g freq=  1292. Q=  0.000 lam=     0.0 B3g freq=  1297. Q=  0.000 lam=     0.0
 104 Ag  freq=  1297. Q= -0.160 lam=    16.6 B2u freq=  1300. Q= -0.000 lam=     0.0
 105 B2u freq=  1300. Q=  0.000 lam=     0.0 B1u freq=  1304. Q=  0.000 lam=     0.0
 106 Ag  freq=  1303. Q=  0.343 lam=    76.8 Ag  freq=  1321. Q=  0.165 lam=    18.1
 107 B3g freq=  1313. Q=  0.000 lam=     0.0 B3g freq=  1338. Q=  0.000 lam=     0.0
 108 B1u freq=  1314. Q= -0.000 lam=     0.0 B3g freq=  1340. Q= -0.000 lam=     0.0
 109 B2u freq=  1319. Q=  0.000 lam=     0.0 B2u freq=  1341. Q=  0.000 lam=     0.0
 110 B3g freq=  1347. Q=  0.000 lam=     0.0 B2u freq=  1349. Q=  0.000 lam=     0.0
 111 B3g freq=  1353. Q=  0.000 lam=     0.0 B1u freq=  1359. Q=  0.000 lam=     0.0
 112 B2u freq=  1358. Q=  0.000 lam=     0.0 B2u freq=  1368. Q=  0.000 lam=     0.0
 113 B2u freq=  1371. Q=  0.000 lam=     0.0 B3g freq=  1369. Q=  0.000 lam=     0.0
 114 B3g freq=  1373. Q= -0.000 lam=     0.0 Ag  freq=  1371. Q= -0.603 lam=   249.6
 115 B3g freq=  1437. Q=  0.000 lam=     0.0 B3g freq=  1456. Q=  0.000 lam=     0.0
 116 B2u freq=  1437. Q= -0.000 lam=     0.0 B2u freq=  1462. Q= -0.000 lam=     0.0
 117 B2u freq=  1452. Q=  0.000 lam=     0.0 B3g freq=  1468. Q=  0.000 lam=     0.0
 118 B3g freq=  1480. Q=  0.000 lam=     0.0 B2u freq=  1479. Q=  0.000 lam=     0.0
 119 B2u freq=  1485. Q= -0.000 lam=     0.0 B1u freq=  1489. Q= -0.000 lam=     0.0
 120 B1u freq=  1519. Q= -0.000 lam=     0.0 B2u freq=  1495. Q= -0.000 lam=     0.0
 121 Ag  freq=  1526. Q=  0.179 lam=    24.4 B3g freq=  1509. Q=  0.000 lam=     0.0
 122 B1u freq=  1544. Q= -0.000 lam=     0.0 Ag  freq=  1513. Q= -0.226 lam=    38.8
 123 Ag  freq=  1563. Q=  0.049 lam=     1.9 B1u freq=  1514. Q=  0.000 lam=     0.0
 124 B1u freq=  1578. Q= -0.000 lam=     0.0 B3g freq=  1524. Q= -0.000 lam=     0.0
 125 B3g freq=  1579. Q= -0.000 lam=     0.0 B2u freq=  1530. Q= -0.000 lam=     0.0
 126 B2u freq=  1597. Q=  0.000 lam=     0.0 Ag  freq=  1541. Q=  0.013 lam=     0.1
 127 B3g freq=  1610. Q=  0.000 lam=     0.0 B1u freq=  1555. Q=  0.000 lam=     0.0
 128 B2u freq=  1623. Q= -0.000 lam=     0.0 B2u freq=  1589. Q= -0.000 lam=     0.0
 129 B3g freq=  1623. Q= -0.000 lam=     0.0 B3g freq=  1589. Q= -0.000 lam=     0.0
 130 Ag  freq=  1634. Q= -0.924 lam=   696.7 B1u freq=  1591. Q= -0.000 lam=     0.0
 131 B1u freq=  1640. Q= -0.000 lam=     0.0 Ag  freq=  1626. Q= -0.120 lam=    11.7
 132 Ag  freq=  1646. Q=  0.202 lam=    33.6 B1u freq=  1643. Q=  0.000 lam=     0.0
 133 B1u freq=  1654. Q= -0.000 lam=     0.0 Ag  freq=  1654. Q= -0.066 lam=     3.6
 134 Ag  freq=  1661. Q= -0.028 lam=     0.6 Ag  freq=  1673. Q= -1.017 lam=   864.6
 135 B1u freq=  3161. Q=  0.000 lam=     0.0 B1u freq=  3160. Q=  0.000 lam=     0.0
 136 Ag  freq=  3161. Q= -0.006 lam=     0.1 Ag  freq=  3160. Q= -0.006 lam=     0.1
 137 B3g freq=  3168. Q= -0.000 lam=     0.0 B2u freq=  3165. Q= -0.000 lam=     0.0
 138 B2u freq=  3168. Q=  0.000 lam=     0.0 B3g freq=  3165. Q=  0.000 lam=     0.0
 139 B1u freq=  3179. Q= -0.000 lam=     0.0 B1u freq=  3180. Q= -0.000 lam=     0.0
 140 B3g freq=  3179. Q= -0.000 lam=     0.0 B3g freq=  3181. Q= -0.000 lam=     0.0
 141 Ag  freq=  3182. Q= -0.002 lam=     0.0 Ag  freq=  3184. Q= -0.002 lam=     0.0
 142 B2u freq=  3183. Q=  0.000 lam=     0.0 B2u freq=  3185. Q=  0.000 lam=     0.0
 143 B1u freq=  3185. Q= -0.000 lam=     0.0 B1u freq=  3187. Q= -0.000 lam=     0.0
 144 Ag  freq=  3188. Q=  0.000 lam=     0.0 Ag  freq=  3189. Q=  0.002 lam=     0.0
 145 B3g freq=  3188. Q= -0.000 lam=     0.0 B3g freq=  3190. Q= -0.000 lam=     0.0
 146 B1u freq=  3191. Q= -0.000 lam=     0.0 B1u freq=  3193. Q= -0.000 lam=     0.0
 147 B2u freq=  3193. Q= -0.000 lam=     0.0 B2u freq=  3196. Q= -0.000 lam=     0.0
 148 Ag  freq=  3196. Q= -0.001 lam=     0.0 Ag  freq=  3198. Q= -0.002 lam=     0.0
 149 B3g freq=  3200. Q= -0.000 lam=     0.0 B3g freq=  3202. Q= -0.000 lam=     0.0
 150 B1u freq=  3200. Q=  0.000 lam=     0.0 B1u freq=  3203. Q=  0.000 lam=     0.0
 151 B2u freq=  3205. Q= -0.000 lam=     0.0 B2u freq=  3208. Q= -0.000 lam=     0.0
 152 Ag  freq=  3206. Q=  0.004 lam=     0.0 Ag  freq=  3210. Q=  0.005 lam=     0.0
 153 B3g freq=  3208. Q= -0.000 lam=     0.0 B3g freq=  3212. Q= -0.000 lam=     0.0
 154 B1u freq=  3211. Q= -0.000 lam=     0.0 B1u freq=  3214. Q= -0.000 lam=     0.0
 155 B2u freq=  3211. Q=  0.000 lam=     0.0 B2u freq=  3215. Q=  0.000 lam=     0.0
 156 Ag  freq=  3214. Q= -0.022 lam=     0.8 Ag  freq=  3218. Q= -0.021 lam=     0.7

 total reorg energy (cm**-1, kcal/mol)=     1580.     1694.      4.52      4.84
 Nber of molecules processed=           2
