 Enter ifcurve (0=recti, 1=orth curvi, 2=apprx curvi, -1 = skip
 And atom ordering flag, 0= never changes, 1= use the first order thenceforth,
  2= deduce it (does read on fail), 3= always read it
 Reading file: 
 ./PDI_2_C0S1.log                                                               
                                          
  Entering Gaussian System, Link 0=g16                                          
  
 Gaussian format, type: g94, g98, g03= F F F
  #P Geom=AllCheck Guess=TCheck SCRF=Check GenChk RB3LYP TD(FC,Read)/6-3    
 energy type= TD      
 Original G94 input coords:
  6  1.077333  0.385222 -0.049287
  6  2.579664  0.089896  0.007061
  6  3.158669  0.133743  1.424859
  7  2.918629 -1.192281 -0.689760
  6  2.415216 -2.397894 -0.186216
  8  1.705469 -2.427695  0.808656
  6  2.775996 -3.637963 -0.906060
  6  2.291170 -4.863566 -0.433269
  6  2.610098 -6.039004 -1.081984
  6  3.433651 -6.052509 -2.241728
  6  3.775386 -7.271994 -2.929151
  6  3.311385 -8.543707 -2.493613
  6  3.646314 -9.704293 -3.160815
  6  4.461620 -9.659660 -4.297885
  6  4.799319-10.922828 -4.986107
  8  4.389418-12.003623 -4.593609
  7  5.618804-10.817413 -6.118936
  6  5.984084-12.043503 -6.839728
  6  6.128632 -9.619102 -6.631345
  8  6.836707 -9.622986 -7.625913
  6  5.768783 -8.379598 -5.915939
  6  6.252981 -7.154211 -6.387912
  6  5.932545 -5.979298 -5.738857
  6  5.108405 -5.967917 -4.579859
  6  4.766122 -4.748547 -3.892446
  6  5.228754 -3.475544 -4.326880
  6  4.893364 -2.315666 -3.658744
  6  4.078417 -2.362208 -2.520763
  6  3.739179 -1.101185 -1.829623
  8  4.155964 -0.026365 -2.233551
  6  3.596019 -3.602450 -2.053193
  6  3.934655 -4.810826 -2.734660
  6  4.607484 -7.210482 -4.087203
  6  4.946604 -8.419303 -4.768412
  1  0.898654  1.392554  0.336700
  1  0.504654 -0.322991  0.548091
  1  0.715740  0.354912 -1.080381
  1  3.094244  0.837893 -0.591968
  1  2.671412 -0.585800  2.081562
  1  3.014136  1.136260  1.836787
  1  4.232789 -0.068412  1.410244
  1  1.664230 -4.860411  0.448972
  1  2.218124 -6.966339 -0.688950
  1  2.680026 -8.616416 -1.619467
  1  3.289663-10.669051 -2.823746
  1  5.515432-12.879143 -6.329782
  1  7.068537-12.157675 -6.847681
  1  5.639229-11.980786 -7.872271
  1  6.880785 -7.156535 -7.269748
  1  6.323816 -5.051203 -6.130732
  1  5.859592 -3.401314 -5.201292
  1  5.249176 -1.350603 -3.995446
 nber atoms=          52
  Total Energy, E(TD-HF/TD-DFT) =  -1488.64115086                               
  
          32          49 "  -1488.64115086"
After scan for Atom:   Atom  AN      X      Y      Z        X      Y      Z        X      Y      Z   
After scan for Atom:   Atom  AN      X      Y      Z        X      Y      Z        X      Y      Z   
After scan for Atom:   Atom  AN      X      Y      Z        X      Y      Z        X      Y      Z   
After scan for Atom:   Atom  AN      X      Y      Z        X      Y      Z        X      Y      Z   
After scan for Atom:   Atom  AN      X      Y      Z        X      Y      Z        X      Y      Z   
After scan for Atom:   Atom  AN      X      Y      Z        X      Y      Z        X      Y      Z   
After scan for Atom:   Atom  AN      X      Y      Z        X      Y      Z        X      Y      Z   
After scan for Atom:   Atom  AN      X      Y      Z        X      Y      Z        X      Y      Z   
After scan for Atom:   Atom  AN      X      Y      Z        X      Y      Z        X      Y      Z   
After scan for Atom:   Atom  AN      X      Y      Z        X      Y      Z        X      Y      Z   
After scan for Atom:   Atom  AN      X      Y      Z        X      Y      Z        X      Y      Z   
After scan for Atom:   Atom  AN      X      Y      Z        X      Y      Z        X      Y      Z   
After scan for Atom:   Atom  AN      X      Y      Z        X      Y      Z        X      Y      Z   
After scan for Atom:   Atom  AN      X      Y      Z        X      Y      Z        X      Y      Z   
After scan for Atom:   Atom  AN      X      Y      Z        X      Y      Z        X      Y      Z   
After scan for Atom:   Atom  AN      X      Y      Z        X      Y      Z        X      Y      Z   
After scan for Atom:   Atom  AN      X      Y      Z        X      Y      Z        X      Y      Z   
After scan for Atom:   Atom  AN      X      Y      Z        X      Y      Z        X      Y      Z   
After scan for Atom:   Atom  AN      X      Y      Z        X      Y      Z        X      Y      Z   
After scan for Atom:   Atom  AN      X      Y      Z        X      Y      Z        X      Y      Z   
After scan for Atom:   Atom  AN      X      Y      Z        X      Y      Z        X      Y      Z   
After scan for Atom:   Atom  AN      X      Y      Z        X      Y      Z        X      Y      Z   
After scan for Atom:   Atom  AN      X      Y      Z        X      Y      Z        X      Y      Z   
After scan for Atom:   Atom  AN      X      Y      Z        X      Y      Z        X      Y      Z   
After scan for Atom:   Atom  AN      X      Y      Z        X      Y      Z        X      Y      Z   
After scan for Atom:   Atom  AN      X      Y      Z        X      Y      Z        X      Y      Z   
After scan for Atom:   Atom  AN      X      Y      Z        X      Y      Z        X      Y      Z   
After scan for Atom:   Atom  AN      X      Y      Z        X      Y      Z        X      Y      Z   
After scan for Atom:   Atom  AN      X      Y      Z        X      Y      Z        X      Y      Z   
After scan for Atom:   Atom  AN      X      Y      Z        X      Y      Z        X      Y      Z   
After scan for Atom:   Atom  AN      X      Y      Z        X      Y      Z        X      Y      Z   
After scan for Atom:   Atom  AN      X      Y      Z        X      Y      Z        X      Y      Z   
After scan for Atom:   Atom  AN      X      Y      Z        X      Y      Z        X      Y      Z   
After scan for Atom:   Atom  AN      X      Y      Z        X      Y      Z        X      Y      Z   
After scan for Atom:   Atom  AN      X      Y      Z        X      Y      Z        X      Y      Z   
After scan for Atom:   Atom  AN      X      Y      Z        X      Y      Z        X      Y      Z   
After scan for Atom:   Atom  AN      X      Y      Z        X      Y      Z        X      Y      Z   
After scan for Atom:   Atom  AN      X      Y      Z        X      Y      Z        X      Y      Z   
After scan for Atom:   Atom  AN      X      Y      Z        X      Y      Z        X      Y      Z   
After scan for Atom:   Atom  AN      X      Y      Z        X      Y      Z        X      Y      Z   
After scan for Atom:   Atom  AN      X      Y      Z        X      Y      Z        X      Y      Z   
After scan for Atom:   Atom  AN      X      Y      Z        X      Y      Z        X      Y      Z   
After scan for Atom:   Atom  AN      X      Y      Z        X      Y      Z        X      Y      Z   
After scan for Atom:   Atom  AN      X      Y      Z        X      Y      Z        X      Y      Z   
After scan for Atom:   Atom  AN      X      Y      Z        X      Y      Z        X      Y      Z   
After scan for Atom:   Atom  AN      X      Y      Z        X      Y      Z        X      Y      Z   
After scan for Atom:   Atom  AN      X      Y      Z        X      Y      Z        X      Y      Z   
After scan for Atom:   Atom  AN      X      Y      Z        X      Y      Z        X      Y      Z   
After scan for Atom:   Atom  AN      X      Y      Z        X      Y      Z        X      Y      Z   
After scan for Atom:   Atom  AN      X      Y      Z        X      Y      Z        X      Y      Z   
 g94    frequencies=
     0.0    0.0    0.0    0.0    0.0    0.0   23.8   29.2   50.8   56.0
    63.8   78.3   86.7   92.8  105.5  119.7  167.9  170.2  185.6  186.0
   202.6  208.8  234.6  235.4  257.3  271.0  271.0  288.4  303.2  335.8
   338.3  369.7  391.0  395.9  413.3  418.0  432.5  438.9  441.8  447.2
   473.7  483.1  483.6  496.6  506.6  513.9  542.5  567.3  567.4  574.1
   593.0  605.3  614.7  631.8  652.3  672.0  700.0  707.1  710.3  726.9
   752.8  757.7  758.9  764.4  798.9  803.9  808.9  813.9  821.9  826.5
   832.0  843.9  888.5  912.5  925.9  945.3  951.7  956.6  973.9  975.5
   987.2  987.5 1014.2 1040.7 1066.9 1092.7 1101.8 1136.6 1153.1 1155.5
  1159.9 1169.2 1185.6 1194.4 1195.9 1223.8 1232.6 1240.4 1242.7 1251.1
  1295.7 1299.1 1316.0 1319.0 1350.5 1360.5 1365.9 1382.2 1383.1 1391.9
  1400.2 1403.5 1416.1 1429.4 1435.2 1443.7 1449.1 1466.3 1467.4 1484.9
  1492.5 1496.0 1497.5 1505.3 1505.8 1511.3 1522.5 1546.6 1555.3 1569.9
  1580.3 1598.4 1599.4 1622.1 1685.2 1695.6 1724.2 1734.4 3034.1 3038.2
  3061.1 3092.0 3095.2 3112.4 3120.2 3132.4 3142.8 3182.4 3197.6 3198.0
  3204.4 3204.7 3212.5 3212.6 3223.6 3223.9
 g94    symmetries=
                                                 A      A      A      A
       A      A      A      A      A      A      A      A      A      A
       A      A      A      A      A      A      A      A      A      A
       A      A      A      A      A      A      A      A      A      A
       A      A      A      A      A      A      A      A      A      A
       A      A      A      A      A      A      A      A      A      A
       A      A      A      A      A      A      A      A      A      A
       A      A      A      A      A      A      A      A      A      A
       A      A      A      A      A      A      A      A      A      A
       A      A      A      A      A      A      A      A      A      A
       A      A      A      A      A      A      A      A      A      A
       A      A      A      A      A      A      A      A      A      A
       A      A      A      A      A      A      A      A      A      A
       A      A      A      A      A      A      A      A      A      A
       A      A      A      A      A      A      A      A      A      A
       A      A      A      A      A      A
 atomic masses:
 12.0000 12.0000 12.0000 14.0031 12.0000 15.9949 12.0000 12.0000 12.0000 12.0000
 12.0000 12.0000 12.0000 12.0000 12.0000 15.9949 14.0031 12.0000 12.0000 15.9949
 12.0000 12.0000 12.0000 12.0000 12.0000 12.0000 12.0000 12.0000 12.0000 15.9949
 12.0000 12.0000 12.0000 12.0000  1.0078  1.0078  1.0078  1.0078  1.0078  1.0078
  1.0078  1.0078  1.0078  1.0078  1.0078  1.0078  1.0078  1.0078  1.0078  1.0078
  1.0078  1.0078
 looking for force constants in 
 ./PDI_2_C0S1.fchk                                                              
  
 Cartesian Force Constants                  R   N=       12246                  
  
 n3=         156       12246
 g94-fc frequencies=
    -1.7   -0.0   -0.0   -0.0    1.0    3.3   23.8   29.2   50.8   56.0
    63.8   78.3   86.7   92.8  105.5  119.7  167.9  170.2  185.6  186.0
   202.6  208.8  234.6  235.5  257.3  271.0  271.0  288.5  303.2  335.8
   338.3  369.7  391.0  395.9  413.3  418.0  432.5  439.0  441.8  447.2
   473.7  483.1  483.6  496.6  506.7  513.9  542.5  567.3  567.4  574.2
   593.0  605.3  614.7  631.9  652.3  672.0  700.1  707.1  710.3  726.9
   752.8  757.7  758.9  764.4  798.9  803.9  808.9  813.9  821.9  826.5
   832.0  843.9  888.5  912.5  925.9  945.3  951.8  956.6  973.9  975.5
   987.2  987.5 1014.2 1040.8 1066.9 1092.8 1101.8 1136.6 1153.2 1155.5
  1160.0 1169.3 1185.6 1194.4 1196.0 1223.8 1232.6 1240.4 1242.8 1251.1
  1295.7 1299.2 1316.0 1319.0 1350.6 1360.5 1365.9 1382.3 1383.1 1392.0
  1400.2 1403.6 1416.2 1429.4 1435.3 1443.7 1449.1 1466.3 1467.4 1484.9
  1492.6 1496.0 1497.6 1505.3 1505.9 1511.3 1522.5 1546.7 1555.3 1569.9
  1580.4 1598.5 1599.4 1622.2 1685.2 1695.6 1724.2 1734.4 3034.1 3038.3
  3061.2 3092.0 3095.3 3112.5 3120.2 3132.5 3142.9 3182.4 3197.7 3198.1
  3204.5 3204.8 3212.6 3212.7 3223.7 3223.9
 at 99999: n3=         156
 symm operator            1 :  F  nop=           0
 symm operator            2 :  F  nop=           0
 symm operator            3 :  F  nop=           0
 symm operator            4 :  F  nop=           0
 symm operator            5 :  F  nop=           0
 symm operator            6 :  F  nop=           0
 symm operator            7 :  F  nop=           0
 The point group of the molecule is  C1
 Symmetry rotation matrix:
   1.00000   0.00000   0.00000
   0.00000   1.00000   0.00000
   0.00000   0.00000   1.00000

 Projecting out zero-frequency components
 generating redundant internal coords
         300        3600          52
 search for int coords
   1 str   2   1   1.532
   2 str   3   2   1.532
   3 str   4   2   1.498
   4 str   5   4   1.400
   5 str   6   5   1.222
   6 str   7   5   1.479
   7 str   8   7   1.400
   8 str   9   8   1.380
   9 str  10   9   1.422
  10 str  11  10   1.441
  11 str  12  11   1.422
  12 str  13  12   1.380
  13 str  14  13   1.400
  14 str  15  14   1.478
  15 str  16  15   1.221
  16 str  17  15   1.402
  17 str  18  17   1.468
  18 str  19  17   1.399
  19 str  20  19   1.221
  20 str  21  19   1.476
  21 str  22  21   1.400
  22 str  23  22   1.380
  23 str  24  23   1.422
  24 str  25  24   1.441
  25 str  26  25   1.422
  26 str  27  26   1.380
  27 str  28  27   1.400
  28 str  29   4   1.407
  29 str  29  28   1.477
  30 str  30  29   1.222
  31 str  31   7   1.411
  32 str  31  28   1.411
  33 str  32  10   1.427
  34 str  32  25   1.427
  35 str  32  31   1.428
  36 str  33  11   1.427
  37 str  33  24   1.427
  38 str  34  14   1.412
  39 str  34  21   1.412
  40 str  34  33   1.428
  41 str  35   1   1.093
  42 str  36   1   1.089
  43 str  37   1   1.093
  44 str  38   2   1.088
  45 str  39   3   1.089
  46 str  40   3   1.093
  47 str  41   3   1.093
  48 str  42   8   1.082
  49 str  43   9   1.081
  50 str  44  12   1.081
  51 str  45  13   1.082
  52 str  46  18   1.085
  53 str  47  18   1.090
  54 str  48  18   1.090
  55 str  49  22   1.082
  56 str  50  23   1.081
  57 str  51  26   1.081
  58 str  52  27   1.082
 nber stretches=          58
  59 ben   1   2   3
  60 prop tor   1   2   3  39
  61 prop tor   1   2   3  40
  62 prop tor   1   2   3  41
  63 ben   1   2   4
  64 prop tor   1   2   4   5
  65 prop tor   1   2   4  29
  66 ben   1   2  38
  67 ben   2   1  35
  68 ben   2   1  36
  69 ben   2   1  37
  70 ben   2   3  39
  71 ben   2   3  40
  72 ben   2   3  41
  73 ben   2   4   5
  74 prop tor   2   4   5   6
  75 prop tor   2   4   5   7
  76 ben   2   4  29
  77 prop tor   2   4  29  28
  78 prop tor   2   4  29  30
  79 ben   3   2   4
  80 prop tor   3   2   4   5
  81 prop tor   3   2   4  29
  82 ben   3   2  38
  83 prop tor   4   2   3  39
  84 prop tor   4   2   3  40
  85 prop tor   4   2   3  41
  86 ben   4   2  38
  87 ben   4   5   6
  88 ben   4   5   7
  89 prop tor   4   5   7   8
  90 prop tor   4   5   7  31
  91 ben   4  29  28
  92 ben   4  29  30
  93 ben   5   4  29
  94 prop tor   5   4  29  28
  95 prop tor   5   4  29  30
  96 ben   5   7   8
  97 prop tor   5   7   8   9
  98 prop tor   5   7   8  42
  99 ben   5   7  31
 100 prop tor   5   7  31  28
 101 prop tor   5   7  31  32
 102 ben   6   5   7
 103 prop tor   6   5   7   8
 104 prop tor   6   5   7  31
 105 ben   7   8   9
 106 prop tor   7   8   9  10
 107 prop tor   7   8   9  43
 108 ben   7   8  42
 109 ben   7  31  28
 110 ben   7  31  32
 111 prop tor   7  31  32  10
 112 prop tor   7  31  32  25
 113 ben   8   7  31
 114 prop tor   8   7  31  28
 115 prop tor   8   7  31  32
 116 ben   8   9  10
 117 prop tor   8   9  10  11
 118 prop tor   8   9  10  32
 119 ben   8   9  43
 120 ben   9   8  42
 121 ben   9  10  11
 122 prop tor   9  10  11  12
 123 prop tor   9  10  11  33
 124 ben   9  10  32
 125 prop tor   9  10  32  25
 126 prop tor   9  10  32  31
 127 ben  10   9  43
 128 ben  10  11  12
 129 prop tor  10  11  12  13
 130 prop tor  10  11  12  44
 131 ben  10  11  33
 132 prop tor  10  11  33  24
 133 prop tor  10  11  33  34
 134 ben  10  32  25
 135 ben  10  32  31
 136 ben  11  10  32
 137 prop tor  11  10  32  25
 138 prop tor  11  10  32  31
 139 ben  11  12  13
 140 prop tor  11  12  13  14
 141 prop tor  11  12  13  45
 142 ben  11  12  44
 143 ben  11  33  24
 144 ben  11  33  34
 145 prop tor  11  33  34  14
 146 prop tor  11  33  34  21
 147 ben  12  11  33
 148 prop tor  12  11  33  24
 149 prop tor  12  11  33  34
 150 ben  12  13  14
 151 prop tor  12  13  14  15
 152 prop tor  12  13  14  34
 153 ben  12  13  45
 154 ben  13  12  44
 155 ben  13  14  15
 156 prop tor  13  14  15  16
 157 prop tor  13  14  15  17
 158 ben  13  14  34
 159 prop tor  13  14  34  21
 160 prop tor  13  14  34  33
 161 ben  14  13  45
 162 ben  14  15  16
 163 ben  14  15  17
 164 prop tor  14  15  17  18
 165 prop tor  14  15  17  19
 166 ben  14  34  21
 167 ben  14  34  33
 168 ben  15  14  34
 169 prop tor  15  14  34  21
 170 prop tor  15  14  34  33
 171 ben  15  17  18
 172 prop tor  15  17  18  46
 173 prop tor  15  17  18  47
 174 prop tor  15  17  18  48
 175 ben  15  17  19
 176 prop tor  15  17  19  20
 177 prop tor  15  17  19  21
 178 ben  16  15  17
 179 prop tor  16  15  17  18
 180 prop tor  16  15  17  19
 181 ben  17  18  46
 182 ben  17  18  47
 183 ben  17  18  48
 184 ben  17  19  20
 185 ben  17  19  21
 186 prop tor  17  19  21  22
 187 prop tor  17  19  21  34
 188 ben  18  17  19
 189 prop tor  18  17  19  20
 190 prop tor  18  17  19  21
 191 prop tor  19  17  18  46
 192 prop tor  19  17  18  47
 193 prop tor  19  17  18  48
 194 ben  19  21  22
 195 prop tor  19  21  22  23
 196 prop tor  19  21  22  49
 197 ben  19  21  34
 198 prop tor  19  21  34  14
 199 prop tor  19  21  34  33
 200 ben  20  19  21
 201 prop tor  20  19  21  22
 202 prop tor  20  19  21  34
 203 ben  21  22  23
 204 prop tor  21  22  23  24
 205 prop tor  21  22  23  50
 206 ben  21  22  49
 207 ben  21  34  33
 208 ben  22  21  34
 209 prop tor  22  21  34  14
 210 prop tor  22  21  34  33
 211 ben  22  23  24
 212 prop tor  22  23  24  25
 213 prop tor  22  23  24  33
 214 ben  22  23  50
 215 ben  23  22  49
 216 ben  23  24  25
 217 prop tor  23  24  25  26
 218 prop tor  23  24  25  32
 219 ben  23  24  33
 220 prop tor  23  24  33  11
 221 prop tor  23  24  33  34
 222 ben  24  23  50
 223 ben  24  25  26
 224 prop tor  24  25  26  27
 225 prop tor  24  25  26  51
 226 ben  24  25  32
 227 prop tor  24  25  32  10
 228 prop tor  24  25  32  31
 229 ben  24  33  34
 230 prop tor  24  33  34  14
 231 prop tor  24  33  34  21
 232 ben  25  24  33
 233 prop tor  25  24  33  11
 234 prop tor  25  24  33  34
 235 ben  25  26  27
 236 prop tor  25  26  27  28
 237 prop tor  25  26  27  52
 238 ben  25  26  51
 239 ben  25  32  31
 240 ben  26  25  32
 241 prop tor  26  25  32  10
 242 prop tor  26  25  32  31
 243 ben  26  27  28
 244 prop tor  26  27  28  29
 245 prop tor  26  27  28  31
 246 ben  26  27  52
 247 ben  27  26  51
 248 ben  27  28  29
 249 prop tor  27  28  29   4
 250 prop tor  27  28  29  30
 251 ben  27  28  31
 252 prop tor  27  28  31   7
 253 prop tor  27  28  31  32
 254 ben  28  27  52
 255 ben  28  29  30
 256 ben  28  31  32
 257 prop tor  28  31  32  10
 258 prop tor  28  31  32  25
 259 prop tor  29   4   5   6
 260 prop tor  29   4   5   7
 261 ben  29  28  31
 262 prop tor  29  28  31   7
 263 prop tor  29  28  31  32
 264 prop tor  31   7   8   9
 265 prop tor  31   7   8  42
 266 prop tor  31  28  29   4
 267 prop tor  31  28  29  30
 268 prop tor  32  10  11  12
 269 prop tor  32  10  11  33
 270 prop tor  32  25  26  27
 271 prop tor  32  25  26  51
 272 prop tor  33  11  12  13
 273 prop tor  33  11  12  44
 274 prop tor  33  24  25  26
 275 prop tor  33  24  25  32
 276 prop tor  34  14  15  16
 277 prop tor  34  14  15  17
 278 prop tor  34  21  22  23
 279 prop tor  34  21  22  49
 280 prop tor  35   1   2   3
 281 prop tor  35   1   2   4
 282 prop tor  35   1   2  38
 283 ben  35   1  36
 284 ben  35   1  37
 285 prop tor  36   1   2   3
 286 prop tor  36   1   2   4
 287 prop tor  36   1   2  38
 288 ben  36   1  37
 289 prop tor  37   1   2   3
 290 prop tor  37   1   2   4
 291 prop tor  37   1   2  38
 292 prop tor  38   2   3  39
 293 prop tor  38   2   3  40
 294 prop tor  38   2   3  41
 295 prop tor  38   2   4   5
 296 prop tor  38   2   4  29
 297 ben  39   3  40
 298 ben  39   3  41
 299 ben  40   3  41
 300 prop tor  42   8   9  10
 301 prop tor  42   8   9  43
 302 prop tor  43   9  10  11
 303 prop tor  43   9  10  32
 304 prop tor  44  12  13  14
 305 prop tor  44  12  13  45
 306 prop tor  45  13  14  15
 307 prop tor  45  13  14  34
 308 ben  46  18  47
 309 ben  46  18  48
 310 ben  47  18  48
 311 prop tor  49  22  23  24
 312 prop tor  49  22  23  50
 313 prop tor  50  23  24  25
 314 prop tor  50  23  24  33
 315 prop tor  51  26  27  28
 316 prop tor  51  26  27  52
 317 prop tor  52  27  28  29
 318 prop tor  52  27  28  31
 nber bend=             102
 nber lin bend=           0
 nber prop tor=         158
 nber impr tor=           0
 nber tot redund int=         318
 Eigenvalues of G in red int coords
    Gval -0.00000000 -0.00000000 -0.00000000 -0.00000000 -0.00000000 -0.00000000 -0.00000000 -0.00000000
    Gval -0.00000000 -0.00000000 -0.00000000 -0.00000000 -0.00000000 -0.00000000 -0.00000000 -0.00000000
    Gval -0.00000000 -0.00000000 -0.00000000 -0.00000000 -0.00000000 -0.00000000 -0.00000000 -0.00000000
    Gval -0.00000000 -0.00000000 -0.00000000 -0.00000000 -0.00000000 -0.00000000 -0.00000000 -0.00000000
    Gval -0.00000000 -0.00000000 -0.00000000 -0.00000000 -0.00000000 -0.00000000 -0.00000000 -0.00000000
    Gval -0.00000000 -0.00000000 -0.00000000 -0.00000000 -0.00000000 -0.00000000 -0.00000000 -0.00000000
    Gval -0.00000000 -0.00000000 -0.00000000 -0.00000000 -0.00000000 -0.00000000 -0.00000000 -0.00000000
    Gval -0.00000000 -0.00000000 -0.00000000 -0.00000000 -0.00000000 -0.00000000 -0.00000000 -0.00000000
    Gval -0.00000000 -0.00000000 -0.00000000 -0.00000000 -0.00000000 -0.00000000 -0.00000000 -0.00000000
    Gval -0.00000000 -0.00000000 -0.00000000 -0.00000000 -0.00000000 -0.00000000 -0.00000000 -0.00000000
    Gval -0.00000000 -0.00000000  0.00000000  0.00000000  0.00000000  0.00000000  0.00000000  0.00000000
    Gval  0.00000000  0.00000000  0.00000000  0.00000000  0.00000000  0.00000000  0.00000000  0.00000000
    Gval  0.00000000  0.00000000  0.00000000  0.00000000  0.00000000  0.00000000  0.00000000  0.00000000
    Gval  0.00000000  0.00000000  0.00000000  0.00000000  0.00000000  0.00000000  0.00000000  0.00000000
    Gval  0.00000000  0.00000000  0.00000000  0.00000000  0.00000000  0.00000000  0.00000000  0.00000000
    Gval  0.00000000  0.00000000  0.00000000  0.00000000  0.00000000  0.00000000  0.00000000  0.00000000
    Gval  0.00000000  0.00000000  0.00000000  0.00000000  0.00000000  0.00000000  0.00000000  0.00000000
    Gval  0.00000000  0.00000000  0.00000000  0.00000000  0.00000000  0.00000000  0.00000000  0.00000000
    Gval  0.00000000  0.00000000  0.00000000  0.00000000  0.00000000  0.00000000  0.00000000  0.00000000
    Gval  0.00000000  0.00000000  0.00000000  0.00000000  0.00000000  0.00000000  0.00000000  0.00000000
    Gval  0.00000000  0.00000000  0.00000000  0.00000000  0.00000000  0.00000000  0.00000000  0.00000000
    Gval  0.00000123  0.00000279  0.00000299  0.00000500  0.00000844  0.00001011  0.00001108  0.00001295
    Gval  0.00001369  0.00001457  0.00001704  0.00001728  0.00001829  0.00002091  0.00002138  0.00002326
    Gval  0.00002528  0.00002576  0.00002699  0.00002814  0.00003168  0.00003570  0.00003994  0.00004717
    Gval  0.00004883  0.00005097  0.00005271  0.00005616  0.00005622  0.00006128  0.00006806  0.00007089
    Gval  0.00007317  0.00008129  0.00008231  0.00008351  0.00008636  0.00008866  0.00009302  0.00009341
    Gval  0.00009484  0.00009722  0.00010995  0.00011941  0.00012247  0.00013561  0.00013653  0.00013742
    Gval  0.00014088  0.00015633  0.00015897  0.00016717  0.00017161  0.00018128  0.00020119  0.00022191
    Gval  0.00022722  0.00023007  0.00024525  0.00027279  0.00028406  0.00029039  0.00029844  0.00034136
    Gval  0.00035408  0.00036035  0.00038119  0.00039038  0.00039106  0.00039598  0.00041351  0.00042451
    Gval  0.00042880  0.00043252  0.00043667  0.00044123  0.00044196  0.00046178  0.00046590  0.00046865
    Gval  0.00049486  0.00051983  0.00053401  0.00053717  0.00054566  0.00054679  0.00055409  0.00055427
    Gval  0.00055590  0.00055601  0.00056413  0.00058590  0.00059850  0.00059924  0.00059957  0.00059985
    Gval  0.00060219  0.00064071  0.00064423  0.00064497  0.00064682  0.00066683  0.00068711  0.00069237
    Gval  0.00069773  0.00070878  0.00074496  0.00081455  0.00092550  0.00094172  0.00109320  0.00109413
    Gval  0.00109483  0.00109533  0.00112418  0.00112581  0.00114305  0.00116535  0.00116548  0.00116581
    Gval  0.00116604  0.00117120  0.00117190  0.00126220  0.00129038  0.00129536  0.00139809  0.00150082
    Gval  0.00159691  0.00172106  0.00180620  0.00192447  0.00228025  0.00234082  0.00245152  0.00246842
    Gval  0.00252247  0.00253980  0.00257113  0.00278966  0.00292160  0.00302342  0.00304211  0.00308119
    Gval  0.00309609  0.00367567  0.00367738  0.00372231  0.00372396  0.00394527
  1.231854966904227E-006  1.231854966904227E-006
  2.791868847312213E-006  1.231854966904227E-006
  2.986545781043685E-006  1.231854966904227E-006
  4.995278246956254E-006  1.231854966904227E-006
  8.435244421482984E-006  1.231854966904227E-006
  1.011223806944962E-005  1.231854966904227E-006
  1.108153224696059E-005  1.231854966904227E-006
  1.294669263023492E-005  1.231854966904227E-006
  1.369474280825152E-005  1.231854966904227E-006
  1.457063467062154E-005  1.231854966904227E-006
  1.703688182462562E-005  1.231854966904227E-006
  1.728158672643276E-005  1.231854966904227E-006
  1.829211394198747E-005  1.231854966904227E-006
  2.090838018294721E-005  1.231854966904227E-006
  2.137912149240016E-005  1.231854966904227E-006
  2.326247411506486E-005  1.231854966904227E-006
  2.528168668233134E-005  1.231854966904227E-006
  2.576074643620241E-005  1.231854966904227E-006
  2.699468254326240E-005  1.231854966904227E-006
  2.814468917830737E-005  1.231854966904227E-006
  3.168092339439419E-005  1.231854966904227E-006
  3.569583115561253E-005  1.231854966904227E-006
  3.993949430866567E-005  1.231854966904227E-006
  4.716543988826098E-005  1.231854966904227E-006
  4.883388299690437E-005  1.231854966904227E-006
  5.096936507468018E-005  1.231854966904227E-006
  5.270735670389523E-005  1.231854966904227E-006
  5.615616136445300E-005  1.231854966904227E-006
  5.621627543940014E-005  1.231854966904227E-006
  6.127927136058284E-005  1.231854966904227E-006
  6.805923990181996E-005  1.231854966904227E-006
  7.088904098456368E-005  1.231854966904227E-006
  7.317004781009408E-005  1.231854966904227E-006
  8.128782358360241E-005  1.231854966904227E-006
  8.230587718868342E-005  1.231854966904227E-006
  8.350862493866823E-005  1.231854966904227E-006
  8.635911410908952E-005  1.231854966904227E-006
  8.866232360042678E-005  1.231854966904227E-006
  9.302026860858321E-005  1.231854966904227E-006
  9.340859066604525E-005  1.231854966904227E-006
  9.484292393644475E-005  1.231854966904227E-006
  9.722062681432922E-005  1.231854966904227E-006
  1.099483065975387E-004  1.231854966904227E-006
  1.194116381191526E-004  1.231854966904227E-006
  1.224650229719393E-004  1.231854966904227E-006
  1.356064606481243E-004  1.231854966904227E-006
  1.365291253968282E-004  1.231854966904227E-006
  1.374171336427790E-004  1.231854966904227E-006
  1.408836501211505E-004  1.231854966904227E-006
  1.563341891074849E-004  1.231854966904227E-006
  1.589688101941449E-004  1.231854966904227E-006
  1.671660427079700E-004  1.231854966904227E-006
  1.716119157960276E-004  1.231854966904227E-006
  1.812822599650985E-004  1.231854966904227E-006
  2.011885092806596E-004  1.231854966904227E-006
  2.219086494170799E-004  1.231854966904227E-006
  2.272171298072106E-004  1.231854966904227E-006
  2.300672564796174E-004  1.231854966904227E-006
  2.452462560049856E-004  1.231854966904227E-006
  2.727899706690836E-004  1.231854966904227E-006
  2.840626151282497E-004  1.231854966904227E-006
  2.903861031307623E-004  1.231854966904227E-006
  2.984386781513097E-004  1.231854966904227E-006
  3.413604947739455E-004  1.231854966904227E-006
  3.540759649864758E-004  1.231854966904227E-006
  3.603516481760502E-004  1.231854966904227E-006
  3.811931881139831E-004  1.231854966904227E-006
  3.903834172175653E-004  1.231854966904227E-006
  3.910590058677549E-004  1.231854966904227E-006
  3.959813955183148E-004  1.231854966904227E-006
  4.135108162628714E-004  1.231854966904227E-006
  4.245131822623659E-004  1.231854966904227E-006
  4.288033191253425E-004  1.231854966904227E-006
  4.325185885676058E-004  1.231854966904227E-006
  4.366675779039662E-004  1.231854966904227E-006
  4.412325803067960E-004  1.231854966904227E-006
  4.419617907438932E-004  1.231854966904227E-006
  4.617844570390894E-004  1.231854966904227E-006
  4.659001298846099E-004  1.231854966904227E-006
  4.686473548384053E-004  1.231854966904227E-006
  4.948622888575708E-004  1.231854966904227E-006
  5.198284770619259E-004  1.231854966904227E-006
  5.340145158347606E-004  1.231854966904227E-006
  5.371703784613164E-004  1.231854966904227E-006
  5.456556041225252E-004  1.231854966904227E-006
  5.467899656158399E-004  1.231854966904227E-006
  5.540858496663666E-004  1.231854966904227E-006
  5.542685971782424E-004  1.231854966904227E-006
  5.559009412346571E-004  1.231854966904227E-006
  5.560129449183705E-004  1.231854966904227E-006
  5.641267155783773E-004  1.231854966904227E-006
  5.859020627783082E-004  1.231854966904227E-006
  5.984965731638695E-004  1.231854966904227E-006
  5.992424680718136E-004  1.231854966904227E-006
  5.995715207088939E-004  1.231854966904227E-006
  5.998541812595367E-004  1.231854966904227E-006
  6.021867202033075E-004  1.231854966904227E-006
  6.407113184083160E-004  1.231854966904227E-006
  6.442308933797358E-004  1.231854966904227E-006
  6.449704963723812E-004  1.231854966904227E-006
  6.468226411808436E-004  1.231854966904227E-006
  6.668277645367933E-004  1.231854966904227E-006
  6.871067632852968E-004  1.231854966904227E-006
  6.923709476421755E-004  1.231854966904227E-006
  6.977270083930398E-004  1.231854966904227E-006
  7.087843362634042E-004  1.231854966904227E-006
  7.449558166959723E-004  1.231854966904227E-006
  8.145529320497029E-004  1.231854966904227E-006
  9.255017634986457E-004  1.231854966904227E-006
  9.417168546719245E-004  1.231854966904227E-006
  1.093201688029782E-003  1.231854966904227E-006
  1.094134811475012E-003  1.231854966904227E-006
  1.094826812014774E-003  1.231854966904227E-006
  1.095326135380085E-003  1.231854966904227E-006
  1.124178525633872E-003  1.231854966904227E-006
  1.125805489585497E-003  1.231854966904227E-006
  1.143046573526324E-003  1.231854966904227E-006
  1.165349241824871E-003  1.231854966904227E-006
  1.165482683951989E-003  1.231854966904227E-006
  1.165813910612637E-003  1.231854966904227E-006
  1.166040998238447E-003  1.231854966904227E-006
  1.171197909914560E-003  1.231854966904227E-006
  1.171897096818832E-003  1.231854966904227E-006
  1.262202045582832E-003  1.231854966904227E-006
  1.290376200050193E-003  1.231854966904227E-006
  1.295361165113765E-003  1.231854966904227E-006
  1.398091173594210E-003  1.231854966904227E-006
  1.500822693733767E-003  1.231854966904227E-006
  1.596907884632561E-003  1.231854966904227E-006
  1.721055116596936E-003  1.231854966904227E-006
  1.806201381222361E-003  1.231854966904227E-006
  1.924466360779062E-003  1.231854966904227E-006
  2.280248994118262E-003  1.231854966904227E-006
  2.340817005790430E-003  1.231854966904227E-006
  2.451524007232123E-003  1.231854966904227E-006
  2.468418430340559E-003  1.231854966904227E-006
  2.522468527486408E-003  1.231854966904227E-006
  2.539804254782813E-003  1.231854966904227E-006
  2.571133078172011E-003  1.231854966904227E-006
  2.789659459659134E-003  1.231854966904227E-006
  2.921597999990397E-003  1.231854966904227E-006
  3.023416631360394E-003  1.231854966904227E-006
  3.042107207156861E-003  1.231854966904227E-006
  3.081192814185845E-003  1.231854966904227E-006
  3.096086669068666E-003  1.231854966904227E-006
  3.675670738311819E-003  1.231854966904227E-006
  3.677382722096969E-003  1.231854966904227E-006
  3.722308698983182E-003  1.231854966904227E-006
  3.723962625662836E-003  1.231854966904227E-006
  3.945273468898495E-003  1.231854966904227E-006
 cut=1d-8, nber non-redundant internal coords=         150
 Check on Eigenvals of non-red overlap matrix:
  0.00000123  0.00000279  0.00000299  0.00000500  0.00000844  0.00001011  0.00001108  0.00001295
  0.00001369  0.00001457  0.00001704  0.00001728  0.00001829  0.00002091  0.00002138  0.00002326
  0.00002528  0.00002576  0.00002699  0.00002814  0.00003168  0.00003570  0.00003994  0.00004717
  0.00004883  0.00005097  0.00005271  0.00005616  0.00005622  0.00006128  0.00006806  0.00007089
  0.00007317  0.00008129  0.00008231  0.00008351  0.00008636  0.00008866  0.00009302  0.00009341
  0.00009484  0.00009722  0.00010995  0.00011941  0.00012247  0.00013561  0.00013653  0.00013742
  0.00014088  0.00015633  0.00015897  0.00016717  0.00017161  0.00018128  0.00020119  0.00022191
  0.00022722  0.00023007  0.00024525  0.00027279  0.00028406  0.00029039  0.00029844  0.00034136
  0.00035408  0.00036035  0.00038119  0.00039038  0.00039106  0.00039598  0.00041351  0.00042451
  0.00042880  0.00043252  0.00043667  0.00044123  0.00044196  0.00046178  0.00046590  0.00046865
  0.00049486  0.00051983  0.00053401  0.00053717  0.00054566  0.00054679  0.00055409  0.00055427
  0.00055590  0.00055601  0.00056413  0.00058590  0.00059850  0.00059924  0.00059957  0.00059985
  0.00060219  0.00064071  0.00064423  0.00064497  0.00064682  0.00066683  0.00068711  0.00069237
  0.00069773  0.00070878  0.00074496  0.00081455  0.00092550  0.00094172  0.00109320  0.00109413
  0.00109483  0.00109533  0.00112418  0.00112581  0.00114305  0.00116535  0.00116548  0.00116581
  0.00116604  0.00117120  0.00117190  0.00126220  0.00129038  0.00129536  0.00139809  0.00150082
  0.00159691  0.00172106  0.00180620  0.00192447  0.00228025  0.00234082  0.00245152  0.00246842
  0.00252247  0.00253980  0.00257113  0.00278966  0.00292160  0.00302342  0.00304211  0.00308119
  0.00309609  0.00367567  0.00367738  0.00372231  0.00372396  0.00394527
 Checking for correct frequencies
 recalc frequencies=
    -0.0   -0.0   -0.0   -0.0    0.0    0.0   23.8   29.2   50.8   56.0
    63.8   78.3   86.7   92.8  105.5  119.7  167.9  170.2  185.6  186.0
   202.6  208.8  234.6  235.5  257.3  271.0  271.0  288.5  303.2  335.8
   338.3  369.7  391.0  395.9  413.3  418.0  432.5  439.0  441.8  447.2
   473.7  483.1  483.6  496.6  506.7  513.9  542.5  567.3  567.4  574.2
   593.0  605.3  614.7  631.9  652.3  672.0  700.1  707.1  710.3  726.9
   752.8  757.7  758.9  764.4  798.9  803.9  808.9  813.9  821.9  826.5
   832.0  843.9  888.5  912.5  925.9  945.3  951.8  956.6  973.9  975.5
   987.2  987.5 1014.2 1040.8 1066.9 1092.8 1101.8 1136.6 1153.2 1155.5
  1160.0 1169.3 1185.6 1194.4 1196.0 1223.8 1232.6 1240.4 1242.8 1251.1
  1295.7 1299.2 1316.0 1319.0 1350.6 1360.5 1365.9 1382.3 1383.1 1392.0
  1400.2 1403.6 1416.2 1429.4 1435.3 1443.7 1449.1 1466.3 1467.4 1484.9
  1492.6 1496.0 1497.6 1505.3 1505.9 1511.3 1522.5 1546.7 1555.3 1569.9
  1580.4 1598.5 1599.4 1622.2 1685.2 1695.6 1724.2 1734.4 3034.1 3038.3
  3061.2 3092.0 3095.3 3112.5 3120.2 3132.5 3142.9 3182.4 3197.7 3198.1
  3204.5 3204.8 3212.6 3212.7 3223.7 3223.9
 recalc symmetries=
                                                                       
                                                                       
                                                                       
                                                                       
                                                                       
                                                                       
                                                                       
                                                                       
                                                                       
                                                                       
                                                                       
                                                                       
                                                                       
                                                                       
                                                                       
                                           
 recalc freqs check OK
 Zero-point lengths:
 10.0000 10.0000 10.0000 10.0000 10.0000 10.0000 50.8563 45.8968 34.7666 33.1395
 31.0429 28.0240 26.6233 25.7283 24.1390 22.6554 19.1328 19.0014 18.1967 18.1755
 17.4158 17.1584 16.1850 16.1564 15.4554 15.0598 15.0587 14.5968 14.2382 13.5290
 13.4793 12.8940 12.5367 12.4590 12.1942 12.1261 11.9204 11.8327 11.7946 11.7233
 11.3902 11.2796 11.2730 11.1245 11.0139 10.9362 10.6435 10.4087 10.4079 10.3462
 10.1805 10.0763  9.9994  9.8625  9.7069  9.5633  9.3697  9.3231  9.3019  9.1952
  9.0357  9.0064  8.9993  8.9665  8.7707  8.7435  8.7167  8.6896  8.6474  8.6234
  8.5945  8.5338  8.3170  8.2068  8.1472  8.0632  8.0358  8.0155  7.9441  7.9373
  7.8902  7.8889  7.7845  7.6845  7.5898  7.4995  7.4686  7.3534  7.3004  7.2930
  7.2791  7.2500  7.1999  7.1732  7.1686  7.0866  7.0612  7.0390  7.0324  7.0089
  6.8871  6.8780  6.8339  6.8260  6.7458  6.7212  6.7078  6.6681  6.6660  6.6448
  6.6252  6.6173  6.5878  6.5572  6.5438  6.5247  6.5125  6.4741  6.4717  6.4335
  6.4170  6.4096  6.4063  6.3897  6.3885  6.3771  6.3535  6.3038  6.2862  6.2568
  6.2362  6.2008  6.1990  6.1553  6.0390  6.0205  5.9704  5.9528  4.5007  4.4976
  4.4807  4.4583  4.4560  4.4437  4.4381  4.4294  4.4221  4.3946  4.3841  4.3838
  4.3794  4.3792  4.3739  4.3738  4.3664  4.3662
 highest evec of mol 1
 -0.0000  0.0001 -0.0000
  0.0001  0.0003 -0.0000
  0.0000  0.0001  0.0000
  0.0001 -0.0004 -0.0002
 -0.0005  0.0000  0.0007
  0.0002  0.0002 -0.0003
  0.0009  0.0021 -0.0008
 -0.0312  0.0031  0.0444
 -0.0431 -0.1062  0.0426
  0.0014 -0.0010 -0.0022
  0.0004  0.0028 -0.0001
 -0.0729 -0.0058  0.1013
 -0.0161 -0.0489  0.0143
  0.0015  0.0001 -0.0020
 -0.0002 -0.0007  0.0002
  0.0002  0.0002 -0.0002
 -0.0001  0.0003  0.0002
 -0.0000 -0.0002 -0.0000
  0.0005 -0.0000 -0.0007
 -0.0002 -0.0002  0.0003
 -0.0009 -0.0024  0.0009
  0.0319 -0.0036 -0.0454
  0.0487  0.1199 -0.0481
 -0.0016  0.0011  0.0024
 -0.0005 -0.0032  0.0001
  0.0823  0.0066 -0.1146
  0.0195  0.0591 -0.0175
 -0.0017 -0.0001  0.0024
  0.0003  0.0009 -0.0003
 -0.0002 -0.0002  0.0003
 -0.0001  0.0001  0.0001
 -0.0001  0.0001  0.0002
 -0.0000 -0.0002 -0.0000
  0.0000 -0.0002 -0.0001
  0.0001 -0.0003 -0.0001
 -0.0000 -0.0000  0.0000
  0.0000  0.0000  0.0001
 -0.0003 -0.0005  0.0003
 -0.0000 -0.0000  0.0001
  0.0000 -0.0003 -0.0002
 -0.0001  0.0000  0.0000
  0.0992  0.0005 -0.1394
  0.1463  0.3564 -0.1449
  0.2454  0.0218 -0.3409
  0.0556  0.1489 -0.0529
  0.0003  0.0005 -0.0003
 -0.0002  0.0001  0.0000
  0.0000  0.0000  0.0002
 -0.1010 -0.0005  0.1417
 -0.1650 -0.4031  0.1633
 -0.2769 -0.0252  0.3851
 -0.0675 -0.1810  0.0642
 generating redundant internal coords
         300        3600          52
 Adding extra bonds for z output only
           6           6           6           7           6           8
           6           6           6           6           6           6
           6           6           6           8           7           6
           6           8           6           6           6           6
           6           6           6           6           6           8
           6           6           6           6           1           1
           1           1           1           1           1           1
           1           1           1           1           1           1
           1           1           1           1
 search for int coords
   1 str   2   1   1.532
   2 str   3   2   1.532
   3 str   4   2   1.498
   4 str   5   4   1.400
   5 str   6   5   1.222
   6 str   7   5   1.479
   7 str   8   7   1.400
   8 str   9   8   1.380
   9 str  10   9   1.422
  10 str  11  10   1.441
  11 str  12  11   1.422
  12 str  13  12   1.380
  13 str  14  13   1.400
  14 str  15  14   1.478
  15 str  16  15   1.221
  16 str  17  15   1.402
  17 str  18  17   1.468
  18 str  19  17   1.399
  19 str  20  19   1.221
  20 str  21  19   1.476
  21 str  22  21   1.400
  22 str  23  22   1.380
  23 str  24  23   1.422
  24 str  25  24   1.441
  25 str  26  25   1.422
  26 str  27  26   1.380
  27 str  28  27   1.400
  28 str  29   4   1.407
  29 str  29  28   1.477
  30 str  30  29   1.222
  31 str  31   7   1.411
  32 str  31  28   1.411
  33 str  32  10   1.427
  34 str  32  25   1.427
  35 str  32  31   1.428
  36 str  33  11   1.427
  37 str  33  24   1.427
  38 str  34  14   1.412
  39 str  34  21   1.412
  40 str  34  33   1.428
  41 str  35   1   1.093
  42 str  36   1   1.089
  43 str  37   1   1.093
  44 str  38   2   1.088
  45 str  39   3   1.089
  46 str  40   3   1.093
  47 str  41   3   1.093
  48 str  42   8   1.082
  49 str  43   9   1.081
  50 str  44  12   1.081
  51 str  45  13   1.082
  52 str  46  18   1.085
  53 str  47  18   1.090
  54 str  48  18   1.090
  55 str  49  22   1.082
  56 str  50  23   1.081
  57 str  51  26   1.081
  58 str  52  27   1.082
 nber stretches=          58
  59 ben   1   2   3
  60 prop tor   1   2   3  39
  61 prop tor   1   2   3  40
  62 prop tor   1   2   3  41
  63 ben   1   2   4
  64 prop tor   1   2   4   5
  65 prop tor   1   2   4  29
  66 ben   1   2  38
  67 ben   2   1  35
  68 ben   2   1  36
  69 ben   2   1  37
  70 ben   2   3  39
  71 ben   2   3  40
  72 ben   2   3  41
  73 ben   2   4   5
  74 prop tor   2   4   5   6
  75 prop tor   2   4   5   7
  76 ben   2   4  29
  77 prop tor   2   4  29  28
  78 prop tor   2   4  29  30
  79 ben   3   2   4
  80 prop tor   3   2   4   5
  81 prop tor   3   2   4  29
  82 ben   3   2  38
  83 prop tor   4   2   3  39
  84 prop tor   4   2   3  40
  85 prop tor   4   2   3  41
  86 ben   4   2  38
  87 ben   4   5   6
  88 ben   4   5   7
  89 prop tor   4   5   7   8
  90 prop tor   4   5   7  31
  91 ben   4  29  28
  92 ben   4  29  30
  93 ben   5   4  29
  94 prop tor   5   4  29  28
  95 prop tor   5   4  29  30
  96 ben   5   7   8
  97 prop tor   5   7   8   9
  98 prop tor   5   7   8  42
  99 ben   5   7  31
 100 prop tor   5   7  31  28
 101 prop tor   5   7  31  32
 102 ben   6   5   7
 103 prop tor   6   5   7   8
 104 prop tor   6   5   7  31
 105 ben   7   8   9
 106 prop tor   7   8   9  10
 107 prop tor   7   8   9  43
 108 ben   7   8  42
 109 ben   7  31  28
 110 ben   7  31  32
 111 prop tor   7  31  32  10
 112 prop tor   7  31  32  25
 113 ben   8   7  31
 114 prop tor   8   7  31  28
 115 prop tor   8   7  31  32
 116 ben   8   9  10
 117 prop tor   8   9  10  11
 118 prop tor   8   9  10  32
 119 ben   8   9  43
 120 ben   9   8  42
 121 ben   9  10  11
 122 prop tor   9  10  11  12
 123 prop tor   9  10  11  33
 124 ben   9  10  32
 125 prop tor   9  10  32  25
 126 prop tor   9  10  32  31
 127 ben  10   9  43
 128 ben  10  11  12
 129 prop tor  10  11  12  13
 130 prop tor  10  11  12  44
 131 ben  10  11  33
 132 prop tor  10  11  33  24
 133 prop tor  10  11  33  34
 134 ben  10  32  25
 135 ben  10  32  31
 136 ben  11  10  32
 137 prop tor  11  10  32  25
 138 prop tor  11  10  32  31
 139 ben  11  12  13
 140 prop tor  11  12  13  14
 141 prop tor  11  12  13  45
 142 ben  11  12  44
 143 ben  11  33  24
 144 ben  11  33  34
 145 prop tor  11  33  34  14
 146 prop tor  11  33  34  21
 147 ben  12  11  33
 148 prop tor  12  11  33  24
 149 prop tor  12  11  33  34
 150 ben  12  13  14
 151 prop tor  12  13  14  15
 152 prop tor  12  13  14  34
 153 ben  12  13  45
 154 ben  13  12  44
 155 ben  13  14  15
 156 prop tor  13  14  15  16
 157 prop tor  13  14  15  17
 158 ben  13  14  34
 159 prop tor  13  14  34  21
 160 prop tor  13  14  34  33
 161 ben  14  13  45
 162 ben  14  15  16
 163 ben  14  15  17
 164 prop tor  14  15  17  18
 165 prop tor  14  15  17  19
 166 ben  14  34  21
 167 ben  14  34  33
 168 ben  15  14  34
 169 prop tor  15  14  34  21
 170 prop tor  15  14  34  33
 171 ben  15  17  18
 172 prop tor  15  17  18  46
 173 prop tor  15  17  18  47
 174 prop tor  15  17  18  48
 175 ben  15  17  19
 176 prop tor  15  17  19  20
 177 prop tor  15  17  19  21
 178 ben  16  15  17
 179 prop tor  16  15  17  18
 180 prop tor  16  15  17  19
 181 ben  17  18  46
 182 ben  17  18  47
 183 ben  17  18  48
 184 ben  17  19  20
 185 ben  17  19  21
 186 prop tor  17  19  21  22
 187 prop tor  17  19  21  34
 188 ben  18  17  19
 189 prop tor  18  17  19  20
 190 prop tor  18  17  19  21
 191 prop tor  19  17  18  46
 192 prop tor  19  17  18  47
 193 prop tor  19  17  18  48
 194 ben  19  21  22
 195 prop tor  19  21  22  23
 196 prop tor  19  21  22  49
 197 ben  19  21  34
 198 prop tor  19  21  34  14
 199 prop tor  19  21  34  33
 200 ben  20  19  21
 201 prop tor  20  19  21  22
 202 prop tor  20  19  21  34
 203 ben  21  22  23
 204 prop tor  21  22  23  24
 205 prop tor  21  22  23  50
 206 ben  21  22  49
 207 ben  21  34  33
 208 ben  22  21  34
 209 prop tor  22  21  34  14
 210 prop tor  22  21  34  33
 211 ben  22  23  24
 212 prop tor  22  23  24  25
 213 prop tor  22  23  24  33
 214 ben  22  23  50
 215 ben  23  22  49
 216 ben  23  24  25
 217 prop tor  23  24  25  26
 218 prop tor  23  24  25  32
 219 ben  23  24  33
 220 prop tor  23  24  33  11
 221 prop tor  23  24  33  34
 222 ben  24  23  50
 223 ben  24  25  26
 224 prop tor  24  25  26  27
 225 prop tor  24  25  26  51
 226 ben  24  25  32
 227 prop tor  24  25  32  10
 228 prop tor  24  25  32  31
 229 ben  24  33  34
 230 prop tor  24  33  34  14
 231 prop tor  24  33  34  21
 232 ben  25  24  33
 233 prop tor  25  24  33  11
 234 prop tor  25  24  33  34
 235 ben  25  26  27
 236 prop tor  25  26  27  28
 237 prop tor  25  26  27  52
 238 ben  25  26  51
 239 ben  25  32  31
 240 ben  26  25  32
 241 prop tor  26  25  32  10
 242 prop tor  26  25  32  31
 243 ben  26  27  28
 244 prop tor  26  27  28  29
 245 prop tor  26  27  28  31
 246 ben  26  27  52
 247 ben  27  26  51
 248 ben  27  28  29
 249 prop tor  27  28  29   4
 250 prop tor  27  28  29  30
 251 ben  27  28  31
 252 prop tor  27  28  31   7
 253 prop tor  27  28  31  32
 254 ben  28  27  52
 255 ben  28  29  30
 256 ben  28  31  32
 257 prop tor  28  31  32  10
 258 prop tor  28  31  32  25
 259 prop tor  29   4   5   6
 260 prop tor  29   4   5   7
 261 ben  29  28  31
 262 prop tor  29  28  31   7
 263 prop tor  29  28  31  32
 264 prop tor  31   7   8   9
 265 prop tor  31   7   8  42
 266 prop tor  31  28  29   4
 267 prop tor  31  28  29  30
 268 prop tor  32  10  11  12
 269 prop tor  32  10  11  33
 270 prop tor  32  25  26  27
 271 prop tor  32  25  26  51
 272 prop tor  33  11  12  13
 273 prop tor  33  11  12  44
 274 prop tor  33  24  25  26
 275 prop tor  33  24  25  32
 276 prop tor  34  14  15  16
 277 prop tor  34  14  15  17
 278 prop tor  34  21  22  23
 279 prop tor  34  21  22  49
 280 prop tor  35   1   2   3
 281 prop tor  35   1   2   4
 282 prop tor  35   1   2  38
 283 ben  35   1  36
 284 ben  35   1  37
 285 prop tor  36   1   2   3
 286 prop tor  36   1   2   4
 287 prop tor  36   1   2  38
 288 ben  36   1  37
 289 prop tor  37   1   2   3
 290 prop tor  37   1   2   4
 291 prop tor  37   1   2  38
 292 prop tor  38   2   3  39
 293 prop tor  38   2   3  40
 294 prop tor  38   2   3  41
 295 prop tor  38   2   4   5
 296 prop tor  38   2   4  29
 297 ben  39   3  40
 298 ben  39   3  41
 299 ben  40   3  41
 300 prop tor  42   8   9  10
 301 prop tor  42   8   9  43
 302 prop tor  43   9  10  11
 303 prop tor  43   9  10  32
 304 prop tor  44  12  13  14
 305 prop tor  44  12  13  45
 306 prop tor  45  13  14  15
 307 prop tor  45  13  14  34
 308 ben  46  18  47
 309 ben  46  18  48
 310 ben  47  18  48
 311 prop tor  49  22  23  24
 312 prop tor  49  22  23  50
 313 prop tor  50  23  24  25
 314 prop tor  50  23  24  33
 315 prop tor  51  26  27  28
 316 prop tor  51  26  27  52
 317 prop tor  52  27  28  29
 318 prop tor  52  27  28  31
 nber bend=             102
 nber lin bend=           0
 nber prop tor=         158
 nber impr tor=           0
 nber tot redund int=         318
 Reading file: 
 ./PDI_2_C-1S0.log                                                              
                                          
  Entering Gaussian System, Link 0=g16                                          
  
 Gaussian format, type: g94, g98, g03= F F F
  #P Geom=AllCheck Guess=TCheck SCRF=Check GenChk UB3LYP/6-311G(d,p) Fre    
 energy type= B3LYP   
 Original G94 input coords:
  6  1.051345  0.376234  0.151009
  6  2.559640  0.100467  0.119698
  6  3.196353  0.082434  1.514826
  7  2.886550 -1.124759 -0.658094
  6  2.422797 -2.371257 -0.198518
  8  1.755734 -2.444747  0.833433
  6  2.771075 -3.544675 -0.998895
  6  2.335769 -4.810003 -0.589350
  6  2.646702 -5.937191 -1.321051
  6  3.413101 -5.869586 -2.508936
  6  3.745697 -7.045360 -3.285046
  6  3.326658 -8.343728 -2.909335
  6  3.649283 -9.457707 -3.655968
  6  4.410413 -9.344881 -4.824470
  6  4.732450-10.548692 -5.589597
  8  4.368973-11.676519 -5.263564
  7  5.501685-10.354670 -6.753791
  6  5.852645-11.524504 -7.557653
  6  5.971973 -9.116567 -7.222626
  8  6.636712 -9.075934 -8.255515
  6  5.625597 -7.941874 -6.425625
  6  6.060881 -6.677081 -6.834096
  6  5.749081 -5.550355 -6.101824
  6  4.981995 -5.619859 -4.914762
  6  4.648779 -4.444183 -4.138676
  6  5.066576 -3.144867 -4.513567
  6  4.743300 -2.031481 -3.766519
  6  3.982185 -2.146162 -2.597409
  6  3.658740 -0.944627 -1.831037
  8  4.028076  0.178581 -2.168538
  6  3.539703 -3.421612 -2.178471
  6  3.870028 -4.588268 -2.948593
  6  4.524898 -6.901950 -4.475498
  6  4.855264 -8.068889 -5.245739
  1  0.870870  1.353044  0.611620
  1  0.520949 -0.386810  0.719271
  1  0.648099  0.404826 -0.864921
  1  3.034535  0.892080 -0.456619
  1  2.756853 -0.693217  2.140711
  1  3.045782  1.054995  1.994775
  1  4.273240 -0.091441  1.439888
  1  1.748327 -4.876682  0.318161
  1  2.288878 -6.894035 -0.966421
  1  2.736318 -8.479475 -2.013573
  1  3.321486-10.445565 -3.355970
  1  5.419202-12.395393 -7.074909
  1  6.938100-11.620485 -7.625139
  1  5.464922-11.411289 -8.571877
  1  6.649093 -6.609801 -7.741299
  1  6.106696 -4.592956 -6.455070
  1  5.656541 -3.007881 -5.409403
  1  5.070250 -1.043436 -4.066326
 nber atoms=          52
  SCF Done:  E(UB3LYP) =  -1488.81975017     A.U. after    1 cycles             
  
          23          40 "  -1488.81975017"
After scan for Atom:   Atom  AN      X      Y      Z        X      Y      Z        X      Y      Z   
After scan for Atom:   Atom  AN      X      Y      Z        X      Y      Z        X      Y      Z   
After scan for Atom:   Atom  AN      X      Y      Z        X      Y      Z        X      Y      Z   
After scan for Atom:   Atom  AN      X      Y      Z        X      Y      Z        X      Y      Z   
After scan for Atom:   Atom  AN      X      Y      Z        X      Y      Z        X      Y      Z   
After scan for Atom:   Atom  AN      X      Y      Z        X      Y      Z        X      Y      Z   
After scan for Atom:   Atom  AN      X      Y      Z        X      Y      Z        X      Y      Z   
After scan for Atom:   Atom  AN      X      Y      Z        X      Y      Z        X      Y      Z   
After scan for Atom:   Atom  AN      X      Y      Z        X      Y      Z        X      Y      Z   
After scan for Atom:   Atom  AN      X      Y      Z        X      Y      Z        X      Y      Z   
After scan for Atom:   Atom  AN      X      Y      Z        X      Y      Z        X      Y      Z   
After scan for Atom:   Atom  AN      X      Y      Z        X      Y      Z        X      Y      Z   
After scan for Atom:   Atom  AN      X      Y      Z        X      Y      Z        X      Y      Z   
After scan for Atom:   Atom  AN      X      Y      Z        X      Y      Z        X      Y      Z   
After scan for Atom:   Atom  AN      X      Y      Z        X      Y      Z        X      Y      Z   
After scan for Atom:   Atom  AN      X      Y      Z        X      Y      Z        X      Y      Z   
After scan for Atom:   Atom  AN      X      Y      Z        X      Y      Z        X      Y      Z   
After scan for Atom:   Atom  AN      X      Y      Z        X      Y      Z        X      Y      Z   
After scan for Atom:   Atom  AN      X      Y      Z        X      Y      Z        X      Y      Z   
After scan for Atom:   Atom  AN      X      Y      Z        X      Y      Z        X      Y      Z   
After scan for Atom:   Atom  AN      X      Y      Z        X      Y      Z        X      Y      Z   
After scan for Atom:   Atom  AN      X      Y      Z        X      Y      Z        X      Y      Z   
After scan for Atom:   Atom  AN      X      Y      Z        X      Y      Z        X      Y      Z   
After scan for Atom:   Atom  AN      X      Y      Z        X      Y      Z        X      Y      Z   
After scan for Atom:   Atom  AN      X      Y      Z        X      Y      Z        X      Y      Z   
After scan for Atom:   Atom  AN      X      Y      Z        X      Y      Z        X      Y      Z   
After scan for Atom:   Atom  AN      X      Y      Z        X      Y      Z        X      Y      Z   
After scan for Atom:   Atom  AN      X      Y      Z        X      Y      Z        X      Y      Z   
After scan for Atom:   Atom  AN      X      Y      Z        X      Y      Z        X      Y      Z   
After scan for Atom:   Atom  AN      X      Y      Z        X      Y      Z        X      Y      Z   
After scan for Atom:   Atom  AN      X      Y      Z        X      Y      Z        X      Y      Z   
After scan for Atom:   Atom  AN      X      Y      Z        X      Y      Z        X      Y      Z   
After scan for Atom:   Atom  AN      X      Y      Z        X      Y      Z        X      Y      Z   
After scan for Atom:   Atom  AN      X      Y      Z        X      Y      Z        X      Y      Z   
After scan for Atom:   Atom  AN      X      Y      Z        X      Y      Z        X      Y      Z   
After scan for Atom:   Atom  AN      X      Y      Z        X      Y      Z        X      Y      Z   
After scan for Atom:   Atom  AN      X      Y      Z        X      Y      Z        X      Y      Z   
After scan for Atom:   Atom  AN      X      Y      Z        X      Y      Z        X      Y      Z   
After scan for Atom:   Atom  AN      X      Y      Z        X      Y      Z        X      Y      Z   
After scan for Atom:   Atom  AN      X      Y      Z        X      Y      Z        X      Y      Z   
After scan for Atom:   Atom  AN      X      Y      Z        X      Y      Z        X      Y      Z   
After scan for Atom:   Atom  AN      X      Y      Z        X      Y      Z        X      Y      Z   
After scan for Atom:   Atom  AN      X      Y      Z        X      Y      Z        X      Y      Z   
After scan for Atom:   Atom  AN      X      Y      Z        X      Y      Z        X      Y      Z   
After scan for Atom:   Atom  AN      X      Y      Z        X      Y      Z        X      Y      Z   
After scan for Atom:   Atom  AN      X      Y      Z        X      Y      Z        X      Y      Z   
After scan for Atom:   Atom  AN      X      Y      Z        X      Y      Z        X      Y      Z   
After scan for Atom:   Atom  AN      X      Y      Z        X      Y      Z        X      Y      Z   
After scan for Atom:   Atom  AN      X      Y      Z        X      Y      Z        X      Y      Z   
After scan for Atom:   Atom  AN      X      Y      Z        X      Y      Z        X      Y      Z   
 g94    frequencies=
     0.0    0.0    0.0    0.0    0.0    0.0   24.9   25.9   52.6   59.7
    70.8   83.4   89.4   95.3  109.7  123.9  167.5  172.5  188.4  197.6
   204.7  211.2  234.5  234.9  266.2  274.5  274.8  290.4  302.5  344.3
   351.4  376.3  394.2  398.6  418.2  418.8  436.5  443.5  447.7  454.4
   475.0  484.0  503.7  511.2  512.0  517.9  540.5  571.4  579.6  588.3
   597.4  623.7  623.8  652.6  664.4  711.5  714.2  730.4  744.6  747.7
   757.0  766.4  779.2  796.4  802.1  806.7  808.3  815.3  824.6  827.1
   829.7  846.0  893.8  918.9  941.5  953.3  956.4  962.9  964.7  966.4
   975.7  979.3 1024.5 1041.2 1068.9 1083.3 1102.6 1144.5 1153.4 1154.3
  1157.3 1173.2 1182.6 1191.9 1196.8 1223.1 1232.8 1242.7 1245.5 1255.3
  1283.0 1294.7 1306.4 1315.0 1348.8 1354.3 1365.8 1376.3 1382.7 1387.3
  1391.9 1396.6 1405.7 1418.9 1426.6 1446.4 1468.1 1469.8 1471.6 1482.0
  1482.1 1493.5 1495.7 1507.1 1507.6 1524.2 1530.4 1562.4 1572.7 1575.2
  1590.9 1608.8 1617.1 1626.5 1663.5 1674.0 1699.5 1712.1 3021.6 3027.0
  3046.1 3079.8 3082.8 3096.4 3103.7 3129.3 3138.3 3169.5 3180.7 3180.9
  3188.4 3188.7 3198.4 3198.6 3210.8 3211.1
 g94    symmetries=
                                                 A      A      A      A
       A      A      A      A      A      A      A      A      A      A
       A      A      A      A      A      A      A      A      A      A
       A      A      A      A      A      A      A      A      A      A
       A      A      A      A      A      A      A      A      A      A
       A      A      A      A      A      A      A      A      A      A
       A      A      A      A      A      A      A      A      A      A
       A      A      A      A      A      A      A      A      A      A
       A      A      A      A      A      A      A      A      A      A
       A      A      A      A      A      A      A      A      A      A
       A      A      A      A      A      A      A      A      A      A
       A      A      A      A      A      A      A      A      A      A
       A      A      A      A      A      A      A      A      A      A
       A      A      A      A      A      A      A      A      A      A
       A      A      A      A      A      A      A      A      A      A
       A      A      A      A      A      A
 atomic masses:
 12.0000 12.0000 12.0000 14.0031 12.0000 15.9949 12.0000 12.0000 12.0000 12.0000
 12.0000 12.0000 12.0000 12.0000 12.0000 15.9949 14.0031 12.0000 12.0000 15.9949
 12.0000 12.0000 12.0000 12.0000 12.0000 12.0000 12.0000 12.0000 12.0000 15.9949
 12.0000 12.0000 12.0000 12.0000  1.0078  1.0078  1.0078  1.0078  1.0078  1.0078
  1.0078  1.0078  1.0078  1.0078  1.0078  1.0078  1.0078  1.0078  1.0078  1.0078
  1.0078  1.0078
 looking for force constants in 
 ./PDI_2_C-1S0.fchk                                                             
  
 Cartesian Force Constants                  R   N=       12246                  
  
 n3=         156       12246
 g94-fc frequencies=
    -2.3    0.0    0.0    0.0    0.4    2.0   24.9   25.9   52.6   59.7
    70.8   83.4   89.4   95.3  109.7  123.9  167.5  172.5  188.4  197.6
   204.7  211.2  234.5  234.9  266.3  274.5  274.8  290.4  302.5  344.3
   351.4  376.3  394.3  398.6  418.2  418.8  436.5  443.5  447.7  454.4
   475.0  484.1  503.7  511.2  512.0  517.9  540.5  571.5  579.6  588.3
   597.4  623.7  623.8  652.6  664.4  711.5  714.2  730.5  744.6  747.8
   757.1  766.4  779.2  796.4  802.1  806.7  808.3  815.4  824.6  827.1
   829.8  846.0  893.8  918.9  941.5  953.4  956.4  963.0  964.8  966.5
   975.8  979.3 1024.6 1041.2 1069.0 1083.3 1102.6 1144.6 1153.5 1154.3
  1157.4 1173.2 1182.6 1191.9 1196.8 1223.1 1232.8 1242.7 1245.5 1255.3
  1283.0 1294.8 1306.4 1315.0 1348.8 1354.4 1365.9 1376.3 1382.7 1387.4
  1392.0 1396.6 1405.7 1419.0 1426.6 1446.4 1468.2 1469.8 1471.7 1482.0
  1482.2 1493.5 1495.7 1507.1 1507.6 1524.2 1530.4 1562.4 1572.8 1575.3
  1591.0 1608.8 1617.2 1626.6 1663.5 1674.0 1699.6 1712.1 3021.6 3027.1
  3046.2 3079.9 3082.8 3096.5 3103.8 3129.4 3138.3 3169.6 3180.8 3181.0
  3188.4 3188.8 3198.5 3198.6 3210.8 3211.1
 at 99999: n3=         156
 symm operator            1 :  F  nop=           0
 symm operator            2 :  F  nop=           0
 symm operator            3 :  F  nop=           0
 symm operator            4 :  F  nop=           0
 symm operator            5 :  F  nop=           0
 symm operator            6 :  F  nop=           0
 symm operator            7 :  F  nop=           0
 The point group of the molecule is  C1
 Symmetry rotation matrix:
   1.00000   0.00000   0.00000
   0.00000   1.00000   0.00000
   0.00000   0.00000   1.00000

 Projecting out zero-frequency components
 generating redundant internal coords
         300        3600          52
 search for int coords
   1 str   2   1   1.534
   2 str   3   2   1.534
   3 str   4   2   1.488
   4 str   5   4   1.407
   5 str   6   5   1.231
   6 str   7   5   1.462
   7 str   8   7   1.399
   8 str   9   8   1.379
   9 str  10   9   1.415
  10 str  11  10   1.448
  11 str  12  11   1.415
  12 str  13  12   1.379
  13 str  14  13   1.399
  14 str  15  14   1.462
  15 str  16  15   1.229
  16 str  17  15   1.409
  17 str  18  17   1.462
  18 str  19  17   1.405
  19 str  20  19   1.229
  20 str  21  19   1.461
  21 str  22  21   1.399
  22 str  23  22   1.379
  23 str  24  23   1.415
  24 str  25  24   1.448
  25 str  26  25   1.415
  26 str  27  26   1.379
  27 str  28  27   1.400
  28 str  29   4   1.416
  29 str  29  28   1.461
  30 str  30  29   1.230
  31 str  31   7   1.413
  32 str  31  28   1.414
  33 str  32  10   1.430
  34 str  32  25   1.430
  35 str  32  31   1.436
  36 str  33  11   1.430
  37 str  33  24   1.430
  38 str  34  14   1.415
  39 str  34  21   1.415
  40 str  34  33   1.437
  41 str  35   1   1.095
  42 str  36   1   1.089
  43 str  37   1   1.093
  44 str  38   2   1.088
  45 str  39   3   1.089
  46 str  40   3   1.095
  47 str  41   3   1.093
  48 str  42   8   1.083
  49 str  43   9   1.081
  50 str  44  12   1.081
  51 str  45  13   1.083
  52 str  46  18   1.086
  53 str  47  18   1.092
  54 str  48  18   1.092
  55 str  49  22   1.083
  56 str  50  23   1.081
  57 str  51  26   1.081
  58 str  52  27   1.083
 nber stretches=          58
  59 ben   1   2   3
  60 prop tor   1   2   3  39
  61 prop tor   1   2   3  40
  62 prop tor   1   2   3  41
  63 ben   1   2   4
  64 prop tor   1   2   4   5
  65 prop tor   1   2   4  29
  66 ben   1   2  38
  67 ben   2   1  35
  68 ben   2   1  36
  69 ben   2   1  37
  70 ben   2   3  39
  71 ben   2   3  40
  72 ben   2   3  41
  73 ben   2   4   5
  74 prop tor   2   4   5   6
  75 prop tor   2   4   5   7
  76 ben   2   4  29
  77 prop tor   2   4  29  28
  78 prop tor   2   4  29  30
  79 ben   3   2   4
  80 prop tor   3   2   4   5
  81 prop tor   3   2   4  29
  82 ben   3   2  38
  83 prop tor   4   2   3  39
  84 prop tor   4   2   3  40
  85 prop tor   4   2   3  41
  86 ben   4   2  38
  87 ben   4   5   6
  88 ben   4   5   7
  89 prop tor   4   5   7   8
  90 prop tor   4   5   7  31
  91 ben   4  29  28
  92 ben   4  29  30
  93 ben   5   4  29
  94 prop tor   5   4  29  28
  95 prop tor   5   4  29  30
  96 ben   5   7   8
  97 prop tor   5   7   8   9
  98 prop tor   5   7   8  42
  99 ben   5   7  31
 100 prop tor   5   7  31  28
 101 prop tor   5   7  31  32
 102 ben   6   5   7
 103 prop tor   6   5   7   8
 104 prop tor   6   5   7  31
 105 ben   7   8   9
 106 prop tor   7   8   9  10
 107 prop tor   7   8   9  43
 108 ben   7   8  42
 109 ben   7  31  28
 110 ben   7  31  32
 111 prop tor   7  31  32  10
 112 prop tor   7  31  32  25
 113 ben   8   7  31
 114 prop tor   8   7  31  28
 115 prop tor   8   7  31  32
 116 ben   8   9  10
 117 prop tor   8   9  10  11
 118 prop tor   8   9  10  32
 119 ben   8   9  43
 120 ben   9   8  42
 121 ben   9  10  11
 122 prop tor   9  10  11  12
 123 prop tor   9  10  11  33
 124 ben   9  10  32
 125 prop tor   9  10  32  25
 126 prop tor   9  10  32  31
 127 ben  10   9  43
 128 ben  10  11  12
 129 prop tor  10  11  12  13
 130 prop tor  10  11  12  44
 131 ben  10  11  33
 132 prop tor  10  11  33  24
 133 prop tor  10  11  33  34
 134 ben  10  32  25
 135 ben  10  32  31
 136 ben  11  10  32
 137 prop tor  11  10  32  25
 138 prop tor  11  10  32  31
 139 ben  11  12  13
 140 prop tor  11  12  13  14
 141 prop tor  11  12  13  45
 142 ben  11  12  44
 143 ben  11  33  24
 144 ben  11  33  34
 145 prop tor  11  33  34  14
 146 prop tor  11  33  34  21
 147 ben  12  11  33
 148 prop tor  12  11  33  24
 149 prop tor  12  11  33  34
 150 ben  12  13  14
 151 prop tor  12  13  14  15
 152 prop tor  12  13  14  34
 153 ben  12  13  45
 154 ben  13  12  44
 155 ben  13  14  15
 156 prop tor  13  14  15  16
 157 prop tor  13  14  15  17
 158 ben  13  14  34
 159 prop tor  13  14  34  21
 160 prop tor  13  14  34  33
 161 ben  14  13  45
 162 ben  14  15  16
 163 ben  14  15  17
 164 prop tor  14  15  17  18
 165 prop tor  14  15  17  19
 166 ben  14  34  21
 167 ben  14  34  33
 168 ben  15  14  34
 169 prop tor  15  14  34  21
 170 prop tor  15  14  34  33
 171 ben  15  17  18
 172 prop tor  15  17  18  46
 173 prop tor  15  17  18  47
 174 prop tor  15  17  18  48
 175 ben  15  17  19
 176 prop tor  15  17  19  20
 177 prop tor  15  17  19  21
 178 ben  16  15  17
 179 prop tor  16  15  17  18
 180 prop tor  16  15  17  19
 181 ben  17  18  46
 182 ben  17  18  47
 183 ben  17  18  48
 184 ben  17  19  20
 185 ben  17  19  21
 186 prop tor  17  19  21  22
 187 prop tor  17  19  21  34
 188 ben  18  17  19
 189 prop tor  18  17  19  20
 190 prop tor  18  17  19  21
 191 prop tor  19  17  18  46
 192 prop tor  19  17  18  47
 193 prop tor  19  17  18  48
 194 ben  19  21  22
 195 prop tor  19  21  22  23
 196 prop tor  19  21  22  49
 197 ben  19  21  34
 198 prop tor  19  21  34  14
 199 prop tor  19  21  34  33
 200 ben  20  19  21
 201 prop tor  20  19  21  22
 202 prop tor  20  19  21  34
 203 ben  21  22  23
 204 prop tor  21  22  23  24
 205 prop tor  21  22  23  50
 206 ben  21  22  49
 207 ben  21  34  33
 208 ben  22  21  34
 209 prop tor  22  21  34  14
 210 prop tor  22  21  34  33
 211 ben  22  23  24
 212 prop tor  22  23  24  25
 213 prop tor  22  23  24  33
 214 ben  22  23  50
 215 ben  23  22  49
 216 ben  23  24  25
 217 prop tor  23  24  25  26
 218 prop tor  23  24  25  32
 219 ben  23  24  33
 220 prop tor  23  24  33  11
 221 prop tor  23  24  33  34
 222 ben  24  23  50
 223 ben  24  25  26
 224 prop tor  24  25  26  27
 225 prop tor  24  25  26  51
 226 ben  24  25  32
 227 prop tor  24  25  32  10
 228 prop tor  24  25  32  31
 229 ben  24  33  34
 230 prop tor  24  33  34  14
 231 prop tor  24  33  34  21
 232 ben  25  24  33
 233 prop tor  25  24  33  11
 234 prop tor  25  24  33  34
 235 ben  25  26  27
 236 prop tor  25  26  27  28
 237 prop tor  25  26  27  52
 238 ben  25  26  51
 239 ben  25  32  31
 240 ben  26  25  32
 241 prop tor  26  25  32  10
 242 prop tor  26  25  32  31
 243 ben  26  27  28
 244 prop tor  26  27  28  29
 245 prop tor  26  27  28  31
 246 ben  26  27  52
 247 ben  27  26  51
 248 ben  27  28  29
 249 prop tor  27  28  29   4
 250 prop tor  27  28  29  30
 251 ben  27  28  31
 252 prop tor  27  28  31   7
 253 prop tor  27  28  31  32
 254 ben  28  27  52
 255 ben  28  29  30
 256 ben  28  31  32
 257 prop tor  28  31  32  10
 258 prop tor  28  31  32  25
 259 prop tor  29   4   5   6
 260 prop tor  29   4   5   7
 261 ben  29  28  31
 262 prop tor  29  28  31   7
 263 prop tor  29  28  31  32
 264 prop tor  31   7   8   9
 265 prop tor  31   7   8  42
 266 prop tor  31  28  29   4
 267 prop tor  31  28  29  30
 268 prop tor  32  10  11  12
 269 prop tor  32  10  11  33
 270 prop tor  32  25  26  27
 271 prop tor  32  25  26  51
 272 prop tor  33  11  12  13
 273 prop tor  33  11  12  44
 274 prop tor  33  24  25  26
 275 prop tor  33  24  25  32
 276 prop tor  34  14  15  16
 277 prop tor  34  14  15  17
 278 prop tor  34  21  22  23
 279 prop tor  34  21  22  49
 280 prop tor  35   1   2   3
 281 prop tor  35   1   2   4
 282 prop tor  35   1   2  38
 283 ben  35   1  36
 284 ben  35   1  37
 285 prop tor  36   1   2   3
 286 prop tor  36   1   2   4
 287 prop tor  36   1   2  38
 288 ben  36   1  37
 289 prop tor  37   1   2   3
 290 prop tor  37   1   2   4
 291 prop tor  37   1   2  38
 292 prop tor  38   2   3  39
 293 prop tor  38   2   3  40
 294 prop tor  38   2   3  41
 295 prop tor  38   2   4   5
 296 prop tor  38   2   4  29
 297 ben  39   3  40
 298 ben  39   3  41
 299 ben  40   3  41
 300 prop tor  42   8   9  10
 301 prop tor  42   8   9  43
 302 prop tor  43   9  10  11
 303 prop tor  43   9  10  32
 304 prop tor  44  12  13  14
 305 prop tor  44  12  13  45
 306 prop tor  45  13  14  15
 307 prop tor  45  13  14  34
 308 ben  46  18  47
 309 ben  46  18  48
 310 ben  47  18  48
 311 prop tor  49  22  23  24
 312 prop tor  49  22  23  50
 313 prop tor  50  23  24  25
 314 prop tor  50  23  24  33
 315 prop tor  51  26  27  28
 316 prop tor  51  26  27  52
 317 prop tor  52  27  28  29
 318 prop tor  52  27  28  31
 nber bend=             102
 nber lin bend=           0
 nber prop tor=         158
 nber impr tor=           0
 nber tot redund int=         318
 Eigenvalues of G in red int coords
    Gval -0.00000000 -0.00000000 -0.00000000 -0.00000000 -0.00000000 -0.00000000 -0.00000000 -0.00000000
    Gval -0.00000000 -0.00000000 -0.00000000 -0.00000000 -0.00000000 -0.00000000 -0.00000000 -0.00000000
    Gval -0.00000000 -0.00000000 -0.00000000 -0.00000000 -0.00000000 -0.00000000 -0.00000000 -0.00000000
    Gval -0.00000000 -0.00000000 -0.00000000 -0.00000000 -0.00000000 -0.00000000 -0.00000000 -0.00000000
    Gval -0.00000000 -0.00000000 -0.00000000 -0.00000000 -0.00000000 -0.00000000 -0.00000000 -0.00000000
    Gval -0.00000000 -0.00000000 -0.00000000 -0.00000000 -0.00000000 -0.00000000 -0.00000000 -0.00000000
    Gval -0.00000000 -0.00000000 -0.00000000 -0.00000000 -0.00000000 -0.00000000 -0.00000000 -0.00000000
    Gval -0.00000000 -0.00000000 -0.00000000 -0.00000000 -0.00000000 -0.00000000 -0.00000000 -0.00000000
    Gval -0.00000000 -0.00000000 -0.00000000 -0.00000000 -0.00000000 -0.00000000 -0.00000000 -0.00000000
    Gval -0.00000000 -0.00000000 -0.00000000 -0.00000000 -0.00000000 -0.00000000 -0.00000000 -0.00000000
    Gval -0.00000000 -0.00000000 -0.00000000 -0.00000000 -0.00000000 -0.00000000 -0.00000000 -0.00000000
    Gval  0.00000000  0.00000000  0.00000000  0.00000000  0.00000000  0.00000000  0.00000000  0.00000000
    Gval  0.00000000  0.00000000  0.00000000  0.00000000  0.00000000  0.00000000  0.00000000  0.00000000
    Gval  0.00000000  0.00000000  0.00000000  0.00000000  0.00000000  0.00000000  0.00000000  0.00000000
    Gval  0.00000000  0.00000000  0.00000000  0.00000000  0.00000000  0.00000000  0.00000000  0.00000000
    Gval  0.00000000  0.00000000  0.00000000  0.00000000  0.00000000  0.00000000  0.00000000  0.00000000
    Gval  0.00000000  0.00000000  0.00000000  0.00000000  0.00000000  0.00000000  0.00000000  0.00000000
    Gval  0.00000000  0.00000000  0.00000000  0.00000000  0.00000000  0.00000000  0.00000000  0.00000000
    Gval  0.00000000  0.00000000  0.00000000  0.00000000  0.00000000  0.00000000  0.00000000  0.00000000
    Gval  0.00000000  0.00000000  0.00000000  0.00000000  0.00000000  0.00000000  0.00000000  0.00000000
    Gval  0.00000000  0.00000000  0.00000000  0.00000000  0.00000000  0.00000000  0.00000000  0.00000000
    Gval  0.00000123  0.00000279  0.00000300  0.00000501  0.00000843  0.00001010  0.00001106  0.00001297
    Gval  0.00001367  0.00001459  0.00001700  0.00001720  0.00001826  0.00002090  0.00002142  0.00002320
    Gval  0.00002527  0.00002575  0.00002699  0.00002827  0.00003168  0.00003573  0.00003996  0.00004711
    Gval  0.00004893  0.00005084  0.00005267  0.00005591  0.00005612  0.00006126  0.00006810  0.00007089
    Gval  0.00007320  0.00008134  0.00008226  0.00008354  0.00008617  0.00008878  0.00009294  0.00009339
    Gval  0.00009459  0.00009720  0.00011012  0.00011918  0.00012248  0.00013528  0.00013650  0.00013737
    Gval  0.00014086  0.00015611  0.00015908  0.00016697  0.00017124  0.00018153  0.00020249  0.00022118
    Gval  0.00022574  0.00023091  0.00024372  0.00027158  0.00028448  0.00028953  0.00029970  0.00034275
    Gval  0.00035757  0.00036134  0.00038352  0.00039024  0.00039197  0.00039750  0.00041233  0.00042809
    Gval  0.00042838  0.00043051  0.00043720  0.00044034  0.00044174  0.00046197  0.00046537  0.00046754
    Gval  0.00049311  0.00052198  0.00053300  0.00053739  0.00054595  0.00054701  0.00055315  0.00055442
    Gval  0.00055576  0.00055583  0.00056655  0.00058208  0.00059853  0.00059927  0.00059960  0.00059988
    Gval  0.00060221  0.00064136  0.00064488  0.00064569  0.00064751  0.00066602  0.00068725  0.00069360
    Gval  0.00069598  0.00071057  0.00074369  0.00082250  0.00092866  0.00094651  0.00109212  0.00109307
    Gval  0.00109373  0.00109425  0.00112630  0.00112649  0.00114778  0.00116347  0.00116363  0.00116394
    Gval  0.00116417  0.00116529  0.00116589  0.00125594  0.00128911  0.00128997  0.00139381  0.00151051
    Gval  0.00158766  0.00172909  0.00179914  0.00191709  0.00227256  0.00233848  0.00244883  0.00246172
    Gval  0.00251956  0.00253991  0.00256766  0.00277793  0.00292490  0.00302022  0.00304156  0.00308342
    Gval  0.00308693  0.00365945  0.00366129  0.00370751  0.00370905  0.00392434
  1.234863140900198E-006  1.234863140900198E-006
  2.791022433852996E-006  1.234863140900198E-006
  3.002568076378738E-006  1.234863140900198E-006
  5.008750067406022E-006  1.234863140900198E-006
  8.426923857662349E-006  1.234863140900198E-006
  1.009964947943464E-005  1.234863140900198E-006
  1.105917181218177E-005  1.234863140900198E-006
  1.296547694099540E-005  1.234863140900198E-006
  1.366756505527183E-005  1.234863140900198E-006
  1.458643180384830E-005  1.234863140900198E-006
  1.699960997743525E-005  1.234863140900198E-006
  1.719791289114587E-005  1.234863140900198E-006
  1.826310599050840E-005  1.234863140900198E-006
  2.089940051880257E-005  1.234863140900198E-006
  2.141530426961123E-005  1.234863140900198E-006
  2.320310496055008E-005  1.234863140900198E-006
  2.527003562437393E-005  1.234863140900198E-006
  2.574786554421906E-005  1.234863140900198E-006
  2.699093313567654E-005  1.234863140900198E-006
  2.826522304774137E-005  1.234863140900198E-006
  3.168054950888425E-005  1.234863140900198E-006
  3.572621641405565E-005  1.234863140900198E-006
  3.996440317989857E-005  1.234863140900198E-006
  4.710835693449878E-005  1.234863140900198E-006
  4.892930515888298E-005  1.234863140900198E-006
  5.083853330732164E-005  1.234863140900198E-006
  5.267418551223728E-005  1.234863140900198E-006
  5.591028624246151E-005  1.234863140900198E-006
  5.611752142657522E-005  1.234863140900198E-006
  6.126399364663811E-005  1.234863140900198E-006
  6.810214040080065E-005  1.234863140900198E-006
  7.089432497879939E-005  1.234863140900198E-006
  7.319996877074155E-005  1.234863140900198E-006
  8.134225841074045E-005  1.234863140900198E-006
  8.225702337346790E-005  1.234863140900198E-006
  8.353724926885406E-005  1.234863140900198E-006
  8.617318631373618E-005  1.234863140900198E-006
  8.877766542723735E-005  1.234863140900198E-006
  9.293712935108907E-005  1.234863140900198E-006
  9.338694041193630E-005  1.234863140900198E-006
  9.459445070466402E-005  1.234863140900198E-006
  9.720348844838803E-005  1.234863140900198E-006
  1.101159280484819E-004  1.234863140900198E-006
  1.191777898228537E-004  1.234863140900198E-006
  1.224806608463439E-004  1.234863140900198E-006
  1.352781043764496E-004  1.234863140900198E-006
  1.365000066382832E-004  1.234863140900198E-006
  1.373709494951787E-004  1.234863140900198E-006
  1.408629216521838E-004  1.234863140900198E-006
  1.561072053491628E-004  1.234863140900198E-006
  1.590790043075510E-004  1.234863140900198E-006
  1.669663171399466E-004  1.234863140900198E-006
  1.712427582299709E-004  1.234863140900198E-006
  1.815326624878459E-004  1.234863140900198E-006
  2.024940807520148E-004  1.234863140900198E-006
  2.211844592532513E-004  1.234863140900198E-006
  2.257378225123013E-004  1.234863140900198E-006
  2.309083403782738E-004  1.234863140900198E-006
  2.437156013477065E-004  1.234863140900198E-006
  2.715837508919269E-004  1.234863140900198E-006
  2.844778566114590E-004  1.234863140900198E-006
  2.895333629284080E-004  1.234863140900198E-006
  2.997034305326545E-004  1.234863140900198E-006
  3.427489464642564E-004  1.234863140900198E-006
  3.575737966772714E-004  1.234863140900198E-006
  3.613360920647761E-004  1.234863140900198E-006
  3.835170766503259E-004  1.234863140900198E-006
  3.902425988670473E-004  1.234863140900198E-006
  3.919693412399850E-004  1.234863140900198E-006
  3.974981549290930E-004  1.234863140900198E-006
  4.123327724101857E-004  1.234863140900198E-006
  4.280896195824099E-004  1.234863140900198E-006
  4.283785862839723E-004  1.234863140900198E-006
  4.305133435782009E-004  1.234863140900198E-006
  4.372020083592861E-004  1.234863140900198E-006
  4.403410217643969E-004  1.234863140900198E-006
  4.417385869545895E-004  1.234863140900198E-006
  4.619719642763696E-004  1.234863140900198E-006
  4.653684513027932E-004  1.234863140900198E-006
  4.675428718543522E-004  1.234863140900198E-006
  4.931139050879270E-004  1.234863140900198E-006
  5.219752616900035E-004  1.234863140900198E-006
  5.330036361634523E-004  1.234863140900198E-006
  5.373921630683888E-004  1.234863140900198E-006
  5.459485368492324E-004  1.234863140900198E-006
  5.470117071704281E-004  1.234863140900198E-006
  5.531497549750557E-004  1.234863140900198E-006
  5.544231739454362E-004  1.234863140900198E-006
  5.557641239297006E-004  1.234863140900198E-006
  5.558330796920694E-004  1.234863140900198E-006
  5.665462692916489E-004  1.234863140900198E-006
  5.820835857753406E-004  1.234863140900198E-006
  5.985334042289134E-004  1.234863140900198E-006
  5.992685893157133E-004  1.234863140900198E-006
  5.995962053702308E-004  1.234863140900198E-006
  5.998812774287956E-004  1.234863140900198E-006
  6.022113584773734E-004  1.234863140900198E-006
  6.413580496790748E-004  1.234863140900198E-006
  6.448839960004797E-004  1.234863140900198E-006
  6.456880328773545E-004  1.234863140900198E-006
  6.475103745918608E-004  1.234863140900198E-006
  6.660190752995601E-004  1.234863140900198E-006
  6.872523224597869E-004  1.234863140900198E-006
  6.935997845701655E-004  1.234863140900198E-006
  6.959770952639164E-004  1.234863140900198E-006
  7.105696229610864E-004  1.234863140900198E-006
  7.436907590715344E-004  1.234863140900198E-006
  8.225043387883941E-004  1.234863140900198E-006
  9.286599529355221E-004  1.234863140900198E-006
  9.465127796566287E-004  1.234863140900198E-006
  1.092115422111433E-003  1.234863140900198E-006
  1.093065335345402E-003  1.234863140900198E-006
  1.093727204587445E-003  1.234863140900198E-006
  1.094248165681697E-003  1.234863140900198E-006
  1.126295409666855E-003  1.234863140900198E-006
  1.126489547561270E-003  1.234863140900198E-006
  1.147775311210039E-003  1.234863140900198E-006
  1.163474716958876E-003  1.234863140900198E-006
  1.163625181537113E-003  1.234863140900198E-006
  1.163936978488100E-003  1.234863140900198E-006
  1.164174597546974E-003  1.234863140900198E-006
  1.165286916819711E-003  1.234863140900198E-006
  1.165891263614540E-003  1.234863140900198E-006
  1.255941075891933E-003  1.234863140900198E-006
  1.289112533486597E-003  1.234863140900198E-006
  1.289968411047819E-003  1.234863140900198E-006
  1.393813963618733E-003  1.234863140900198E-006
  1.510505919310459E-003  1.234863140900198E-006
  1.587655178845197E-003  1.234863140900198E-006
  1.729086991895685E-003  1.234863140900198E-006
  1.799138004120070E-003  1.234863140900198E-006
[...]
 nber times 1st assigned=          65           0
 nber times 1st assigned=          66           0
 nber times 1st assigned=          67           0
 nber times 1st assigned=          68           0
 nber times 1st assigned=          69           0
 nber times 1st assigned=          70           0
 nber times 1st assigned=          71           0
 nber times 1st assigned=          72           0
 nber times 1st assigned=          73           0
 nber times 1st assigned=          74           0
 nber times 1st assigned=          75           0
 nber times 1st assigned=          76           0
 nber times 1st assigned=          77           0
 nber times 1st assigned=          78           0
 nber times 1st assigned=          79           0
 nber times 1st assigned=          80           0
 nber times 1st assigned=          81           0
 nber times 1st assigned=          82           0
 nber times 1st assigned=          83           0
 nber times 1st assigned=          84           0
 nber times 1st assigned=          85           0
 nber times 1st assigned=          86           0
 nber times 1st assigned=          87           0
 nber times 1st assigned=          88           0
 nber times 1st assigned=          89           0
 nber times 1st assigned=          90           0
 nber times 1st assigned=          91           0
 nber times 1st assigned=          92           0
 nber times 1st assigned=          93           0
 nber times 1st assigned=          94           0
 nber times 1st assigned=          95           0
 nber times 1st assigned=          96           0
 nber times 1st assigned=          97           0
 nber times 1st assigned=          98           0
 nber times 1st assigned=          99           0
 nber times 1st assigned=         100           0
 nber times 1st assigned=         101           0
 nber times 1st assigned=         102           0
 nber times 1st assigned=         103           0
 nber times 1st assigned=         104           0
 nber times 1st assigned=         105           0
 nber times 1st assigned=         106           0
 nber times 1st assigned=         107           0
 nber times 1st assigned=         108           0
 nber times 1st assigned=         109           0
 nber times 1st assigned=         110           0
 nber times 1st assigned=         111           0
 nber times 1st assigned=         112           0
 nber times 1st assigned=         113           0
 nber times 1st assigned=         114           0
 nber times 1st assigned=         115           0
 nber times 1st assigned=         116           0
 nber times 1st assigned=         117           0
 nber times 1st assigned=         118           0
 nber times 1st assigned=         119           0
 nber times 1st assigned=         120           0
 nber times 1st assigned=         121           0
 nber times 1st assigned=         122           0
 nber times 1st assigned=         123           0
 nber times 1st assigned=         124           0
 nber times 1st assigned=         125           0
 nber times 1st assigned=         126           0
 nber times 1st assigned=         127           0
 nber times 1st assigned=         128           0
 nber times 1st assigned=         129           0
 nber times 1st assigned=         130           0
 nber times 1st assigned=         131           0
 nber times 1st assigned=         132           0
 nber times 1st assigned=         133           0
 nber times 1st assigned=         134           0
 nber times 1st assigned=         135           0
 nber times 1st assigned=         136           0
 nber times 1st assigned=         137           0
 nber times 1st assigned=         138           0
 nber times 1st assigned=         139           0
 nber times 1st assigned=         140           0
 nber times 1st assigned=         141           0
 nber times 1st assigned=         142           0
 nber times 1st assigned=         143           0
 nber times 1st assigned=         144           0
 nber times 1st assigned=         145           0
 nber times 1st assigned=         146           0
 nber times 1st assigned=         147           0
 nber times 1st assigned=         148           0
 nber times 1st assigned=         149           0
 nber times 1st assigned=         150           0
 nber times 1st assigned=         151           0
 nber times 1st assigned=         152           0
 nber times 1st assigned=         153           0
 nber times 1st assigned=         154           0
 nber times 1st assigned=         155           0
 nber times 1st assigned=         156           0
 modes represented=   149.967548541616     
 p1=
    0.    0.   -0.   -0.    0.   -0.   -1.   -0.   -0.   -0.    0.   -0.   -0.   -0.    0.   -0.   -0.    0.    0.    2.
   -2.    0.   -0.    1.   -0.   -1.   -1.   -5.   -0.    0.    1.    1.    0.   -0.    5.   -0.    4.    2.    1.   -0.
    0.   -0.    2.   -0.   -0.   -0.   -2.   -3.    0.   -0.   -1.    0.   -0.    0.   -0.   -0.    0.    0.    0.   -1.
   -0.   -0.   -0.   -0.    1.    0.    0.    0.   -1.    0.    0.   -1.    0.   -0.    0.   -0.   -1.    0.   -0.   -0.
   -0.    0.    0.    0.    0.   -1.    1.    0.   -0.   -0.   -0.    0.   -0.   -0.    0.   -1.   -0.    0.    0.   -0.
   -1.   -1.   -1.    0.   -0.    0.   -0.    0.    2.    0.    0.   -0.    0.    0.   -0.    0.   -1.   -0.    0.    0.
    0.   -0.   -0.   -0.   -0.    0.   -0.    0.    1.   -0.    0.   -0.    0.    0.    0.    0.   -1.    2.   -0.    0.
    0.    0.    0.   -0.   -0.   -0.   -0.   -0.    0.    0.   -0.   -0.    0.   -0.   -0.   -0.
 p2=
    0.    0.    0.   -0.    0.   -0.    1.   -1.    0.    0.   -0.    0.    0.   -0.    0.    0.    0.    0.    2.    0.
    2.    0.   -1.    1.    0.    0.   -2.   -5.    0.    1.   -0.    1.   -1.   -0.   -5.   -0.   -4.   -2.    1.    0.
    1.   -2.    0.    0.   -0.    0.   -2.   -3.   -0.   -0.   -1.   -0.    0.    0.    0.    0.    0.    1.    0.   -0.
    0.    0.    0.   -0.    1.    0.    0.   -0.   -1.   -0.   -0.    1.    0.    0.   -0.   -0.   -1.    0.    1.    0.
    0.    0.    0.    0.   -0.    1.   -1.   -0.    0.    0.   -0.   -0.   -0.   -0.    0.   -0.    0.   -0.    0.    0.
    0.   -1.    1.   -0.    0.   -0.    0.   -1.    0.    0.    0.    0.    0.    0.   -0.   -1.    0.   -0.    0.   -0.
   -0.   -0.   -0.   -0.   -0.    0.   -0.    0.   -1.   -0.    0.    0.   -0.   -0.    0.   -0.    1.   -2.   -0.   -0.
   -0.    0.    0.   -0.   -0.    0.   -0.   -0.    0.   -0.    0.    0.    0.    0.   -0.   -0.

 Displacement: in terms of nc of 1 THEN of nc of 2

   1     freq=    -0. Q=  0.000 lam=    -0.0     freq=    -0. Q=  0.000 lam=    -0.0
   2     freq=    -0. Q=  0.000 lam=    -0.0     freq=    -0. Q=  0.000 lam=    -0.0
   3     freq=    -0. Q= -0.000 lam=    -0.0     freq=     0. Q= -0.000 lam=     0.0
   4     freq=    -0. Q= -0.000 lam=    -0.0     freq=     0. Q= -0.000 lam=     0.0
   5     freq=     0. Q=  0.000 lam=     0.0     freq=     0. Q=  0.000 lam=     0.0
   6     freq=     0. Q= -0.000 lam=     0.0     freq=     0. Q= -0.000 lam=     0.0
   7     freq=    24. Q= -0.019 lam=     0.0     freq=    25. Q= -0.013 lam=     0.0
   8     freq=    29. Q= -0.000 lam=     0.0     freq=    26. Q= -0.015 lam=     0.0
   9     freq=    51. Q= -0.003 lam=     0.0     freq=    53. Q= -0.003 lam=     0.0
  10     freq=    56. Q= -0.006 lam=     0.0     freq=    60. Q= -0.007 lam=     0.0
  11     freq=    64. Q=  0.002 lam=     0.0     freq=    71. Q=  0.002 lam=     0.0
  12     freq=    78. Q= -0.001 lam=     0.0     freq=    83. Q= -0.001 lam=     0.0
  13     freq=    87. Q= -0.002 lam=     0.0     freq=    89. Q= -0.001 lam=     0.0
  14     freq=    93. Q= -0.001 lam=     0.0     freq=    95. Q= -0.001 lam=     0.0
  15     freq=   105. Q=  0.004 lam=     0.0     freq=   110. Q=  0.005 lam=     0.0
  16     freq=   120. Q= -0.002 lam=     0.0     freq=   124. Q= -0.002 lam=     0.0
  17     freq=   168. Q= -0.002 lam=     0.0     freq=   167. Q= -0.001 lam=     0.0
  18     freq=   170. Q=  0.000 lam=     0.0     freq=   172. Q=  0.001 lam=     0.0
  19     freq=   186. Q=  0.005 lam=     0.0     freq=   188. Q=  0.094 lam=     0.8
  20     freq=   186. Q=  0.084 lam=     0.7     freq=   198. Q=  0.000 lam=     0.0
  21     freq=   203. Q= -0.131 lam=     1.7     freq=   205. Q= -0.125 lam=     1.6
  22     freq=   209. Q=  0.002 lam=     0.0     freq=   211. Q=  0.004 lam=     0.0
  23     freq=   235. Q= -0.001 lam=     0.0     freq=   234. Q= -0.078 lam=     0.7
  24     freq=   235. Q=  0.081 lam=     0.8     freq=   235. Q=  0.034 lam=     0.1
  25     freq=   257. Q= -0.001 lam=     0.0     freq=   266. Q= -0.001 lam=     0.0
  26     freq=   271. Q= -0.056 lam=     0.4     freq=   274. Q= -0.010 lam=     0.0
  27     freq=   271. Q= -0.092 lam=     1.1     freq=   275. Q= -0.106 lam=     1.6
  28     freq=   288. Q= -0.338 lam=    16.4     freq=   290. Q= -0.333 lam=    16.1
  29     freq=   303. Q= -0.000 lam=     0.0     freq=   302. Q= -0.001 lam=     0.0
  30     freq=   336. Q=  0.001 lam=     0.0     freq=   344. Q=  0.068 lam=     0.8
  31     freq=   338. Q=  0.064 lam=     0.7     freq=   351. Q=  0.001 lam=     0.0
  32     freq=   370. Q=  0.098 lam=     1.8     freq=   376. Q=  0.109 lam=     2.2
  33     freq=   391. Q=  0.030 lam=     0.2     freq=   394. Q=  0.045 lam=     0.4
  34     freq=   396. Q= -0.035 lam=     0.2     freq=   399. Q= -0.034 lam=     0.2
  35     freq=   413. Q=  0.440 lam=    40.1     freq=   418. Q=  0.437 lam=    40.0
  36     freq=   418. Q= -0.000 lam=     0.0     freq=   419. Q= -0.022 lam=     0.1
  37     freq=   433. Q=  0.348 lam=    26.2     freq=   437. Q=  0.339 lam=    25.0
  38     freq=   439. Q=  0.152 lam=     5.0     freq=   443. Q=  0.140 lam=     4.3
  39     freq=   442. Q=  0.060 lam=     0.8     freq=   448. Q=  0.057 lam=     0.7
  40     freq=   447. Q= -0.003 lam=     0.0     freq=   454. Q= -0.000 lam=     0.0
  41     freq=   474. Q=  0.027 lam=     0.2     freq=   475. Q=  0.079 lam=     1.5
  42     freq=   483. Q= -0.002 lam=     0.0     freq=   484. Q= -0.199 lam=     9.6
  43     freq=   484. Q=  0.182 lam=     8.0     freq=   504. Q=  0.000 lam=     0.0
  44     freq=   497. Q= -0.000 lam=     0.0     freq=   511. Q= -0.031 lam=     0.3
  45     freq=   507. Q= -0.000 lam=     0.0     freq=   512. Q= -0.000 lam=     0.0
  46     freq=   514. Q= -0.039 lam=     0.4     freq=   518. Q= -0.000 lam=     0.0
  47     freq=   543. Q= -0.229 lam=    14.3     freq=   541. Q= -0.210 lam=    12.0
  48     freq=   567. Q= -0.258 lam=    18.9     freq=   571. Q= -0.279 lam=    22.3
  49     freq=   567. Q=  0.025 lam=     0.2     freq=   580. Q=  0.006 lam=     0.0
  50     freq=   574. Q= -0.010 lam=     0.0     freq=   588. Q= -0.000 lam=     0.0
  51     freq=   593. Q= -0.066 lam=     1.3     freq=   597. Q= -0.069 lam=     1.4
  52     freq=   605. Q=  0.000 lam=     0.0     freq=   624. Q=  0.001 lam=     0.0
  53     freq=   615. Q= -0.015 lam=     0.1     freq=   624. Q= -0.015 lam=     0.1
  54     freq=   632. Q=  0.001 lam=     0.0     freq=   653. Q=  0.000 lam=     0.0
  55     freq=   652. Q= -0.000 lam=     0.0     freq=   664. Q= -0.000 lam=     0.0
  56     freq=   672. Q= -0.001 lam=     0.0     freq=   712. Q= -0.007 lam=     0.0
  57     freq=   700. Q=  0.000 lam=     0.0     freq=   714. Q=  0.000 lam=     0.0
  58     freq=   707. Q=  0.008 lam=     0.0     freq=   730. Q=  0.150 lam=     8.2
  59     freq=   710. Q=  0.000 lam=     0.0     freq=   745. Q=  0.000 lam=     0.0
  60     freq=   727. Q= -0.146 lam=     7.7     freq=   748. Q= -0.001 lam=     0.0
  61     freq=   753. Q= -0.001 lam=     0.0     freq=   757. Q= -0.001 lam=     0.0
  62     freq=   758. Q= -0.000 lam=     0.0     freq=   766. Q= -0.001 lam=     0.0
  63     freq=   759. Q= -0.001 lam=     0.0     freq=   779. Q= -0.001 lam=     0.0
  64     freq=   764. Q= -0.001 lam=     0.0     freq=   796. Q= -0.000 lam=     0.0
  65     freq=   799. Q=  0.078 lam=     2.4     freq=   802. Q=  0.071 lam=     2.0
  66     freq=   804. Q=  0.011 lam=     0.0     freq=   807. Q=  0.011 lam=     0.0
  67     freq=   809. Q=  0.000 lam=     0.0     freq=   808. Q=  0.001 lam=     0.0
  68     freq=   814. Q=  0.000 lam=     0.0     freq=   815. Q=  0.000 lam=     0.0
  69     freq=   822. Q= -0.089 lam=     3.3     freq=   825. Q= -0.080 lam=     2.7
  70     freq=   826. Q=  0.000 lam=     0.0     freq=   827. Q=  0.000 lam=     0.0
  71     freq=   832. Q=  0.000 lam=     0.0     freq=   830. Q=  0.000 lam=     0.0
  72     freq=   844. Q= -0.145 lam=     8.8     freq=   846. Q= -0.145 lam=     8.9
  73     freq=   888. Q=  0.058 lam=     1.5     freq=   894. Q=  0.059 lam=     1.5
  74     freq=   913. Q= -0.002 lam=     0.0     freq=   919. Q= -0.008 lam=     0.0
  75     freq=   926. Q=  0.048 lam=     1.0     freq=   941. Q=  0.001 lam=     0.0
  76     freq=   945. Q= -0.001 lam=     0.0     freq=   953. Q= -0.001 lam=     0.0
  77     freq=   952. Q= -0.157 lam=    11.7     freq=   956. Q= -0.125 lam=     7.5
  78     freq=   957. Q=  0.002 lam=     0.0     freq=   963. Q=  0.001 lam=     0.0
  79     freq=   974. Q= -0.000 lam=     0.0     freq=   965. Q= -0.108 lam=     5.6
  80     freq=   976. Q= -0.000 lam=     0.0     freq=   966. Q= -0.001 lam=     0.0
  81     freq=   987. Q= -0.000 lam=     0.0     freq=   976. Q= -0.000 lam=     0.0
  82     freq=   988. Q=  0.000 lam=     0.0     freq=   979. Q=  0.000 lam=     0.0
  83     freq=  1014. Q=  0.039 lam=     0.8     freq=  1025. Q=  0.020 lam=     0.2
  84     freq=  1041. Q=  0.034 lam=     0.6     freq=  1041. Q=  0.043 lam=     1.0
  85     freq=  1067. Q=  0.025 lam=     0.3     freq=  1069. Q=  0.027 lam=     0.4
  86     freq=  1093. Q= -0.167 lam=    15.3     freq=  1083. Q= -0.104 lam=     5.9
  87     freq=  1102. Q=  0.146 lam=    11.8     freq=  1103. Q=  0.187 lam=    19.2
  88     freq=  1137. Q=  0.005 lam=     0.0     freq=  1145. Q=  0.002 lam=     0.0
  89     freq=  1153. Q= -0.001 lam=     0.0     freq=  1153. Q= -0.001 lam=     0.0
  90     freq=  1155. Q= -0.000 lam=     0.0     freq=  1154. Q= -0.000 lam=     0.0
  91     freq=  1160. Q= -0.009 lam=     0.0     freq=  1157. Q= -0.012 lam=     0.1
  92     freq=  1169. Q=  0.018 lam=     0.2     freq=  1173. Q=  0.014 lam=     0.1
  93     freq=  1186. Q= -0.025 lam=     0.4     freq=  1183. Q= -0.009 lam=     0.0
  94     freq=  1194. Q= -0.004 lam=     0.0     freq=  1192. Q= -0.005 lam=     0.0
  95     freq=  1196. Q=  0.000 lam=     0.0     freq=  1197. Q=  0.009 lam=     0.1
  96     freq=  1224. Q= -0.077 lam=     3.6     freq=  1223. Q= -0.052 lam=     1.6
  97     freq=  1233. Q= -0.035 lam=     0.8     freq=  1233. Q= -0.058 lam=     2.1
  98     freq=  1240. Q=  0.024 lam=     0.3     freq=  1243. Q=  0.045 lam=     1.3
  99     freq=  1243. Q=  0.003 lam=     0.0     freq=  1246. Q=  0.007 lam=     0.0
 100     freq=  1251. Q= -0.010 lam=     0.1     freq=  1255. Q= -0.003 lam=     0.0
 101     freq=  1296. Q= -0.135 lam=    11.8     freq=  1283. Q= -0.060 lam=     2.3
 102     freq=  1299. Q= -0.187 lam=    22.7     freq=  1295. Q= -0.206 lam=    27.5
 103     freq=  1316. Q= -0.077 lam=     3.9     freq=  1306. Q= -0.104 lam=     7.1
 104     freq=  1319. Q=  0.008 lam=     0.0     freq=  1315. Q=  0.014 lam=     0.1
 105     freq=  1351. Q= -0.004 lam=     0.0     freq=  1349. Q= -0.029 lam=     0.6
 106     freq=  1360. Q=  0.073 lam=     3.6     freq=  1354. Q=  0.003 lam=     0.0
 107     freq=  1366. Q= -0.005 lam=     0.0     freq=  1366. Q= -0.066 lam=     3.0
 108     freq=  1382. Q=  0.003 lam=     0.0     freq=  1376. Q=  0.194 lam=    25.8
 109     freq=  1383. Q=  0.237 lam=    38.8     freq=  1383. Q=  0.000 lam=     0.0
 110     freq=  1392. Q=  0.014 lam=     0.1     freq=  1387. Q=  0.004 lam=     0.0
 111     freq=  1400. Q=  0.000 lam=     0.0     freq=  1392. Q=  0.008 lam=     0.0
 112     freq=  1404. Q= -0.008 lam=     0.0     freq=  1397. Q= -0.000 lam=     0.0
 113     freq=  1416. Q=  0.058 lam=     2.4     freq=  1406. Q=  0.059 lam=     2.4
 114     freq=  1429. Q=  0.029 lam=     0.6     freq=  1419. Q=  0.032 lam=     0.7
 115     freq=  1435. Q= -0.029 lam=     0.6     freq=  1427. Q= -0.005 lam=     0.0
 116     freq=  1444. Q=  0.002 lam=     0.0     freq=  1446. Q=  0.168 lam=    20.5
 117     freq=  1449. Q= -0.146 lam=    15.5     freq=  1468. Q= -0.007 lam=     0.0
 118     freq=  1466. Q= -0.016 lam=     0.2     freq=  1470. Q= -0.041 lam=     1.2
 119     freq=  1467. Q=  0.052 lam=     2.0     freq=  1472. Q=  0.005 lam=     0.0
 120     freq=  1485. Q=  0.000 lam=     0.0     freq=  1482. Q=  0.056 lam=     2.3
 121     freq=  1493. Q=  0.060 lam=     2.7     freq=  1482. Q=  0.001 lam=     0.0
 122     freq=  1496. Q= -0.000 lam=     0.0     freq=  1494. Q= -0.042 lam=     1.3
 123     freq=  1498. Q= -0.044 lam=     1.5     freq=  1496. Q= -0.000 lam=     0.0
 124     freq=  1505. Q= -0.000 lam=     0.0     freq=  1507. Q= -0.024 lam=     0.4
 125     freq=  1506. Q= -0.017 lam=     0.2     freq=  1508. Q= -0.000 lam=     0.0
 126     freq=  1511. Q=  0.005 lam=     0.0     freq=  1524. Q=  0.028 lam=     0.6
 127     freq=  1523. Q= -0.026 lam=     0.5     freq=  1530. Q= -0.003 lam=     0.0
 128     freq=  1547. Q=  0.029 lam=     0.6     freq=  1562. Q=  0.025 lam=     0.5
 129     freq=  1555. Q=  0.191 lam=    28.4     freq=  1573. Q=  0.198 lam=    31.0
 130     freq=  1570. Q= -0.008 lam=     0.1     freq=  1575. Q= -0.011 lam=     0.1
 131     freq=  1580. Q=  0.000 lam=     0.0     freq=  1591. Q=  0.001 lam=     0.0
 132     freq=  1598. Q= -0.003 lam=     0.0     freq=  1609. Q= -0.003 lam=     0.0
 133     freq=  1599. Q=  0.003 lam=     0.0     freq=  1617. Q=  0.069 lam=     3.8
 134     freq=  1622. Q=  0.031 lam=     0.8     freq=  1627. Q=  0.001 lam=     0.0
 135     freq=  1685. Q=  0.005 lam=     0.0     freq=  1663. Q=  0.008 lam=     0.1
 136     freq=  1696. Q=  0.004 lam=     0.0     freq=  1674. Q=  0.005 lam=     0.0
 137     freq=  1724. Q= -0.147 lam=    18.6     freq=  1700. Q= -0.128 lam=    14.0
 138     freq=  1734. Q=  0.256 lam=    57.0     freq=  1712. Q=  0.305 lam=    79.5
 139     freq=  3034. Q= -0.000 lam=     0.0     freq=  3022. Q= -0.000 lam=     0.0
 140     freq=  3038. Q=  0.017 lam=     0.5     freq=  3027. Q=  0.019 lam=     0.5
 141     freq=  3061. Q=  0.017 lam=     0.4     freq=  3046. Q=  0.016 lam=     0.4
 142     freq=  3092. Q=  0.000 lam=     0.0     freq=  3080. Q=  0.000 lam=     0.0
 143     freq=  3095. Q=  0.014 lam=     0.3     freq=  3083. Q=  0.012 lam=     0.2
 144     freq=  3112. Q= -0.008 lam=     0.1     freq=  3096. Q= -0.000 lam=     0.0
 145     freq=  3120. Q= -0.000 lam=     0.0     freq=  3104. Q= -0.009 lam=     0.1
 146     freq=  3132. Q= -0.000 lam=     0.0     freq=  3129. Q= -0.000 lam=     0.0
 147     freq=  3143. Q= -0.009 lam=     0.1     freq=  3138. Q= -0.007 lam=     0.1
 148     freq=  3182. Q= -0.003 lam=     0.0     freq=  3170. Q= -0.004 lam=     0.0
 149     freq=  3198. Q=  0.001 lam=     0.0     freq=  3181. Q=  0.001 lam=     0.0
 150     freq=  3198. Q=  0.000 lam=     0.0     freq=  3181. Q=  0.000 lam=     0.0
 151     freq=  3204. Q= -0.005 lam=     0.0     freq=  3188. Q= -0.005 lam=     0.0
 152     freq=  3205. Q= -0.008 lam=     0.1     freq=  3189. Q= -0.007 lam=     0.1
 153     freq=  3213. Q=  0.000 lam=     0.0     freq=  3198. Q=  0.000 lam=     0.0
 154     freq=  3213. Q= -0.000 lam=     0.0     freq=  3199. Q= -0.000 lam=     0.0
 155     freq=  3224. Q= -0.001 lam=     0.0     freq=  3211. Q= -0.002 lam=     0.0
 156     freq=  3224. Q= -0.019 lam=     0.6     freq=  3211. Q= -0.018 lam=     0.5

 total reorg energy (cm**-1, kcal/mol)=      425.      437.      1.22      1.25
 Nber of molecules processed=           2
