 Enter ifcurve (0=recti, 1=orth curvi, 2=apprx curvi, -1 = skip
 And atom ordering flag, 0= never changes, 1= use the first order thenceforth,
  2= deduce it (does read on fail), 3= always read it
 Reading file: 
 ./TT-PDI_1_C0S1.log                                                            
                                          
  Entering Gaussian System, Link 0=g16                                          
  
 Gaussian format, type: g94, g98, g03= F F F
  #P Geom=AllCheck Guess=TCheck SCRF=Check GenChk RB3LYP TD(FC,Read)/6-3    
 energy type= TD      
 Original G94 input coords:
  6  1.063652  0.017491 -0.454248
  6  2.573418  0.126091 -0.213036
  6  3.366233  0.471980 -1.478434
  7  2.891080  1.053598  0.913043
  6  3.506151  0.486781  2.049395
  8  3.762571 -0.709016  2.098989
  6  3.821007  1.396871  3.162065
  6  4.429233  0.886522  4.308713
  6  4.737879  1.714940  5.371944
  6  4.454506  3.098389  5.344474
  6  4.772403  3.976263  6.451669
  6  5.388963  3.494084  7.633023
  6  5.687592  4.330233  8.678795
  6  5.390056  5.702767  8.613297
  6  5.730818  6.528534  9.751034
  8  6.260448  6.133011 10.772110
  7  5.398893  7.942593  9.627349
  6  5.658979  8.838970 10.619387
  6  6.238301  8.652295 11.853289
  6  6.426504  9.717848 12.760689
  6  7.012913  9.585520 14.036343
  6  7.071103 10.795563 14.713928
 16  7.657270 11.306914 16.279751
  6  7.179711 12.942647 15.929054
  6  6.602645 13.110613 14.690226
  6  6.539513 11.890851 13.996636
 16  5.950398 11.401877 12.434629
  6  4.753235  8.538519  8.426604
  8  4.526231  9.732358  8.438912
  6  4.462628  7.621164  7.362351
  6  3.850145  8.123704  6.197211
  6  3.547727  7.296564  5.147935
  6  3.836015  5.907165  5.187922
  6  3.517679  5.031174  4.083298
  6  2.901532  5.497765  2.899910
  6  2.601963  4.649519  1.850373
  6  2.901732  3.289162  1.925420
  6  2.568714  2.414719  0.789551
  8  2.032946  2.844993 -0.224633
  6  3.517510  2.773175  3.085906
  6  3.833054  3.642041  4.181689
  6  4.458466  5.367489  6.356974
  6  4.775332  6.241883  7.460561
  1  0.873338 -0.775699 -1.183149
  1  0.651092  0.950602 -0.835573
  1  0.544972 -0.247708  0.470849
  1  2.926118 -0.835645  0.153170
  1  3.048409  1.423603 -1.902281
  1  3.212885 -0.314295 -2.223373
  1  4.436299  0.520813 -1.259939
  1  4.651818 -0.172341  4.342516
  1  5.208585  1.275494  6.239864
  1  5.634202  2.446323  7.724465
  1  6.158532  3.949513  9.575939
  1  5.332654  9.831590 10.321496
  1  6.566055  7.670943 12.157937
  1  7.363642  8.632801 14.406157
  1  7.354347 13.706903 16.671289
  1  6.251958 14.063049 14.320583
  1  3.624399  9.181454  6.152675
  1  3.078559  7.723677  4.273953
  1  2.650721  6.543897  2.796589
  1  2.129587  5.020170  0.949535
 nber atoms=          63
  Total Energy, E(TD-HF/TD-DFT) =  -2553.08862336                               
  
          32          49 "  -2553.08862336"
After scan for Atom:   Atom  AN      X      Y      Z        X      Y      Z        X      Y      Z   
After scan for Atom:   Atom  AN      X      Y      Z        X      Y      Z        X      Y      Z   
After scan for Atom:   Atom  AN      X      Y      Z        X      Y      Z        X      Y      Z   
After scan for Atom:   Atom  AN      X      Y      Z        X      Y      Z        X      Y      Z   
After scan for Atom:   Atom  AN      X      Y      Z        X      Y      Z        X      Y      Z   
After scan for Atom:   Atom  AN      X      Y      Z        X      Y      Z        X      Y      Z   
After scan for Atom:   Atom  AN      X      Y      Z        X      Y      Z        X      Y      Z   
After scan for Atom:   Atom  AN      X      Y      Z        X      Y      Z        X      Y      Z   
After scan for Atom:   Atom  AN      X      Y      Z        X      Y      Z        X      Y      Z   
After scan for Atom:   Atom  AN      X      Y      Z        X      Y      Z        X      Y      Z   
After scan for Atom:   Atom  AN      X      Y      Z        X      Y      Z        X      Y      Z   
After scan for Atom:   Atom  AN      X      Y      Z        X      Y      Z        X      Y      Z   
After scan for Atom:   Atom  AN      X      Y      Z        X      Y      Z        X      Y      Z   
After scan for Atom:   Atom  AN      X      Y      Z        X      Y      Z        X      Y      Z   
After scan for Atom:   Atom  AN      X      Y      Z        X      Y      Z        X      Y      Z   
After scan for Atom:   Atom  AN      X      Y      Z        X      Y      Z        X      Y      Z   
After scan for Atom:   Atom  AN      X      Y      Z        X      Y      Z        X      Y      Z   
After scan for Atom:   Atom  AN      X      Y      Z        X      Y      Z        X      Y      Z   
After scan for Atom:   Atom  AN      X      Y      Z        X      Y      Z        X      Y      Z   
After scan for Atom:   Atom  AN      X      Y      Z        X      Y      Z        X      Y      Z   
After scan for Atom:   Atom  AN      X      Y      Z        X      Y      Z        X      Y      Z   
After scan for Atom:   Atom  AN      X      Y      Z        X      Y      Z        X      Y      Z   
After scan for Atom:   Atom  AN      X      Y      Z        X      Y      Z        X      Y      Z   
After scan for Atom:   Atom  AN      X      Y      Z        X      Y      Z        X      Y      Z   
After scan for Atom:   Atom  AN      X      Y      Z        X      Y      Z        X      Y      Z   
After scan for Atom:   Atom  AN      X      Y      Z        X      Y      Z        X      Y      Z   
After scan for Atom:   Atom  AN      X      Y      Z        X      Y      Z        X      Y      Z   
After scan for Atom:   Atom  AN      X      Y      Z        X      Y      Z        X      Y      Z   
After scan for Atom:   Atom  AN      X      Y      Z        X      Y      Z        X      Y      Z   
After scan for Atom:   Atom  AN      X      Y      Z        X      Y      Z        X      Y      Z   
After scan for Atom:   Atom  AN      X      Y      Z        X      Y      Z        X      Y      Z   
After scan for Atom:   Atom  AN      X      Y      Z        X      Y      Z        X      Y      Z   
After scan for Atom:   Atom  AN      X      Y      Z        X      Y      Z        X      Y      Z   
After scan for Atom:   Atom  AN      X      Y      Z        X      Y      Z        X      Y      Z   
After scan for Atom:   Atom  AN      X      Y      Z        X      Y      Z        X      Y      Z   
After scan for Atom:   Atom  AN      X      Y      Z        X      Y      Z        X      Y      Z   
After scan for Atom:   Atom  AN      X      Y      Z        X      Y      Z        X      Y      Z   
After scan for Atom:   Atom  AN      X      Y      Z        X      Y      Z        X      Y      Z   
After scan for Atom:   Atom  AN      X      Y      Z        X      Y      Z        X      Y      Z   
After scan for Atom:   Atom  AN      X      Y      Z        X      Y      Z        X      Y      Z   
After scan for Atom:   Atom  AN      X      Y      Z        X      Y      Z        X      Y      Z   
After scan for Atom:   Atom  AN      X      Y      Z        X      Y      Z        X      Y      Z   
After scan for Atom:   Atom  AN      X      Y      Z        X      Y      Z        X      Y      Z   
After scan for Atom:   Atom  AN      X      Y      Z        X      Y      Z        X      Y      Z   
After scan for Atom:   Atom  AN      X      Y      Z        X      Y      Z        X      Y      Z   
After scan for Atom:   Atom  AN      X      Y      Z        X      Y      Z        X      Y      Z   
After scan for Atom:   Atom  AN      X      Y      Z        X      Y      Z        X      Y      Z   
After scan for Atom:   Atom  AN      X      Y      Z        X      Y      Z        X      Y      Z   
After scan for Atom:   Atom  AN      X      Y      Z        X      Y      Z        X      Y      Z   
After scan for Atom:   Atom  AN      X      Y      Z        X      Y      Z        X      Y      Z   
After scan for Atom:   Atom  AN      X      Y      Z        X      Y      Z        X      Y      Z   
After scan for Atom:   Atom  AN      X      Y      Z        X      Y      Z        X      Y      Z   
After scan for Atom:   Atom  AN      X      Y      Z        X      Y      Z        X      Y      Z   
After scan for Atom:   Atom  AN      X      Y      Z        X      Y      Z        X      Y      Z   
After scan for Atom:   Atom  AN      X      Y      Z        X      Y      Z        X      Y      Z   
After scan for Atom:   Atom  AN      X      Y      Z        X      Y      Z        X      Y      Z   
After scan for Atom:   Atom  AN      X      Y      Z        X      Y      Z        X      Y      Z   
After scan for Atom:   Atom  AN      X      Y      Z        X      Y      Z        X      Y      Z   
After scan for Atom:   Atom  AN      X      Y      Z        X      Y      Z        X      Y      Z   
After scan for Atom:   Atom  AN      X      Y      Z        X      Y      Z        X      Y      Z   
After scan for Atom:   Atom  AN      X      Y      Z        X      Y      Z        X      Y      Z   
 g94    frequencies=
     0.0    0.0    0.0    0.0    0.0    0.0    8.4   18.8   26.6   28.8
    29.4   48.7   56.1   63.6   77.4   88.8   94.7  100.5  121.8  145.4
   165.0  168.8  178.2  194.8  201.8  211.6  212.9  229.0  234.7  235.9
   236.6  258.3  290.3  295.9  296.8  313.9  333.4  355.3  357.0  379.7
   395.8  404.4  417.8  432.7  435.7  442.7  450.7  453.4  456.2  458.6
   464.3  473.4  484.9  496.8  501.5  513.0  516.5  533.9  557.3  563.7
   579.1  583.7  590.9  620.3  623.6  625.6  629.5  646.8  661.4  668.6
   684.9  713.2  719.7  730.1  736.0  747.6  757.5  761.7  764.7  771.7
   786.2  802.2  809.3  816.5  823.3  823.4  829.1  833.6  835.1  835.2
   846.9  847.3  895.4  899.5  914.7  920.3  922.4  943.9  951.8  956.0
   970.1  973.9  977.1  982.5  986.6  989.6 1018.8 1051.0 1070.3 1094.2
  1102.3 1124.8 1150.0 1155.1 1155.3 1165.5 1174.7 1190.3 1201.2 1213.6
  1214.8 1220.3 1227.8 1236.4 1250.0 1260.3 1278.1 1292.5 1299.4 1301.3
  1325.4 1339.5 1348.5 1362.6 1363.4 1371.7 1383.0 1384.1 1393.3 1397.7
  1398.0 1412.2 1425.1 1427.2 1440.2 1445.3 1454.7 1462.2 1474.7 1483.6
  1484.2 1485.6 1496.3 1506.6 1510.4 1523.7 1548.2 1558.3 1574.9 1588.5
  1603.3 1613.6 1616.5 1623.4 1637.8 1684.9 1721.5 1787.2 1826.8 3030.0
  3034.6 3087.2 3090.4 3109.6 3132.0 3141.7 3153.4 3193.3 3193.9 3199.1
  3199.8 3209.0 3209.4 3224.8 3225.0 3227.6 3228.4 3242.2 3248.0
 g94    symmetries=
                                                 A      A      A      A
       A      A      A      A      A      A      A      A      A      A
       A      A      A      A      A      A      A      A      A      A
       A      A      A      A      A      A      A      A      A      A
       A      A      A      A      A      A      A      A      A      A
       A      A      A      A      A      A      A      A      A      A
       A      A      A      A      A      A      A      A      A      A
       A      A      A      A      A      A      A      A      A      A
       A      A      A      A      A      A      A      A      A      A
       A      A      A      A      A      A      A      A      A      A
       A      A      A      A      A      A      A      A      A      A
       A      A      A      A      A      A      A      A      A      A
       A      A      A      A      A      A      A      A      A      A
       A      A      A      A      A      A      A      A      A      A
       A      A      A      A      A      A      A      A      A      A
       A      A      A      A      A      A      A      A      A      A
       A      A      A      A      A      A      A      A      A      A
       A      A      A      A      A      A      A      A      A      A
       A      A      A      A      A      A      A      A      A
 atomic masses:
 12.0000 12.0000 12.0000 14.0031 12.0000 15.9949 12.0000 12.0000 12.0000 12.0000
 12.0000 12.0000 12.0000 12.0000 12.0000 15.9949 14.0031 12.0000 12.0000 12.0000
 12.0000 12.0000 31.9721 12.0000 12.0000 12.0000 31.9721 12.0000 15.9949 12.0000
 12.0000 12.0000 12.0000 12.0000 12.0000 12.0000 12.0000 12.0000 15.9949 12.0000
 12.0000 12.0000 12.0000  1.0078  1.0078  1.0078  1.0078  1.0078  1.0078  1.0078
  1.0078  1.0078  1.0078  1.0078  1.0078  1.0078  1.0078  1.0078  1.0078  1.0078
  1.0078  1.0078  1.0078
 looking for force constants in 
 ./TT-PDI_1_C0S1.fchk                                                           
  
 Cartesian Force Constants                  R   N=       17955                  
  
 n3=         189       17955
 g94-fc frequencies=
     0.0    0.0    0.0    0.1    0.6    5.2    8.4   18.8   26.6   28.8
    29.4   48.7   56.1   63.6   77.4   88.8   94.7  100.5  121.8  145.4
   165.0  168.8  178.2  194.8  201.8  211.6  212.9  229.0  234.7  235.9
   236.6  258.3  290.4  295.9  296.8  313.9  333.5  355.3  357.0  379.7
   395.8  404.4  417.8  432.8  435.7  442.7  450.7  453.4  456.2  458.6
   464.4  473.4  484.9  496.8  501.5  513.0  516.5  533.9  557.3  563.7
   579.1  583.8  591.0  620.3  623.6  625.6  629.5  646.8  661.4  668.6
   684.9  713.2  719.7  730.1  736.0  747.6  757.5  761.8  764.8  771.7
   786.3  802.2  809.3  816.5  823.3  823.4  829.2  833.6  835.1  835.2
   846.9  847.4  895.4  899.5  914.7  920.3  922.4  943.9  951.8  956.0
   970.2  973.9  977.1  982.5  986.6  989.6 1018.9 1051.0 1070.4 1094.2
  1102.3 1124.8 1150.0 1155.2 1155.4 1165.5 1174.7 1190.4 1201.3 1213.6
  1214.8 1220.4 1227.8 1236.4 1250.0 1260.3 1278.1 1292.5 1299.4 1301.4
  1325.4 1339.6 1348.5 1362.6 1363.4 1371.8 1383.0 1384.1 1393.4 1397.7
  1398.0 1412.2 1425.1 1427.2 1440.3 1445.3 1454.7 1462.3 1474.7 1483.7
  1484.2 1485.7 1496.4 1506.7 1510.4 1523.7 1548.3 1558.3 1575.0 1588.6
  1603.3 1613.6 1616.5 1623.4 1637.8 1684.9 1721.6 1787.2 1826.8 3030.1
  3034.6 3087.3 3090.5 3109.7 3132.1 3141.8 3153.5 3193.4 3193.9 3199.1
  3199.9 3209.0 3209.5 3224.8 3225.1 3227.7 3228.5 3242.2 3248.0
 at 99999: n3=         189
 symm operator            1 :  F  nop=           0
 symm operator            2 :  F  nop=           0
 symm operator            3 :  F  nop=           0
 symm operator            4 :  F  nop=           0
 symm operator            5 :  F  nop=           0
 symm operator            6 :  F  nop=           0
 symm operator            7 :  F  nop=           0
 The point group of the molecule is  C1
 Symmetry rotation matrix:
   1.00000   0.00000   0.00000
   0.00000   1.00000   0.00000
   0.00000   0.00000   1.00000

 Projecting out zero-frequency components
 generating redundant internal coords
         300        3600          63
 search for int coords
   1 str   2   1   1.533
   2 str   3   2   1.533
   3 str   4   2   1.493
   4 str   5   4   1.411
   5 str   6   5   1.224
   6 str   7   5   1.472
   7 str   8   7   1.395
   8 str   9   8   1.383
   9 str  10   9   1.412
  10 str  11  10   1.448
  11 str  12  11   1.417
  12 str  13  12   1.372
  13 str  14  13   1.406
  14 str  15  14   1.447
  15 str  16  15   1.216
  16 str  17  15   1.458
  17 str  18  17   1.362
  18 str  19  18   1.376
  19 str  20  19   1.412
  20 str  21  20   1.410
  21 str  22  21   1.388
  22 str  23  22   1.748
  23 str  24  23   1.740
  24 str  25  24   1.377
  25 str  26  22   1.413
  26 str  26  25   1.405
  27 str  27  20   1.780
  28 str  27  26   1.740
  29 str  28  17   1.488
  30 str  29  28   1.215
  31 str  30  28   1.435
  32 str  31  30   1.409
  33 str  32  31   1.370
  34 str  33  32   1.420
  35 str  34  33   1.445
  36 str  35  34   1.413
  37 str  36  35   1.382
  38 str  37  36   1.395
  39 str  38   4   1.404
  40 str  38  37   1.472
  41 str  39  38   1.225
  42 str  40   7   1.411
  43 str  40  37   1.411
  44 str  41  10   1.426
  45 str  41  34   1.428
  46 str  41  40   1.434
  47 str  42  11   1.429
  48 str  42  33   1.430
  49 str  43  14   1.413
  50 str  43  30   1.418
  51 str  43  42   1.443
  52 str  44   1   1.094
  53 str  45   1   1.089
  54 str  46   1   1.093
  55 str  47   2   1.088
  56 str  48   3   1.089
  57 str  49   3   1.094
  58 str  50   3   1.093
  59 str  51   8   1.083
  60 str  52   9   1.081
  61 str  53  12   1.080
  62 str  54  13   1.082
  63 str  55  18   1.087
  64 str  56  19   1.079
  65 str  57  21   1.080
  66 str  58  24   1.080
  67 str  59  25   1.080
  68 str  60  31   1.082
  69 str  61  32   1.080
  70 str  62  35   1.081
  71 str  63  36   1.083
 nber stretches=          71
  72 ben   1   2   3
  73 prop tor   1   2   3  48
  74 prop tor   1   2   3  49
  75 prop tor   1   2   3  50
  76 ben   1   2   4
  77 prop tor   1   2   4   5
  78 prop tor   1   2   4  38
  79 ben   1   2  47
  80 ben   2   1  44
  81 ben   2   1  45
  82 ben   2   1  46
  83 ben   2   3  48
  84 ben   2   3  49
  85 ben   2   3  50
  86 ben   2   4   5
  87 prop tor   2   4   5   6
  88 prop tor   2   4   5   7
  89 ben   2   4  38
  90 prop tor   2   4  38  37
  91 prop tor   2   4  38  39
  92 ben   3   2   4
  93 prop tor   3   2   4   5
  94 prop tor   3   2   4  38
  95 ben   3   2  47
  96 prop tor   4   2   3  48
  97 prop tor   4   2   3  49
  98 prop tor   4   2   3  50
  99 ben   4   2  47
 100 ben   4   5   6
 101 ben   4   5   7
 102 prop tor   4   5   7   8
 103 prop tor   4   5   7  40
 104 ben   4  38  37
 105 ben   4  38  39
 106 ben   5   4  38
 107 prop tor   5   4  38  37
 108 prop tor   5   4  38  39
 109 ben   5   7   8
 110 prop tor   5   7   8   9
 111 prop tor   5   7   8  51
 112 ben   5   7  40
 113 prop tor   5   7  40  37
 114 prop tor   5   7  40  41
 115 ben   6   5   7
 116 prop tor   6   5   7   8
 117 prop tor   6   5   7  40
 118 ben   7   8   9
 119 prop tor   7   8   9  10
 120 prop tor   7   8   9  52
 121 ben   7   8  51
 122 ben   7  40  37
 123 ben   7  40  41
 124 prop tor   7  40  41  10
 125 prop tor   7  40  41  34
 126 ben   8   7  40
 127 prop tor   8   7  40  37
 128 prop tor   8   7  40  41
 129 ben   8   9  10
 130 prop tor   8   9  10  11
 131 prop tor   8   9  10  41
 132 ben   8   9  52
 133 ben   9   8  51
 134 ben   9  10  11
 135 prop tor   9  10  11  12
 136 prop tor   9  10  11  42
 137 ben   9  10  41
 138 prop tor   9  10  41  34
 139 prop tor   9  10  41  40
 140 ben  10   9  52
 141 ben  10  11  12
 142 prop tor  10  11  12  13
 143 prop tor  10  11  12  53
 144 ben  10  11  42
 145 prop tor  10  11  42  33
 146 prop tor  10  11  42  43
 147 ben  10  41  34
 148 ben  10  41  40
 149 ben  11  10  41
 150 prop tor  11  10  41  34
 151 prop tor  11  10  41  40
 152 ben  11  12  13
 153 prop tor  11  12  13  14
 154 prop tor  11  12  13  54
 155 ben  11  12  53
 156 ben  11  42  33
 157 ben  11  42  43
 158 prop tor  11  42  43  14
 159 prop tor  11  42  43  30
 160 ben  12  11  42
 161 prop tor  12  11  42  33
 162 prop tor  12  11  42  43
 163 ben  12  13  14
 164 prop tor  12  13  14  15
 165 prop tor  12  13  14  43
 166 ben  12  13  54
 167 ben  13  12  53
 168 ben  13  14  15
 169 prop tor  13  14  15  16
 170 prop tor  13  14  15  17
 171 ben  13  14  43
 172 prop tor  13  14  43  30
 173 prop tor  13  14  43  42
 174 ben  14  13  54
 175 ben  14  15  16
 176 ben  14  15  17
 177 prop tor  14  15  17  18
 178 prop tor  14  15  17  28
 179 ben  14  43  30
 180 ben  14  43  42
 181 ben  15  14  43
 182 prop tor  15  14  43  30
 183 prop tor  15  14  43  42
 184 ben  15  17  18
 185 prop tor  15  17  18  19
 186 prop tor  15  17  18  55
 187 ben  15  17  28
 188 prop tor  15  17  28  29
 189 prop tor  15  17  28  30
 190 ben  16  15  17
 191 prop tor  16  15  17  18
 192 prop tor  16  15  17  28
 193 ben  17  18  19
 194 prop tor  17  18  19  20
 195 prop tor  17  18  19  56
 196 ben  17  18  55
 197 ben  17  28  29
 198 ben  17  28  30
 199 prop tor  17  28  30  31
 200 prop tor  17  28  30  43
 201 ben  18  17  28
 202 prop tor  18  17  28  29
 203 prop tor  18  17  28  30
 204 ben  18  19  20
 205 prop tor  18  19  20  21
 206 prop tor  18  19  20  27
 207 ben  18  19  56
 208 ben  19  18  55
 209 ben  19  20  21
 210 prop tor  19  20  21  22
 211 prop tor  19  20  21  57
 212 ben  19  20  27
 213 prop tor  19  20  27  26
 214 ben  20  19  56
 215 ben  20  21  22
 216 prop tor  20  21  22  23
 217 prop tor  20  21  22  26
 218 ben  20  21  57
 219 ben  20  27  26
 220 ben  21  20  27
 221 prop tor  21  20  27  26
 222 ben  21  22  23
 223 prop tor  21  22  23  24
 224 ben  21  22  26
 225 prop tor  21  22  26  25
 226 prop tor  21  22  26  27
 227 ben  22  21  57
 228 ben  22  23  24
 229 prop tor  22  23  24  25
 230 prop tor  22  23  24  58
 231 ben  22  26  25
 232 ben  22  26  27
 233 prop tor  22  26  27  20
 234 ben  23  22  26
 235 prop tor  23  22  26  25
 236 prop tor  23  22  26  27
 237 ben  23  24  25
 238 prop tor  23  24  25  26
 239 prop tor  23  24  25  59
 240 ben  23  24  58
 241 ben  24  25  26
 242 prop tor  24  25  26  22
 243 prop tor  24  25  26  27
 244 ben  24  25  59
 245 ben  25  24  58
 246 ben  25  26  27
 247 prop tor  25  26  27  20
 248 prop tor  26  22  23  24
 249 ben  26  25  59
 250 prop tor  27  20  21  22
 251 prop tor  27  20  21  57
 252 prop tor  28  17  18  19
 253 prop tor  28  17  18  55
 254 ben  28  30  31
 255 prop tor  28  30  31  32
 256 prop tor  28  30  31  60
 257 ben  28  30  43
 258 prop tor  28  30  43  14
 259 prop tor  28  30  43  42
 260 ben  29  28  30
 261 prop tor  29  28  30  31
 262 prop tor  29  28  30  43
 263 ben  30  31  32
 264 prop tor  30  31  32  33
 265 prop tor  30  31  32  61
 266 ben  30  31  60
 267 ben  30  43  42
 268 ben  31  30  43
 269 prop tor  31  30  43  14
 270 prop tor  31  30  43  42
 271 ben  31  32  33
 272 prop tor  31  32  33  34
 273 prop tor  31  32  33  42
 274 ben  31  32  61
 275 ben  32  31  60
 276 ben  32  33  34
 277 prop tor  32  33  34  35
 278 prop tor  32  33  34  41
 279 ben  32  33  42
 280 prop tor  32  33  42  11
 281 prop tor  32  33  42  43
 282 ben  33  32  61
 283 ben  33  34  35
 284 prop tor  33  34  35  36
 285 prop tor  33  34  35  62
 286 ben  33  34  41
 287 prop tor  33  34  41  10
 288 prop tor  33  34  41  40
 289 ben  33  42  43
 290 prop tor  33  42  43  14
 291 prop tor  33  42  43  30
 292 ben  34  33  42
 293 prop tor  34  33  42  11
 294 prop tor  34  33  42  43
 295 ben  34  35  36
 296 prop tor  34  35  36  37
 297 prop tor  34  35  36  63
 298 ben  34  35  62
 299 ben  34  41  40
 300 ben  35  34  41
 301 prop tor  35  34  41  10
 302 prop tor  35  34  41  40
 303 ben  35  36  37
 304 prop tor  35  36  37  38
 305 prop tor  35  36  37  40
 306 ben  35  36  63
 307 ben  36  35  62
 308 ben  36  37  38
 309 prop tor  36  37  38   4
 310 prop tor  36  37  38  39
 311 ben  36  37  40
 312 prop tor  36  37  40   7
 313 prop tor  36  37  40  41
 314 ben  37  36  63
 315 ben  37  38  39
 316 ben  37  40  41
 317 prop tor  37  40  41  10
 318 prop tor  37  40  41  34
 319 prop tor  38   4   5   6
 320 prop tor  38   4   5   7
 321 ben  38  37  40
 322 prop tor  38  37  40   7
 323 prop tor  38  37  40  41
 324 prop tor  40   7   8   9
 325 prop tor  40   7   8  51
 326 prop tor  40  37  38   4
 327 prop tor  40  37  38  39
 328 prop tor  41  10  11  12
 329 prop tor  41  10  11  42
 330 prop tor  41  34  35  36
 331 prop tor  41  34  35  62
 332 prop tor  42  11  12  13
 333 prop tor  42  11  12  53
 334 prop tor  42  33  34  35
 335 prop tor  42  33  34  41
 336 prop tor  43  14  15  16
 337 prop tor  43  14  15  17
 338 prop tor  43  30  31  32
 339 prop tor  43  30  31  60
 340 prop tor  44   1   2   3
 341 prop tor  44   1   2   4
 342 prop tor  44   1   2  47
 343 ben  44   1  45
 344 ben  44   1  46
 345 prop tor  45   1   2   3
 346 prop tor  45   1   2   4
 347 prop tor  45   1   2  47
 348 ben  45   1  46
 349 prop tor  46   1   2   3
 350 prop tor  46   1   2   4
 351 prop tor  46   1   2  47
 352 prop tor  47   2   3  48
 353 prop tor  47   2   3  49
 354 prop tor  47   2   3  50
 355 prop tor  47   2   4   5
 356 prop tor  47   2   4  38
 357 ben  48   3  49
 358 ben  48   3  50
 359 ben  49   3  50
 360 prop tor  51   8   9  10
 361 prop tor  51   8   9  52
 362 prop tor  52   9  10  11
 363 prop tor  52   9  10  41
 364 prop tor  53  12  13  14
 365 prop tor  53  12  13  54
 366 prop tor  54  13  14  15
 367 prop tor  54  13  14  43
 368 prop tor  55  18  19  20
 369 prop tor  55  18  19  56
 370 prop tor  56  19  20  21
 371 prop tor  56  19  20  27
 372 prop tor  57  21  22  23
 373 prop tor  57  21  22  26
 374 prop tor  58  24  25  26
 375 prop tor  58  24  25  59
 376 prop tor  59  25  26  22
 377 prop tor  59  25  26  27
 378 prop tor  60  31  32  33
 379 prop tor  60  31  32  61
 380 prop tor  61  32  33  34
 381 prop tor  61  32  33  42
 382 prop tor  62  35  36  37
 383 prop tor  62  35  36  63
 384 prop tor  63  36  37  38
 385 prop tor  63  36  37  40
 nber bend=             122
 nber lin bend=           0
 nber prop tor=         192
 nber impr tor=           0
 nber tot redund int=         385
 Eigenvalues of G in red int coords
    Gval -0.00000000 -0.00000000 -0.00000000 -0.00000000 -0.00000000 -0.00000000 -0.00000000 -0.00000000
    Gval -0.00000000 -0.00000000 -0.00000000 -0.00000000 -0.00000000 -0.00000000 -0.00000000 -0.00000000
    Gval -0.00000000 -0.00000000 -0.00000000 -0.00000000 -0.00000000 -0.00000000 -0.00000000 -0.00000000
    Gval -0.00000000 -0.00000000 -0.00000000 -0.00000000 -0.00000000 -0.00000000 -0.00000000 -0.00000000
    Gval -0.00000000 -0.00000000 -0.00000000 -0.00000000 -0.00000000 -0.00000000 -0.00000000 -0.00000000
    Gval -0.00000000 -0.00000000 -0.00000000 -0.00000000 -0.00000000 -0.00000000 -0.00000000 -0.00000000
    Gval -0.00000000 -0.00000000 -0.00000000 -0.00000000 -0.00000000 -0.00000000 -0.00000000 -0.00000000
    Gval -0.00000000 -0.00000000 -0.00000000 -0.00000000 -0.00000000 -0.00000000 -0.00000000 -0.00000000
    Gval -0.00000000 -0.00000000 -0.00000000 -0.00000000 -0.00000000 -0.00000000 -0.00000000 -0.00000000
    Gval -0.00000000 -0.00000000 -0.00000000 -0.00000000 -0.00000000 -0.00000000 -0.00000000 -0.00000000
    Gval -0.00000000 -0.00000000 -0.00000000 -0.00000000 -0.00000000 -0.00000000 -0.00000000 -0.00000000
    Gval -0.00000000 -0.00000000 -0.00000000 -0.00000000 -0.00000000 -0.00000000 -0.00000000 -0.00000000
    Gval -0.00000000 -0.00000000 -0.00000000 -0.00000000 -0.00000000 -0.00000000 -0.00000000 -0.00000000
    Gval -0.00000000  0.00000000  0.00000000  0.00000000  0.00000000  0.00000000  0.00000000  0.00000000
    Gval  0.00000000  0.00000000  0.00000000  0.00000000  0.00000000  0.00000000  0.00000000  0.00000000
    Gval  0.00000000  0.00000000  0.00000000  0.00000000  0.00000000  0.00000000  0.00000000  0.00000000
    Gval  0.00000000  0.00000000  0.00000000  0.00000000  0.00000000  0.00000000  0.00000000  0.00000000
    Gval  0.00000000  0.00000000  0.00000000  0.00000000  0.00000000  0.00000000  0.00000000  0.00000000
    Gval  0.00000000  0.00000000  0.00000000  0.00000000  0.00000000  0.00000000  0.00000000  0.00000000
    Gval  0.00000000  0.00000000  0.00000000  0.00000000  0.00000000  0.00000000  0.00000000  0.00000000
    Gval  0.00000000  0.00000000  0.00000000  0.00000000  0.00000000  0.00000000  0.00000000  0.00000000
    Gval  0.00000000  0.00000000  0.00000000  0.00000000  0.00000000  0.00000000  0.00000000  0.00000000
    Gval  0.00000000  0.00000000  0.00000000  0.00000000  0.00000000  0.00000000  0.00000000  0.00000000
    Gval  0.00000000  0.00000000  0.00000000  0.00000000  0.00000000  0.00000000  0.00000000  0.00000000
    Gval  0.00000000  0.00000000  0.00000000  0.00000000  0.00000000  0.00000000  0.00000000  0.00000000
    Gval  0.00000000  0.00000000  0.00000016  0.00000051  0.00000097  0.00000127  0.00000365  0.00000372
    Gval  0.00000378  0.00000430  0.00000638  0.00000898  0.00001078  0.00001158  0.00001277  0.00001412
    Gval  0.00001599  0.00001709  0.00001720  0.00001831  0.00001858  0.00002145  0.00002146  0.00002330
    Gval  0.00002380  0.00002533  0.00002653  0.00002873  0.00003104  0.00003416  0.00003535  0.00003622
    Gval  0.00003995  0.00004553  0.00004843  0.00004890  0.00005102  0.00005261  0.00005493  0.00005572
    Gval  0.00005706  0.00006190  0.00006252  0.00006789  0.00007064  0.00007293  0.00008035  0.00008148
    Gval  0.00008216  0.00008280  0.00008682  0.00008688  0.00009298  0.00009327  0.00009473  0.00009580
    Gval  0.00010630  0.00011020  0.00011638  0.00011895  0.00012246  0.00013217  0.00013604  0.00013717
    Gval  0.00014074  0.00014932  0.00015233  0.00015812  0.00015937  0.00016175  0.00018011  0.00018200
    Gval  0.00018393  0.00019418  0.00020397  0.00022196  0.00022742  0.00023140  0.00024790  0.00026885
    Gval  0.00028571  0.00028654  0.00029619  0.00030272  0.00030458  0.00032276  0.00034240  0.00035859
    Gval  0.00035910  0.00036516  0.00038408  0.00038640  0.00039124  0.00040015  0.00040134  0.00041529
    Gval  0.00041698  0.00041948  0.00043068  0.00043555  0.00044105  0.00044232  0.00046372  0.00046678
    Gval  0.00046951  0.00049343  0.00051565  0.00053373  0.00053728  0.00055157  0.00055371  0.00055594
    Gval  0.00055620  0.00058595  0.00059658  0.00059662  0.00059853  0.00059924  0.00059958  0.00059985
    Gval  0.00060221  0.00062064  0.00062484  0.00063911  0.00064136  0.00064490  0.00064562  0.00064747
    Gval  0.00065621  0.00066200  0.00067377  0.00069706  0.00069784  0.00078989  0.00082649  0.00090302
    Gval  0.00095754  0.00100279  0.00107067  0.00108234  0.00109376  0.00109469  0.00109542  0.00109594
    Gval  0.00114372  0.00114584  0.00116448  0.00116500  0.00116670  0.00116722  0.00116773  0.00116890
    Gval  0.00116945  0.00118495  0.00120690  0.00127063  0.00128579  0.00129248  0.00137321  0.00149703
    Gval  0.00155005  0.00172347  0.00177036  0.00191589  0.00206991  0.00227780  0.00234172  0.00252080
    Gval  0.00252547  0.00255859  0.00277934  0.00281169  0.00292471  0.00302240  0.00304253  0.00308281
    Gval  0.00309239  0.00321810  0.00359209  0.00366512  0.00366732  0.00371285  0.00371489  0.00393420
    Gval  0.00395253
  1.553775226040050E-007  1.553775226040050E-007
  5.057138324093425E-007  1.553775226040050E-007
  9.742255684531081E-007  1.553775226040050E-007
  1.265158809452543E-006  1.553775226040050E-007
  3.651998070892857E-006  1.553775226040050E-007
  3.724614028902100E-006  1.553775226040050E-007
  3.780751543512021E-006  1.553775226040050E-007
  4.296081171632237E-006  1.553775226040050E-007
  6.381769202505737E-006  1.553775226040050E-007
  8.981790719338323E-006  1.553775226040050E-007
  1.077565312874348E-005  1.553775226040050E-007
  1.158435590577206E-005  1.553775226040050E-007
  1.276890605669992E-005  1.553775226040050E-007
  1.411543485157192E-005  1.553775226040050E-007
  1.599481283257237E-005  1.553775226040050E-007
  1.708844551244142E-005  1.553775226040050E-007
  1.719545380519451E-005  1.553775226040050E-007
  1.830691576434682E-005  1.553775226040050E-007
  1.857781220595867E-005  1.553775226040050E-007
  2.144985756176166E-005  1.553775226040050E-007
  2.145546432270271E-005  1.553775226040050E-007
  2.329559594091005E-005  1.553775226040050E-007
  2.379644992312630E-005  1.553775226040050E-007
  2.532695069134917E-005  1.553775226040050E-007
  2.653086619562721E-005  1.553775226040050E-007
  2.872891184590771E-005  1.553775226040050E-007
  3.104412422423087E-005  1.553775226040050E-007
  3.415685161270392E-005  1.553775226040050E-007
  3.535441366011105E-005  1.553775226040050E-007
  3.621711358648106E-005  1.553775226040050E-007
  3.994944008396137E-005  1.553775226040050E-007
  4.552615139846460E-005  1.553775226040050E-007
  4.843295787179423E-005  1.553775226040050E-007
  4.889738394697652E-005  1.553775226040050E-007
  5.101662051565664E-005  1.553775226040050E-007
  5.261060756338443E-005  1.553775226040050E-007
  5.493018141785564E-005  1.553775226040050E-007
  5.571722880770197E-005  1.553775226040050E-007
  5.705946366408236E-005  1.553775226040050E-007
  6.190228833980733E-005  1.553775226040050E-007
  6.252280941299780E-005  1.553775226040050E-007
  6.789479823269839E-005  1.553775226040050E-007
  7.064002931450510E-005  1.553775226040050E-007
  7.293038967163504E-005  1.553775226040050E-007
  8.035336150058547E-005  1.553775226040050E-007
  8.148395279435510E-005  1.553775226040050E-007
  8.215548359728360E-005  1.553775226040050E-007
  8.280391763644815E-005  1.553775226040050E-007
  8.681991445131596E-005  1.553775226040050E-007
  8.688488595840598E-005  1.553775226040050E-007
  9.298324893628108E-005  1.553775226040050E-007
  9.326571463369105E-005  1.553775226040050E-007
  9.473321196049228E-005  1.553775226040050E-007
  9.580353375317822E-005  1.553775226040050E-007
  1.063036647346579E-004  1.553775226040050E-007
  1.102033508915762E-004  1.553775226040050E-007
  1.163792270394165E-004  1.553775226040050E-007
  1.189471341695653E-004  1.553775226040050E-007
  1.224640806652824E-004  1.553775226040050E-007
  1.321661024052593E-004  1.553775226040050E-007
  1.360362698204460E-004  1.553775226040050E-007
  1.371710798001672E-004  1.553775226040050E-007
  1.407353645439918E-004  1.553775226040050E-007
  1.493212776096778E-004  1.553775226040050E-007
  1.523296696823724E-004  1.553775226040050E-007
  1.581222391010004E-004  1.553775226040050E-007
  1.593685715734411E-004  1.553775226040050E-007
  1.617504560384973E-004  1.553775226040050E-007
  1.801102455720327E-004  1.553775226040050E-007
  1.819961645185834E-004  1.553775226040050E-007
  1.839320156827262E-004  1.553775226040050E-007
  1.941753116848397E-004  1.553775226040050E-007
  2.039737427752226E-004  1.553775226040050E-007
  2.219557979149648E-004  1.553775226040050E-007
  2.274184056813290E-004  1.553775226040050E-007
  2.314012811598137E-004  1.553775226040050E-007
  2.478958734536692E-004  1.553775226040050E-007
  2.688473946759710E-004  1.553775226040050E-007
  2.857081609461693E-004  1.553775226040050E-007
  2.865425063382836E-004  1.553775226040050E-007
  2.961914104930041E-004  1.553775226040050E-007
  3.027171882211677E-004  1.553775226040050E-007
  3.045796412542394E-004  1.553775226040050E-007
  3.227634269846023E-004  1.553775226040050E-007
  3.424005089740917E-004  1.553775226040050E-007
  3.585942935586961E-004  1.553775226040050E-007
  3.590980303958791E-004  1.553775226040050E-007
  3.651643700629991E-004  1.553775226040050E-007
  3.840772101371328E-004  1.553775226040050E-007
  3.864007727039586E-004  1.553775226040050E-007
  3.912409551023541E-004  1.553775226040050E-007
  4.001490421755907E-004  1.553775226040050E-007
  4.013384063745632E-004  1.553775226040050E-007
  4.152851014648130E-004  1.553775226040050E-007
  4.169839742895133E-004  1.553775226040050E-007
  4.194752781611805E-004  1.553775226040050E-007
  4.306838390241426E-004  1.553775226040050E-007
  4.355545062453354E-004  1.553775226040050E-007
  4.410518532769715E-004  1.553775226040050E-007
  4.423234317093494E-004  1.553775226040050E-007
  4.637230217445568E-004  1.553775226040050E-007
  4.667770340190842E-004  1.553775226040050E-007
  4.695081888154968E-004  1.553775226040050E-007
  4.934312272720439E-004  1.553775226040050E-007
  5.156500466262439E-004  1.553775226040050E-007
  5.337323365737947E-004  1.553775226040050E-007
  5.372777333487992E-004  1.553775226040050E-007
  5.515660758142853E-004  1.553775226040050E-007
  5.537081415897746E-004  1.553775226040050E-007
  5.559429689259111E-004  1.553775226040050E-007
  5.561976775279988E-004  1.553775226040050E-007
  5.859521116642706E-004  1.553775226040050E-007
  5.965787413724094E-004  1.553775226040050E-007
  5.966203076919309E-004  1.553775226040050E-007
  5.985281699169400E-004  1.553775226040050E-007
  5.992433127638344E-004  1.553775226040050E-007
  5.995768774216534E-004  1.553775226040050E-007
  5.998528464275101E-004  1.553775226040050E-007
  6.022142280217217E-004  1.553775226040050E-007
  6.206399664846910E-004  1.553775226040050E-007
  6.248445635685957E-004  1.553775226040050E-007
  6.391056944385590E-004  1.553775226040050E-007
  6.413587939197482E-004  1.553775226040050E-007
  6.449028562908409E-004  1.553775226040050E-007
  6.456170322839808E-004  1.553775226040050E-007
  6.474663229852002E-004  1.553775226040050E-007
  6.562098561656847E-004  1.553775226040050E-007
  6.620040182017257E-004  1.553775226040050E-007
  6.737688972405676E-004  1.553775226040050E-007
  6.970649719677381E-004  1.553775226040050E-007
  6.978385130810463E-004  1.553775226040050E-007
  7.898873276186975E-004  1.553775226040050E-007
  8.264941912712448E-004  1.553775226040050E-007
  9.030188319071600E-004  1.553775226040050E-007
  9.575430183034522E-004  1.553775226040050E-007
  1.002792034656511E-003  1.553775226040050E-007
  1.070669042286694E-003  1.553775226040050E-007
  1.082337125603309E-003  1.553775226040050E-007
  1.093755881777666E-003  1.553775226040050E-007
  1.094689945115406E-003  1.553775226040050E-007
  1.095418538241222E-003  1.553775226040050E-007
  1.095942525295290E-003  1.553775226040050E-007
  1.143724628178846E-003  1.553775226040050E-007
  1.145837375027015E-003  1.553775226040050E-007
  1.164479893223148E-003  1.553775226040050E-007
  1.165000583335967E-003  1.553775226040050E-007
  1.166701257376673E-003  1.553775226040050E-007
  1.167218906574252E-003  1.553775226040050E-007
  1.167728868576035E-003  1.553775226040050E-007
  1.168898170572620E-003  1.553775226040050E-007
  1.169449971000328E-003  1.553775226040050E-007
  1.184946468171910E-003  1.553775226040050E-007
  1.206897937920978E-003  1.553775226040050E-007
  1.270630073989756E-003  1.553775226040050E-007
  1.285787400078582E-003  1.553775226040050E-007
  1.292476183856512E-003  1.553775226040050E-007
  1.373205433378877E-003  1.553775226040050E-007
  1.497032044304539E-003  1.553775226040050E-007
  1.550050397898174E-003  1.553775226040050E-007
  1.723467036131047E-003  1.553775226040050E-007
  1.770356049700747E-003  1.553775226040050E-007
  1.915893969276168E-003  1.553775226040050E-007
  2.069906355630259E-003  1.553775226040050E-007
  2.277800390427704E-003  1.553775226040050E-007
  2.341720624512295E-003  1.553775226040050E-007
  2.520802567790371E-003  1.553775226040050E-007
  2.525467818911401E-003  1.553775226040050E-007
  2.558593937476797E-003  1.553775226040050E-007
  2.779337573836224E-003  1.553775226040050E-007
  2.811692261372923E-003  1.553775226040050E-007
  2.924708228825965E-003  1.553775226040050E-007
  3.022404671704771E-003  1.553775226040050E-007
  3.042526180622327E-003  1.553775226040050E-007
  3.082806685459885E-003  1.553775226040050E-007
  3.092394122407829E-003  1.553775226040050E-007
  3.218101331170281E-003  1.553775226040050E-007
  3.592091793652792E-003  1.553775226040050E-007
  3.665122028999032E-003  1.553775226040050E-007
  3.667318754499207E-003  1.553775226040050E-007
  3.712849741503635E-003  1.553775226040050E-007
  3.714891892210366E-003  1.553775226040050E-007
  3.934198330510466E-003  1.553775226040050E-007
  3.952533758532569E-003  1.553775226040050E-007
 cut=1d-8, nber non-redundant internal coords=         183
 Check on Eigenvals of non-red overlap matrix:
  0.00000016  0.00000051  0.00000097  0.00000127  0.00000365  0.00000372  0.00000378  0.00000430
  0.00000638  0.00000898  0.00001078  0.00001158  0.00001277  0.00001412  0.00001599  0.00001709
  0.00001720  0.00001831  0.00001858  0.00002145  0.00002146  0.00002330  0.00002380  0.00002533
  0.00002653  0.00002873  0.00003104  0.00003416  0.00003535  0.00003622  0.00003995  0.00004553
  0.00004843  0.00004890  0.00005102  0.00005261  0.00005493  0.00005572  0.00005706  0.00006190
  0.00006252  0.00006789  0.00007064  0.00007293  0.00008035  0.00008148  0.00008216  0.00008280
  0.00008682  0.00008688  0.00009298  0.00009327  0.00009473  0.00009580  0.00010630  0.00011020
  0.00011638  0.00011895  0.00012246  0.00013217  0.00013604  0.00013717  0.00014074  0.00014932
  0.00015233  0.00015812  0.00015937  0.00016175  0.00018011  0.00018200  0.00018393  0.00019418
  0.00020397  0.00022196  0.00022742  0.00023140  0.00024790  0.00026885  0.00028571  0.00028654
  0.00029619  0.00030272  0.00030458  0.00032276  0.00034240  0.00035859  0.00035910  0.00036516
  0.00038408  0.00038640  0.00039124  0.00040015  0.00040134  0.00041529  0.00041698  0.00041948
  0.00043068  0.00043555  0.00044105  0.00044232  0.00046372  0.00046678  0.00046951  0.00049343
  0.00051565  0.00053373  0.00053728  0.00055157  0.00055371  0.00055594  0.00055620  0.00058595
  0.00059658  0.00059662  0.00059853  0.00059924  0.00059958  0.00059985  0.00060221  0.00062064
  0.00062484  0.00063911  0.00064136  0.00064490  0.00064562  0.00064747  0.00065621  0.00066200
  0.00067377  0.00069706  0.00069784  0.00078989  0.00082649  0.00090302  0.00095754  0.00100279
  0.00107067  0.00108234  0.00109376  0.00109469  0.00109542  0.00109594  0.00114372  0.00114584
  0.00116448  0.00116500  0.00116670  0.00116722  0.00116773  0.00116890  0.00116945  0.00118495
  0.00120690  0.00127063  0.00128579  0.00129248  0.00137321  0.00149703  0.00155005  0.00172347
  0.00177036  0.00191589  0.00206991  0.00227780  0.00234172  0.00252080  0.00252547  0.00255859
  0.00277934  0.00281169  0.00292471  0.00302240  0.00304253  0.00308281  0.00309239  0.00321810
  0.00359209  0.00366512  0.00366732  0.00371285  0.00371489  0.00393420  0.00395253
 Checking for correct frequencies
 recalc frequencies=
    -0.0   -0.0   -0.0   -0.0    0.0    0.0    8.4   18.8   26.6   28.8
    29.4   48.7   56.1   63.6   77.4   88.8   94.7  100.5  121.8  145.4
   165.0  168.8  178.2  194.8  201.8  211.6  212.9  229.0  234.7  235.9
   236.6  258.3  290.4  295.9  296.8  313.9  333.5  355.3  357.0  379.7
   395.8  404.4  417.8  432.8  435.7  442.7  450.7  453.4  456.2  458.6
   464.4  473.4  484.9  496.8  501.5  513.0  516.5  533.9  557.3  563.7
   579.1  583.8  591.0  620.3  623.6  625.6  629.5  646.8  661.4  668.6
   684.9  713.2  719.7  730.1  736.0  747.6  757.5  761.8  764.8  771.7
   786.3  802.2  809.3  816.5  823.3  823.4  829.2  833.6  835.1  835.2
   846.9  847.4  895.4  899.5  914.7  920.3  922.4  943.9  951.8  956.0
   970.2  973.9  977.1  982.5  986.6  989.6 1018.9 1051.0 1070.4 1094.2
  1102.3 1124.8 1150.0 1155.2 1155.4 1165.5 1174.7 1190.4 1201.3 1213.6
  1214.8 1220.4 1227.8 1236.4 1250.0 1260.3 1278.1 1292.5 1299.4 1301.4
  1325.4 1339.6 1348.5 1362.6 1363.4 1371.8 1383.0 1384.1 1393.4 1397.7
  1398.0 1412.2 1425.1 1427.2 1440.3 1445.3 1454.7 1462.3 1474.7 1483.7
  1484.2 1485.7 1496.4 1506.7 1510.4 1523.7 1548.3 1558.3 1575.0 1588.6
  1603.3 1613.6 1616.5 1623.4 1637.8 1684.9 1721.6 1787.2 1826.8 3030.1
  3034.6 3087.3 3090.5 3109.7 3132.1 3141.8 3153.5 3193.4 3193.9 3199.1
  3199.9 3209.0 3209.5 3224.8 3225.1 3227.7 3228.5 3242.2 3248.0
 recalc symmetries=
                                                                       
                                                                       
                                                                       
                                                                       
                                                                       
                                                                       
                                                                       
                                                                       
                                                                       
                                                                       
                                                                       
                                                                       
                                                                       
                                                                       
                                                                       
                                                                       
                                                                       
                                                                       
                                                                
 recalc freqs check OK
 Zero-point lengths:
 10.0000 10.0000 10.0000 10.0000 10.0000 10.0000 85.5341 57.2212 48.0809 46.1763
 45.7274 35.5121 33.1111 31.0781 28.1867 26.3070 25.4690 24.7251 22.4667 20.5615
 19.2981 19.0826 18.5689 17.7610 17.4523 17.0431 16.9919 16.3831 16.1814 16.1400
 16.1168 15.4265 14.5490 14.4123 14.3906 13.9932 13.5762 13.1529 13.1200 12.7223
 12.4617 12.3278 12.1291 11.9172 11.8772 11.7824 11.6775 11.6423 11.6069 11.5770
 11.5046 11.3946 11.2576 11.1225 11.0706 10.9453 10.9083 10.7293 10.5013 10.4418
 10.3018 10.2607 10.1980  9.9537  9.9273  9.9118  9.8811  9.7477  9.6399  9.5878
  9.4727  9.2831  9.2411  9.1750  9.1381  9.0670  9.0074  8.9823  8.9646  8.9242
  8.8413  8.7529  8.7144  8.6761  8.6399  8.6397  8.6095  8.5866  8.5786  8.5781
  8.5187  8.5165  8.2849  8.2659  8.1968  8.1720  8.1628  8.0692  8.0355  8.0179
  7.9593  7.9441  7.9310  7.9090  7.8925  7.8806  7.7668  7.6471  7.5776  7.4944
  7.4670  7.3918  7.3105  7.2941  7.2935  7.2617  7.2331  7.1855  7.1528  7.1163
  7.1129  7.0966  7.0751  7.0504  7.0119  6.9832  6.9344  6.8956  6.8774  6.8722
  6.8096  6.7735  6.7510  6.7160  6.7141  6.6935  6.6663  6.6636  6.6415  6.6312
  6.6304  6.5970  6.5670  6.5622  6.5324  6.5209  6.4999  6.4831  6.4556  6.4362
  6.4349  6.4318  6.4088  6.3869  6.3790  6.3510  6.3005  6.2801  6.2468  6.2201
  6.1913  6.1716  6.1660  6.1529  6.1258  6.0396  5.9749  5.8642  5.8003  4.5037
  4.5003  4.4618  4.4595  4.4457  4.4297  4.4229  4.4147  4.3870  4.3867  4.3831
  4.3826  4.3763  4.3760  4.3656  4.3654  4.3636  4.3631  4.3539  4.3500
 highest evec of mol 1
 -0.0000 -0.0000 -0.0000
  0.0000 -0.0000 -0.0000
 -0.0000 -0.0000 -0.0000
  0.0000  0.0000  0.0000
 -0.0000 -0.0000 -0.0000
 -0.0000  0.0000  0.0000
  0.0000  0.0000  0.0000
  0.0000 -0.0000 -0.0000
  0.0000 -0.0000  0.0000
  0.0000  0.0000  0.0000
 -0.0000 -0.0000 -0.0000
  0.0000 -0.0001  0.0000
  0.0000 -0.0000  0.0000
  0.0000  0.0000  0.0000
  0.0000 -0.0001 -0.0000
 -0.0000 -0.0001 -0.0000
  0.0000  0.0001  0.0001
  0.0001 -0.0006  0.0001
  0.0017 -0.0049  0.0016
 -0.0003  0.0004 -0.0005
  0.0020 -0.0051  0.0022
  0.0001  0.0034  0.0018
 -0.0008  0.0024 -0.0007
 -0.0491 -0.1830 -0.1944
  0.0445 -0.1069  0.0532
  0.0003  0.0082  0.0045
 -0.0001 -0.0004 -0.0003
 -0.0000  0.0001 -0.0001
  0.0000 -0.0000  0.0000
  0.0000 -0.0000  0.0000
 -0.0000  0.0000 -0.0000
 -0.0000  0.0000 -0.0001
 -0.0000 -0.0000 -0.0000
  0.0000 -0.0000 -0.0000
 -0.0000  0.0000  0.0000
 -0.0000  0.0000 -0.0000
  0.0000  0.0000  0.0000
 -0.0000 -0.0000 -0.0000
  0.0000  0.0000  0.0000
  0.0000  0.0000  0.0000
 -0.0000  0.0000  0.0000
  0.0000  0.0000  0.0000
 -0.0000  0.0000  0.0000
  0.0000  0.0000  0.0000
 -0.0000 -0.0000 -0.0000
 -0.0000 -0.0000  0.0000
 -0.0000  0.0000 -0.0000
 -0.0000  0.0000 -0.0000
  0.0000  0.0000  0.0000
  0.0000 -0.0000 -0.0000
 -0.0000  0.0001 -0.0000
 -0.0000  0.0000 -0.0001
 -0.0001  0.0003 -0.0000
 -0.0001  0.0000 -0.0001
 -0.0006  0.0020 -0.0006
 -0.0055  0.0160 -0.0052
 -0.0057  0.0153 -0.0060
  0.1428  0.6167  0.6033
 -0.1241  0.3343 -0.1319
  0.0000 -0.0000 -0.0000
  0.0001 -0.0001  0.0003
  0.0000 -0.0001  0.0000
  0.0000 -0.0000  0.0001
 generating redundant internal coords
         300        3600          63
 Adding extra bonds for z output only
           6           6           6           7           6           8
           6           6           6           6           6           6
           6           6           6           8           7           6
           6           6           6           6          16           6
           6           6          16           6           8           6
           6           6           6           6           6           6
           6           6           8           6           6           6
           6           1           1           1           1           1
           1           1           1           1           1           1
           1           1           1           1           1           1
           1           1           1
 search for int coords
   1 str   2   1   1.533
   2 str   3   2   1.533
   3 str   4   2   1.493
   4 str   5   4   1.411
   5 str   6   5   1.224
   6 str   7   5   1.472
   7 str   8   7   1.395
   8 str   9   8   1.383
   9 str  10   9   1.412
  10 str  11  10   1.448
  11 str  12  11   1.417
  12 str  13  12   1.372
  13 str  14  13   1.406
  14 str  15  14   1.447
  15 str  16  15   1.216
  16 str  17  15   1.458
  17 str  18  17   1.362
  18 str  19  18   1.376
  19 str  20  19   1.412
  20 str  21  20   1.410
  21 str  22  21   1.388
  22 str  23  22   1.748
  23 str  24  23   1.740
  24 str  25  24   1.377
  25 str  26  22   1.413
  26 str  26  25   1.405
  27 str  27  20   1.780
  28 str  27  26   1.740
  29 str  28  17   1.488
  30 str  29  28   1.215
  31 str  30  28   1.435
  32 str  31  30   1.409
  33 str  32  31   1.370
  34 str  33  32   1.420
  35 str  34  33   1.445
  36 str  35  34   1.413
  37 str  36  35   1.382
  38 str  37  36   1.395
  39 str  38   4   1.404
  40 str  38  37   1.472
  41 str  39  38   1.225
  42 str  40   7   1.411
  43 str  40  37   1.411
  44 str  41  10   1.426
  45 str  41  34   1.428
  46 str  41  40   1.434
  47 str  42  11   1.429
  48 str  42  33   1.430
  49 str  43  14   1.413
  50 str  43  30   1.418
  51 str  43  42   1.443
  52 str  44   1   1.094
  53 str  45   1   1.089
  54 str  46   1   1.093
  55 str  47   2   1.088
  56 str  48   3   1.089
  57 str  49   3   1.094
  58 str  50   3   1.093
  59 str  51   8   1.083
  60 str  52   9   1.081
  61 str  53  12   1.080
  62 str  54  13   1.082
  63 str  55  18   1.087
  64 str  56  19   1.079
  65 str  57  21   1.080
  66 str  58  24   1.080
  67 str  59  25   1.080
  68 str  60  31   1.082
  69 str  61  32   1.080
  70 str  62  35   1.081
  71 str  63  36   1.083
 nber stretches=          71
  72 ben   1   2   3
  73 prop tor   1   2   3  48
  74 prop tor   1   2   3  49
  75 prop tor   1   2   3  50
  76 ben   1   2   4
  77 prop tor   1   2   4   5
  78 prop tor   1   2   4  38
  79 ben   1   2  47
  80 ben   2   1  44
  81 ben   2   1  45
  82 ben   2   1  46
  83 ben   2   3  48
  84 ben   2   3  49
  85 ben   2   3  50
  86 ben   2   4   5
  87 prop tor   2   4   5   6
  88 prop tor   2   4   5   7
  89 ben   2   4  38
  90 prop tor   2   4  38  37
  91 prop tor   2   4  38  39
  92 ben   3   2   4
  93 prop tor   3   2   4   5
  94 prop tor   3   2   4  38
  95 ben   3   2  47
  96 prop tor   4   2   3  48
  97 prop tor   4   2   3  49
  98 prop tor   4   2   3  50
  99 ben   4   2  47
 100 ben   4   5   6
 101 ben   4   5   7
 102 prop tor   4   5   7   8
 103 prop tor   4   5   7  40
 104 ben   4  38  37
 105 ben   4  38  39
 106 ben   5   4  38
 107 prop tor   5   4  38  37
 108 prop tor   5   4  38  39
 109 ben   5   7   8
 110 prop tor   5   7   8   9
 111 prop tor   5   7   8  51
 112 ben   5   7  40
 113 prop tor   5   7  40  37
 114 prop tor   5   7  40  41
 115 ben   6   5   7
 116 prop tor   6   5   7   8
 117 prop tor   6   5   7  40
 118 ben   7   8   9
 119 prop tor   7   8   9  10
 120 prop tor   7   8   9  52
 121 ben   7   8  51
 122 ben   7  40  37
 123 ben   7  40  41
 124 prop tor   7  40  41  10
 125 prop tor   7  40  41  34
 126 ben   8   7  40
 127 prop tor   8   7  40  37
 128 prop tor   8   7  40  41
 129 ben   8   9  10
 130 prop tor   8   9  10  11
 131 prop tor   8   9  10  41
 132 ben   8   9  52
 133 ben   9   8  51
 134 ben   9  10  11
 135 prop tor   9  10  11  12
 136 prop tor   9  10  11  42
 137 ben   9  10  41
 138 prop tor   9  10  41  34
 139 prop tor   9  10  41  40
 140 ben  10   9  52
 141 ben  10  11  12
 142 prop tor  10  11  12  13
 143 prop tor  10  11  12  53
 144 ben  10  11  42
 145 prop tor  10  11  42  33
 146 prop tor  10  11  42  43
 147 ben  10  41  34
 148 ben  10  41  40
 149 ben  11  10  41
 150 prop tor  11  10  41  34
 151 prop tor  11  10  41  40
 152 ben  11  12  13
 153 prop tor  11  12  13  14
 154 prop tor  11  12  13  54
 155 ben  11  12  53
 156 ben  11  42  33
 157 ben  11  42  43
 158 prop tor  11  42  43  14
 159 prop tor  11  42  43  30
 160 ben  12  11  42
 161 prop tor  12  11  42  33
 162 prop tor  12  11  42  43
 163 ben  12  13  14
 164 prop tor  12  13  14  15
 165 prop tor  12  13  14  43
 166 ben  12  13  54
 167 ben  13  12  53
 168 ben  13  14  15
 169 prop tor  13  14  15  16
 170 prop tor  13  14  15  17
 171 ben  13  14  43
 172 prop tor  13  14  43  30
 173 prop tor  13  14  43  42
 174 ben  14  13  54
 175 ben  14  15  16
 176 ben  14  15  17
 177 prop tor  14  15  17  18
 178 prop tor  14  15  17  28
 179 ben  14  43  30
 180 ben  14  43  42
 181 ben  15  14  43
 182 prop tor  15  14  43  30
 183 prop tor  15  14  43  42
 184 ben  15  17  18
 185 prop tor  15  17  18  19
 186 prop tor  15  17  18  55
 187 ben  15  17  28
 188 prop tor  15  17  28  29
 189 prop tor  15  17  28  30
 190 ben  16  15  17
 191 prop tor  16  15  17  18
 192 prop tor  16  15  17  28
 193 ben  17  18  19
 194 prop tor  17  18  19  20
 195 prop tor  17  18  19  56
 196 ben  17  18  55
 197 ben  17  28  29
 198 ben  17  28  30
 199 prop tor  17  28  30  31
 200 prop tor  17  28  30  43
 201 ben  18  17  28
 202 prop tor  18  17  28  29
 203 prop tor  18  17  28  30
 204 ben  18  19  20
 205 prop tor  18  19  20  21
 206 prop tor  18  19  20  27
 207 ben  18  19  56
 208 ben  19  18  55
 209 ben  19  20  21
 210 prop tor  19  20  21  22
 211 prop tor  19  20  21  57
 212 ben  19  20  27
 213 prop tor  19  20  27  26
 214 ben  20  19  56
 215 ben  20  21  22
 216 prop tor  20  21  22  23
 217 prop tor  20  21  22  26
 218 ben  20  21  57
 219 ben  20  27  26
 220 ben  21  20  27
 221 prop tor  21  20  27  26
 222 ben  21  22  23
 223 prop tor  21  22  23  24
 224 ben  21  22  26
 225 prop tor  21  22  26  25
 226 prop tor  21  22  26  27
 227 ben  22  21  57
 228 ben  22  23  24
 229 prop tor  22  23  24  25
 230 prop tor  22  23  24  58
 231 ben  22  26  25
 232 ben  22  26  27
 233 prop tor  22  26  27  20
 234 ben  23  22  26
 235 prop tor  23  22  26  25
 236 prop tor  23  22  26  27
 237 ben  23  24  25
 238 prop tor  23  24  25  26
 239 prop tor  23  24  25  59
 240 ben  23  24  58
 241 ben  24  25  26
 242 prop tor  24  25  26  22
 243 prop tor  24  25  26  27
 244 ben  24  25  59
 245 ben  25  24  58
 246 ben  25  26  27
 247 prop tor  25  26  27  20
 248 prop tor  26  22  23  24
 249 ben  26  25  59
 250 prop tor  27  20  21  22
 251 prop tor  27  20  21  57
 252 prop tor  28  17  18  19
 253 prop tor  28  17  18  55
 254 ben  28  30  31
 255 prop tor  28  30  31  32
 256 prop tor  28  30  31  60
 257 ben  28  30  43
 258 prop tor  28  30  43  14
 259 prop tor  28  30  43  42
 260 ben  29  28  30
 261 prop tor  29  28  30  31
 262 prop tor  29  28  30  43
 263 ben  30  31  32
 264 prop tor  30  31  32  33
 265 prop tor  30  31  32  61
 266 ben  30  31  60
 267 ben  30  43  42
 268 ben  31  30  43
 269 prop tor  31  30  43  14
 270 prop tor  31  30  43  42
 271 ben  31  32  33
 272 prop tor  31  32  33  34
 273 prop tor  31  32  33  42
 274 ben  31  32  61
 275 ben  32  31  60
 276 ben  32  33  34
 277 prop tor  32  33  34  35
 278 prop tor  32  33  34  41
 279 ben  32  33  42
 280 prop tor  32  33  42  11
 281 prop tor  32  33  42  43
 282 ben  33  32  61
 283 ben  33  34  35
 284 prop tor  33  34  35  36
 285 prop tor  33  34  35  62
 286 ben  33  34  41
 287 prop tor  33  34  41  10
 288 prop tor  33  34  41  40
 289 ben  33  42  43
 290 prop tor  33  42  43  14
 291 prop tor  33  42  43  30
 292 ben  34  33  42
 293 prop tor  34  33  42  11
 294 prop tor  34  33  42  43
 295 ben  34  35  36
 296 prop tor  34  35  36  37
 297 prop tor  34  35  36  63
 298 ben  34  35  62
 299 ben  34  41  40
 300 ben  35  34  41
 301 prop tor  35  34  41  10
 302 prop tor  35  34  41  40
 303 ben  35  36  37
 304 prop tor  35  36  37  38
 305 prop tor  35  36  37  40
 306 ben  35  36  63
 307 ben  36  35  62
 308 ben  36  37  38
 309 prop tor  36  37  38   4
 310 prop tor  36  37  38  39
 311 ben  36  37  40
 312 prop tor  36  37  40   7
 313 prop tor  36  37  40  41
 314 ben  37  36  63
 315 ben  37  38  39
 316 ben  37  40  41
 317 prop tor  37  40  41  10
 318 prop tor  37  40  41  34
 319 prop tor  38   4   5   6
 320 prop tor  38   4   5   7
 321 ben  38  37  40
 322 prop tor  38  37  40   7
 323 prop tor  38  37  40  41
 324 prop tor  40   7   8   9
 325 prop tor  40   7   8  51
 326 prop tor  40  37  38   4
 327 prop tor  40  37  38  39
 328 prop tor  41  10  11  12
 329 prop tor  41  10  11  42
 330 prop tor  41  34  35  36
 331 prop tor  41  34  35  62
 332 prop tor  42  11  12  13
 333 prop tor  42  11  12  53
 334 prop tor  42  33  34  35
 335 prop tor  42  33  34  41
 336 prop tor  43  14  15  16
 337 prop tor  43  14  15  17
 338 prop tor  43  30  31  32
 339 prop tor  43  30  31  60
 340 prop tor  44   1   2   3
 341 prop tor  44   1   2   4
 342 prop tor  44   1   2  47
 343 ben  44   1  45
 344 ben  44   1  46
 345 prop tor  45   1   2   3
 346 prop tor  45   1   2   4
 347 prop tor  45   1   2  47
 348 ben  45   1  46
 349 prop tor  46   1   2   3
 350 prop tor  46   1   2   4
 351 prop tor  46   1   2  47
 352 prop tor  47   2   3  48
 353 prop tor  47   2   3  49
 354 prop tor  47   2   3  50
 355 prop tor  47   2   4   5
 356 prop tor  47   2   4  38
 357 ben  48   3  49
 358 ben  48   3  50
 359 ben  49   3  50
 360 prop tor  51   8   9  10
 361 prop tor  51   8   9  52
 362 prop tor  52   9  10  11
 363 prop tor  52   9  10  41
 364 prop tor  53  12  13  14
 365 prop tor  53  12  13  54
 366 prop tor  54  13  14  15
 367 prop tor  54  13  14  43
 368 prop tor  55  18  19  20
 369 prop tor  55  18  19  56
 370 prop tor  56  19  20  21
 371 prop tor  56  19  20  27
 372 prop tor  57  21  22  23
 373 prop tor  57  21  22  26
 374 prop tor  58  24  25  26
 375 prop tor  58  24  25  59
 376 prop tor  59  25  26  22
 377 prop tor  59  25  26  27
 378 prop tor  60  31  32  33
 379 prop tor  60  31  32  61
 380 prop tor  61  32  33  34
 381 prop tor  61  32  33  42
 382 prop tor  62  35  36  37
 383 prop tor  62  35  36  63
 384 prop tor  63  36  37  38
 385 prop tor  63  36  37  40
 nber bend=             122
 nber lin bend=           0
 nber prop tor=         192
 nber impr tor=           0
 nber tot redund int=         385
 Reading file: 
 ./TT-PDI_1_C0S2.log                                                            
                                          
  Entering Gaussian System, Link 0=g16                                          
  
 Gaussian format, type: g94, g98, g03= F F F
  #P Geom=AllCheck Guess=TCheck SCRF=Check GenChk RB3LYP TD(FC,Read)/6-3    
 energy type= TD      
 Original G94 input coords:
  6  1.073055 -0.025305 -0.460446
  6  2.582011  0.083199 -0.218130
  6  3.380875  0.424540 -1.480178
  7  2.895906  1.021891  0.906564
  6  3.506360  0.469055  2.047307
  8  3.769289 -0.721397  2.119517
  6  3.818390  1.389862  3.160811
  6  4.425660  0.879426  4.314322
  6  4.729899  1.712604  5.371786
  6  4.442591  3.104669  5.332345
  6  4.754157  3.986657  6.428530
  6  5.369533  3.524426  7.624171
  6  5.662275  4.379628  8.666103
  6  5.357270  5.744275  8.573083
  6  5.688687  6.620465  9.712801
  8  6.216817  6.174482 10.718277
  7  5.369067  7.991204  9.589795
  6  5.638750  8.929162 10.618231
  6  6.205883  8.722761 11.821049
  6  6.431070  9.766078 12.795751
  6  7.007477  9.583573 14.033048
  6  7.096522 10.790639 14.769427
 16  7.699173 11.236180 16.344069
  6  7.255557 12.905087 16.065921
  6  6.681407 13.113060 14.844982
  6  6.592068 11.901786 14.106265
 16  5.987486 11.463049 12.530075
  6  4.750743  8.542788  8.424748
  8  4.493161  9.731883  8.361249
  6  4.443725  7.621919  7.321427
  6  3.836634  8.132855  6.165544
  6  3.532913  7.299895  5.109307
  6  3.819458  5.907327  5.149100
  6  3.507174  5.025697  4.053145
  6  2.890836  5.487175  2.857637
  6  2.597283  4.630679  1.815868
  6  2.902748  3.267794  1.909838
  6  2.574258  2.378573  0.774997
  8  2.043145  2.813497 -0.236172
  6  3.514772  2.764722  3.076778
  6  3.824025  3.638664  4.162800
  6  4.437665  5.373574  6.319222
  6  4.746587  6.247065  7.405598
  1  0.886007 -0.824794 -1.182513
  1  0.660294  0.902631 -0.854104
  1  0.550431 -0.283091  0.464334
  1  2.934367 -0.875214  0.156605
  1  3.061766  1.370589 -1.915533
  1  3.232789 -0.367624 -2.219159
  1  4.449965  0.477429 -1.258680
  1  4.647436 -0.179240  4.351554
  1  5.198356  1.283694  6.246245
  1  5.619324  2.478495  7.732070
  1  6.130652  4.019342  9.572606
  1  5.315454  9.914930 10.315707
  1  6.526350  7.735858 12.116463
  1  7.345310  8.616058 14.378672
  1  7.452052 13.634105 16.836820
  1  6.343696 14.080116 14.499499
  1  3.615006  9.191352  6.126636
  1  3.065255  7.728797  4.234480
  1  2.640636  6.533068  2.749646
  1  2.127814  4.989109  0.908894
 nber atoms=          63
  Total Energy, E(TD-HF/TD-DFT) =  -2553.04373282                               
  
          32          49 "  -2553.04373282"
After scan for Atom:   Atom  AN      X      Y      Z        X      Y      Z        X      Y      Z   
After scan for Atom:   Atom  AN      X      Y      Z        X      Y      Z        X      Y      Z   
After scan for Atom:   Atom  AN      X      Y      Z        X      Y      Z        X      Y      Z   
After scan for Atom:   Atom  AN      X      Y      Z        X      Y      Z        X      Y      Z   
After scan for Atom:   Atom  AN      X      Y      Z        X      Y      Z        X      Y      Z   
After scan for Atom:   Atom  AN      X      Y      Z        X      Y      Z        X      Y      Z   
After scan for Atom:   Atom  AN      X      Y      Z        X      Y      Z        X      Y      Z   
After scan for Atom:   Atom  AN      X      Y      Z        X      Y      Z        X      Y      Z   
After scan for Atom:   Atom  AN      X      Y      Z        X      Y      Z        X      Y      Z   
After scan for Atom:   Atom  AN      X      Y      Z        X      Y      Z        X      Y      Z   
After scan for Atom:   Atom  AN      X      Y      Z        X      Y      Z        X      Y      Z   
After scan for Atom:   Atom  AN      X      Y      Z        X      Y      Z        X      Y      Z   
After scan for Atom:   Atom  AN      X      Y      Z        X      Y      Z        X      Y      Z   
After scan for Atom:   Atom  AN      X      Y      Z        X      Y      Z        X      Y      Z   
After scan for Atom:   Atom  AN      X      Y      Z        X      Y      Z        X      Y      Z   
After scan for Atom:   Atom  AN      X      Y      Z        X      Y      Z        X      Y      Z   
After scan for Atom:   Atom  AN      X      Y      Z        X      Y      Z        X      Y      Z   
After scan for Atom:   Atom  AN      X      Y      Z        X      Y      Z        X      Y      Z   
After scan for Atom:   Atom  AN      X      Y      Z        X      Y      Z        X      Y      Z   
After scan for Atom:   Atom  AN      X      Y      Z        X      Y      Z        X      Y      Z   
After scan for Atom:   Atom  AN      X      Y      Z        X      Y      Z        X      Y      Z   
After scan for Atom:   Atom  AN      X      Y      Z        X      Y      Z        X      Y      Z   
After scan for Atom:   Atom  AN      X      Y      Z        X      Y      Z        X      Y      Z   
After scan for Atom:   Atom  AN      X      Y      Z        X      Y      Z        X      Y      Z   
After scan for Atom:   Atom  AN      X      Y      Z        X      Y      Z        X      Y      Z   
After scan for Atom:   Atom  AN      X      Y      Z        X      Y      Z        X      Y      Z   
After scan for Atom:   Atom  AN      X      Y      Z        X      Y      Z        X      Y      Z   
After scan for Atom:   Atom  AN      X      Y      Z        X      Y      Z        X      Y      Z   
After scan for Atom:   Atom  AN      X      Y      Z        X      Y      Z        X      Y      Z   
After scan for Atom:   Atom  AN      X      Y      Z        X      Y      Z        X      Y      Z   
After scan for Atom:   Atom  AN      X      Y      Z        X      Y      Z        X      Y      Z   
After scan for Atom:   Atom  AN      X      Y      Z        X      Y      Z        X      Y      Z   
After scan for Atom:   Atom  AN      X      Y      Z        X      Y      Z        X      Y      Z   
After scan for Atom:   Atom  AN      X      Y      Z        X      Y      Z        X      Y      Z   
After scan for Atom:   Atom  AN      X      Y      Z        X      Y      Z        X      Y      Z   
After scan for Atom:   Atom  AN      X      Y      Z        X      Y      Z        X      Y      Z   
After scan for Atom:   Atom  AN      X      Y      Z        X      Y      Z        X      Y      Z   
After scan for Atom:   Atom  AN      X      Y      Z        X      Y      Z        X      Y      Z   
After scan for Atom:   Atom  AN      X      Y      Z        X      Y      Z        X      Y      Z   
After scan for Atom:   Atom  AN      X      Y      Z        X      Y      Z        X      Y      Z   
After scan for Atom:   Atom  AN      X      Y      Z        X      Y      Z        X      Y      Z   
After scan for Atom:   Atom  AN      X      Y      Z        X      Y      Z        X      Y      Z   
After scan for Atom:   Atom  AN      X      Y      Z        X      Y      Z        X      Y      Z   
After scan for Atom:   Atom  AN      X      Y      Z        X      Y      Z        X      Y      Z   
After scan for Atom:   Atom  AN      X      Y      Z        X      Y      Z        X      Y      Z   
After scan for Atom:   Atom  AN      X      Y      Z        X      Y      Z        X      Y      Z   
After scan for Atom:   Atom  AN      X      Y      Z        X      Y      Z        X      Y      Z   
After scan for Atom:   Atom  AN      X      Y      Z        X      Y      Z        X      Y      Z   
After scan for Atom:   Atom  AN      X      Y      Z        X      Y      Z        X      Y      Z   
After scan for Atom:   Atom  AN      X      Y      Z        X      Y      Z        X      Y      Z   
After scan for Atom:   Atom  AN      X      Y      Z        X      Y      Z        X      Y      Z   
After scan for Atom:   Atom  AN      X      Y      Z        X      Y      Z        X      Y      Z   
After scan for Atom:   Atom  AN      X      Y      Z        X      Y      Z        X      Y      Z   
After scan for Atom:   Atom  AN      X      Y      Z        X      Y      Z        X      Y      Z   
After scan for Atom:   Atom  AN      X      Y      Z        X      Y      Z        X      Y      Z   
After scan for Atom:   Atom  AN      X      Y      Z        X      Y      Z        X      Y      Z   
After scan for Atom:   Atom  AN      X      Y      Z        X      Y      Z        X      Y      Z   
After scan for Atom:   Atom  AN      X      Y      Z        X      Y      Z        X      Y      Z   
After scan for Atom:   Atom  AN      X      Y      Z        X      Y      Z        X      Y      Z   
After scan for Atom:   Atom  AN      X      Y      Z        X      Y      Z        X      Y      Z   
After scan for Atom:   Atom  AN      X      Y      Z        X      Y      Z        X      Y      Z   
 g94    frequencies=
     0.0    0.0    0.0    0.0    0.0    0.0    9.5   15.3   27.7   28.4
    30.9   49.3   54.9   65.1   75.0   89.1   91.8  100.5  119.2  143.8
   162.4  168.0  169.4  182.6  189.7  200.5  207.6  210.3  226.6  234.7
   236.6  256.0  288.0  289.4  295.6  302.0  324.5  348.3  371.7  385.0
   391.4  402.2  417.2  428.5  433.0  439.8  442.3  447.2  459.1  465.9
   471.1  477.7  483.7  485.4  497.7  505.5  509.1  538.1  549.5  556.4
   573.5  574.6  580.4  604.5  614.5  618.1  619.9  632.1  651.9  666.0
   675.3  683.0  699.5  700.3  709.8  720.0  729.0  743.4  749.1  757.3
   763.4  767.2  800.5  807.3  811.2  814.8  821.6  822.4  826.2  832.0
   842.4  847.6  874.8  881.4  897.2  918.7  924.6  932.8  945.2  956.8
   963.3  974.8  976.5  988.0  988.6  998.8 1027.4 1063.3 1085.7 1100.4
  1106.2 1133.0 1137.4 1155.4 1160.5 1162.1 1170.1 1185.9 1196.1 1197.8
  1210.4 1224.4 1232.5 1238.8 1241.4 1246.0 1255.0 1297.8 1306.0 1316.0
  1319.3 1347.2 1352.4 1360.8 1367.0 1375.0 1379.1 1382.1 1392.2 1400.2
  1400.2 1405.4 1416.3 1430.8 1439.1 1446.9 1455.8 1461.8 1466.9 1485.0
  1494.0 1497.7 1503.9 1505.2 1510.4 1522.6 1541.6 1546.1 1555.6 1572.4
  1583.7 1599.8 1600.8 1620.9 1670.9 1686.1 1690.9 1725.3 1733.8 3034.4
  3038.4 3092.3 3095.5 3112.5 3132.7 3143.0 3198.2 3198.6 3205.8 3206.3
  3209.6 3212.7 3213.1 3213.5 3213.9 3223.8 3224.1 3238.4 3244.8
 g94    symmetries=
                                                 A      A      A      A
       A      A      A      A      A      A      A      A      A      A
       A      A      A      A      A      A      A      A      A      A
       A      A      A      A      A      A      A      A      A      A
       A      A      A      A      A      A      A      A      A      A
       A      A      A      A      A      A      A      A      A      A
       A      A      A      A      A      A      A      A      A      A
       A      A      A      A      A      A      A      A      A      A
       A      A      A      A      A      A      A      A      A      A
       A      A      A      A      A      A      A      A      A      A
       A      A      A      A      A      A      A      A      A      A
       A      A      A      A      A      A      A      A      A      A
       A      A      A      A      A      A      A      A      A      A
       A      A      A      A      A      A      A      A      A      A
       A      A      A      A      A      A      A      A      A      A
       A      A      A      A      A      A      A      A      A      A
       A      A      A      A      A      A      A      A      A      A
       A      A      A      A      A      A      A      A      A      A
       A      A      A      A      A      A      A      A      A
 atomic masses:
 12.0000 12.0000 12.0000 14.0031 12.0000 15.9949 12.0000 12.0000 12.0000 12.0000
 12.0000 12.0000 12.0000 12.0000 12.0000 15.9949 14.0031 12.0000 12.0000 12.0000
 12.0000 12.0000 31.9721 12.0000 12.0000 12.0000 31.9721 12.0000 15.9949 12.0000
 12.0000 12.0000 12.0000 12.0000 12.0000 12.0000 12.0000 12.0000 15.9949 12.0000
 12.0000 12.0000 12.0000  1.0078  1.0078  1.0078  1.0078  1.0078  1.0078  1.0078
  1.0078  1.0078  1.0078  1.0078  1.0078  1.0078  1.0078  1.0078  1.0078  1.0078
  1.0078  1.0078  1.0078
 looking for force constants in 
 ./TT-PDI_1_C0S2.fchk                                                           
  
 Cartesian Force Constants                  R   N=       17955                  
  
 n3=         189       17955
 g94-fc frequencies=
    -0.6   -0.3   -0.0    0.0    0.0    4.8    9.5   15.4   27.7   28.4
    30.9   49.3   54.9   65.1   75.0   89.1   91.8  100.5  119.2  143.8
   162.4  168.0  169.4  182.6  189.7  200.5  207.6  210.3  226.6  234.7
   236.6  256.0  288.0  289.4  295.6  302.0  324.6  348.3  371.7  385.0
   391.4  402.2  417.2  428.5  433.0  439.8  442.3  447.2  459.1  465.9
   471.1  477.7  483.7  485.4  497.7  505.6  509.1  538.1  549.5  556.4
   573.6  574.6  580.5  604.5  614.5  618.1  619.9  632.1  651.9  666.0
   675.3  683.0  699.5  700.3  709.8  720.0  729.0  743.5  749.1  757.3
   763.4  767.2  800.5  807.3  811.2  814.8  821.6  822.4  826.3  832.0
   842.4  847.6  874.9  881.4  897.2  918.7  924.7  932.9  945.2  956.9
   963.3  974.8  976.5  988.1  988.6  998.9 1027.5 1063.3 1085.7 1100.4
  1106.2 1133.0 1137.5 1155.4 1160.5 1162.1 1170.1 1185.9 1196.1 1197.8
  1210.5 1224.4 1232.5 1238.8 1241.4 1246.0 1255.0 1297.8 1306.0 1316.1
  1319.3 1347.3 1352.4 1360.8 1367.1 1375.0 1379.1 1382.1 1392.2 1400.2
  1400.2 1405.4 1416.3 1430.8 1439.2 1446.9 1455.8 1461.8 1466.9 1485.0
  1494.1 1497.7 1504.0 1505.2 1510.5 1522.6 1541.6 1546.2 1555.6 1572.5
  1583.7 1599.9 1600.8 1621.0 1670.9 1686.1 1691.0 1725.4 1733.8 3034.4
  3038.5 3092.4 3095.6 3112.6 3132.8 3143.1 3198.3 3198.7 3205.9 3206.4
  3209.7 3212.7 3213.1 3213.6 3213.9 3223.9 3224.2 3238.5 3244.9
 at 99999: n3=         189
 symm operator            1 :  F  nop=           0
 symm operator            2 :  F  nop=           0
 symm operator            3 :  F  nop=           0
 symm operator            4 :  F  nop=           0
 symm operator            5 :  F  nop=           0
 symm operator            6 :  F  nop=           0
 symm operator            7 :  F  nop=           0
 The point group of the molecule is  C1
 Symmetry rotation matrix:
   1.00000   0.00000   0.00000
   0.00000   1.00000   0.00000
   0.00000   0.00000   1.00000

 Projecting out zero-frequency components
 generating redundant internal coords
         300        3600          63
 search for int coords
   1 str   2   1   1.532
   2 str   3   2   1.532
   3 str   4   2   1.498
   4 str   5   4   1.407
   5 str   6   5   1.221
   6 str   7   5   1.478
   7 str   8   7   1.400
   8 str   9   8   1.380
   9 str  10   9   1.422
  10 str  11  10   1.441
  11 str  12  11   1.422
  12 str  13  12   1.379
  13 str  14  13   1.401
  14 str  15  14   1.475
  15 str  16  15   1.220
  16 str  17  15   1.413
  17 str  18  17   1.418
  18 str  19  18   1.346
  19 str  20  19   1.445
  20 str  21  20   1.377
  21 str  22  21   1.417
  22 str  23  22   1.744
  23 str  24  23   1.749
  24 str  25  24   1.365
  25 str  26  22   1.389
  26 str  26  25   1.422
  27 str  27  20   1.774
  28 str  27  26   1.744
  29 str  28  17   1.430
  30 str  29  28   1.218
  31 str  30  28   1.470
  32 str  31  30   1.402
  33 str  32  31   1.379
  34 str  33  32   1.422
  35 str  34  33   1.441
  36 str  35  34   1.422
  37 str  36  35   1.380
  38 str  37  36   1.400
  39 str  38   4   1.400
  40 str  38  37   1.479
  41 str  39  38   1.222
  42 str  40   7   1.410
  43 str  40  37   1.410
  44 str  41  10   1.427
  45 str  41  34   1.427
  46 str  41  40   1.428
  47 str  42  11   1.427
  48 str  42  33   1.427
  49 str  43  14   1.410
  50 str  43  30   1.410
  51 str  43  42   1.428
  52 str  44   1   1.093
  53 str  45   1   1.089
  54 str  46   1   1.093
  55 str  47   2   1.088
  56 str  48   3   1.089
  57 str  49   3   1.093
  58 str  50   3   1.093
  59 str  51   8   1.082
  60 str  52   9   1.081
  61 str  53  12   1.081
  62 str  54  13   1.082
  63 str  55  18   1.081
  64 str  56  19   1.079
  65 str  57  21   1.082
  66 str  58  24   1.079
  67 str  59  25   1.081
  68 str  60  31   1.082
  69 str  61  32   1.081
  70 str  62  35   1.081
  71 str  63  36   1.082
 nber stretches=          71
  72 ben   1   2   3
  73 prop tor   1   2   3  48
  74 prop tor   1   2   3  49
  75 prop tor   1   2   3  50
  76 ben   1   2   4
  77 prop tor   1   2   4   5
  78 prop tor   1   2   4  38
  79 ben   1   2  47
  80 ben   2   1  44
  81 ben   2   1  45
  82 ben   2   1  46
  83 ben   2   3  48
  84 ben   2   3  49
  85 ben   2   3  50
  86 ben   2   4   5
  87 prop tor   2   4   5   6
  88 prop tor   2   4   5   7
  89 ben   2   4  38
  90 prop tor   2   4  38  37
  91 prop tor   2   4  38  39
  92 ben   3   2   4
  93 prop tor   3   2   4   5
  94 prop tor   3   2   4  38
  95 ben   3   2  47
  96 prop tor   4   2   3  48
  97 prop tor   4   2   3  49
  98 prop tor   4   2   3  50
  99 ben   4   2  47
 100 ben   4   5   6
 101 ben   4   5   7
 102 prop tor   4   5   7   8
 103 prop tor   4   5   7  40
 104 ben   4  38  37
 105 ben   4  38  39
 106 ben   5   4  38
 107 prop tor   5   4  38  37
 108 prop tor   5   4  38  39
 109 ben   5   7   8
 110 prop tor   5   7   8   9
 111 prop tor   5   7   8  51
 112 ben   5   7  40
 113 prop tor   5   7  40  37
 114 prop tor   5   7  40  41
 115 ben   6   5   7
 116 prop tor   6   5   7   8
 117 prop tor   6   5   7  40
 118 ben   7   8   9
 119 prop tor   7   8   9  10
 120 prop tor   7   8   9  52
 121 ben   7   8  51
 122 ben   7  40  37
 123 ben   7  40  41
 124 prop tor   7  40  41  10
 125 prop tor   7  40  41  34
 126 ben   8   7  40
 127 prop tor   8   7  40  37
 128 prop tor   8   7  40  41
 129 ben   8   9  10
 130 prop tor   8   9  10  11
 131 prop tor   8   9  10  41
 132 ben   8   9  52
 133 ben   9   8  51
 134 ben   9  10  11
 135 prop tor   9  10  11  12
 136 prop tor   9  10  11  42
 137 ben   9  10  41
 138 prop tor   9  10  41  34
 139 prop tor   9  10  41  40
 140 ben  10   9  52
 141 ben  10  11  12
 142 prop tor  10  11  12  13
 143 prop tor  10  11  12  53
 144 ben  10  11  42
 145 prop tor  10  11  42  33
 146 prop tor  10  11  42  43
 147 ben  10  41  34
 148 ben  10  41  40
 149 ben  11  10  41
 150 prop tor  11  10  41  34
 151 prop tor  11  10  41  40
 152 ben  11  12  13
 153 prop tor  11  12  13  14
 154 prop tor  11  12  13  54
 155 ben  11  12  53
 156 ben  11  42  33
 157 ben  11  42  43
 158 prop tor  11  42  43  14
 159 prop tor  11  42  43  30
 160 ben  12  11  42
 161 prop tor  12  11  42  33
 162 prop tor  12  11  42  43
 163 ben  12  13  14
 164 prop tor  12  13  14  15
 165 prop tor  12  13  14  43
 166 ben  12  13  54
 167 ben  13  12  53
 168 ben  13  14  15
 169 prop tor  13  14  15  16
 170 prop tor  13  14  15  17
 171 ben  13  14  43
 172 prop tor  13  14  43  30
 173 prop tor  13  14  43  42
 174 ben  14  13  54
 175 ben  14  15  16
 176 ben  14  15  17
 177 prop tor  14  15  17  18
 178 prop tor  14  15  17  28
 179 ben  14  43  30
 180 ben  14  43  42
 181 ben  15  14  43
 182 prop tor  15  14  43  30
 183 prop tor  15  14  43  42
 184 ben  15  17  18
 185 prop tor  15  17  18  19
 186 prop tor  15  17  18  55
 187 ben  15  17  28
 188 prop tor  15  17  28  29
 189 prop tor  15  17  28  30
 190 ben  16  15  17
 191 prop tor  16  15  17  18
 192 prop tor  16  15  17  28
 193 ben  17  18  19
 194 prop tor  17  18  19  20
 195 prop tor  17  18  19  56
 196 ben  17  18  55
 197 ben  17  28  29
 198 ben  17  28  30
 199 prop tor  17  28  30  31
 200 prop tor  17  28  30  43
 201 ben  18  17  28
 202 prop tor  18  17  28  29
 203 prop tor  18  17  28  30
 204 ben  18  19  20
 205 prop tor  18  19  20  21
 206 prop tor  18  19  20  27
 207 ben  18  19  56
 208 ben  19  18  55
 209 ben  19  20  21
 210 prop tor  19  20  21  22
 211 prop tor  19  20  21  57
 212 ben  19  20  27
 213 prop tor  19  20  27  26
 214 ben  20  19  56
 215 ben  20  21  22
 216 prop tor  20  21  22  23
 217 prop tor  20  21  22  26
 218 ben  20  21  57
 219 ben  20  27  26
 220 ben  21  20  27
 221 prop tor  21  20  27  26
 222 ben  21  22  23
 223 prop tor  21  22  23  24
 224 ben  21  22  26
 225 prop tor  21  22  26  25
 226 prop tor  21  22  26  27
 227 ben  22  21  57
 228 ben  22  23  24
 229 prop tor  22  23  24  25
 230 prop tor  22  23  24  58
 231 ben  22  26  25
 232 ben  22  26  27
 233 prop tor  22  26  27  20
 234 ben  23  22  26
 235 prop tor  23  22  26  25
 236 prop tor  23  22  26  27
 237 ben  23  24  25
 238 prop tor  23  24  25  26
 239 prop tor  23  24  25  59
 240 ben  23  24  58
 241 ben  24  25  26
 242 prop tor  24  25  26  22
 243 prop tor  24  25  26  27
 244 ben  24  25  59
 245 ben  25  24  58
 246 ben  25  26  27
 247 prop tor  25  26  27  20
 248 prop tor  26  22  23  24
 249 ben  26  25  59
 250 prop tor  27  20  21  22
 251 prop tor  27  20  21  57
 252 prop tor  28  17  18  19
 253 prop tor  28  17  18  55
 254 ben  28  30  31
 255 prop tor  28  30  31  32
 256 prop tor  28  30  31  60
 257 ben  28  30  43
 258 prop tor  28  30  43  14
 259 prop tor  28  30  43  42
 260 ben  29  28  30
 261 prop tor  29  28  30  31
 262 prop tor  29  28  30  43
 263 ben  30  31  32
 264 prop tor  30  31  32  33
 265 prop tor  30  31  32  61
 266 ben  30  31  60
 267 ben  30  43  42
 268 ben  31  30  43
 269 prop tor  31  30  43  14
 270 prop tor  31  30  43  42
 271 ben  31  32  33
 272 prop tor  31  32  33  34
[...]
 nber times 1st assigned=         162           0
 nber times 1st assigned=         163           0
 nber times 1st assigned=         164           0
 nber times 1st assigned=         165           0
 nber times 1st assigned=         166           0
 nber times 1st assigned=         167           0
 nber times 1st assigned=         168           0
 nber times 1st assigned=         169           0
 nber times 1st assigned=         170           0
 nber times 1st assigned=         171           0
 nber times 1st assigned=         172           0
 nber times 1st assigned=         173           0
 nber times 1st assigned=         174           0
 nber times 1st assigned=         175           0
 nber times 1st assigned=         176           0
 nber times 1st assigned=         177           0
 nber times 1st assigned=         178           0
 nber times 1st assigned=         179           0
 nber times 1st assigned=         180           0
 nber times 1st assigned=         181           0
 nber times 1st assigned=         182           0
 nber times 1st assigned=         183           0
 nber times 1st assigned=         184           0
 nber times 1st assigned=         185           0
 nber times 1st assigned=         186           0
 nber times 1st assigned=         187           0
 nber times 1st assigned=         188           0
 nber times 1st assigned=         189           0
 modes represented=   183.886385754973     
 p1=
   -0.   -0.    0.    0.    0.    0.   -3.   -0.    1.  -60.   -8.    0.   -0.    0.   -0.    0.  -19.   -0.  -28.    0.
   -8.    0.    0.   -0.    0.   -6.    0.   -9.   -0.    1.    1.    0.    1.    0.   -5.    0.    0.    1.    0.    4.
   -1.    2.    0.    6.    1.    2.   -2.   -0.    9.    6.    0.   -3.    2.   -4.    0.   -0.    0.   -1.   -3.   -0.
    0.   -2.   -0.    2.   -0.   -1.   -0.   -2.   -0.    0.    3.   -1.   -1.   -2.   -0.    0.    0.   -2.    0.    0.
    0.    0.    0.    0.    0.    0.    0.    0.    1.    0.    0.    1.    0.    1.    1.   -0.   -0.   -0.    1.   -0.
   -1.    0.   -0.    1.    0.    0.    0.   -2.   -1.   -1.   -1.    3.   -0.    0.   -2.   -0.    0.    0.    0.   -2.
   -1.    1.   -0.    0.   -0.    2.   -4.   -1.    0.    0.   -2.    1.    1.    0.   -0.    1.    4.    0.    0.    0.
   -0.    0.    0.   -1.   -2.   -0.   -0.   -1.   -0.    0.   -0.    0.    0.   -0.   -3.   -0.   -1.   -1.   -1.    0.
    2.    1.   -1.   -1.   -1.    0.    1.    2.   -0.   -0.   -0.    0.    0.   -0.    0.    0.   -0.   -0.    0.    0.
   -0.    0.   -0.    0.   -0.   -0.    0.    0.   -0.
 p2=
   -0.   -0.    0.    0.   -0.    0.   -3.   -1.   -3.   60.   -1.   -0.   -0.    0.   -0.   -0.   17.   -0.   28.   -0.
    9.   -0.    0.    0.    0.   -0.   -5.    0.  -10.    0.    1.    0.    0.   -1.    5.    0.   -0.    1.   -4.    0.
   -1.    3.   -0.    8.   -2.    1.   -3.   -0.   -3.    3.    0.   -5.   -0.    3.   -0.    0.    7.    3.    0.    3.
   -0.    0.   -2.   -0.   -2.   -2.   -0.    0.   -0.    3.   -0.    2.    0.    0.   -2.    1.    4.    0.   -0.   -0.
   -0.    1.   -0.    0.    0.    0.    0.    1.    0.   -0.    1.    1.    0.   -0.   -1.   -0.    0.    1.    0.    0.
   -1.   -0.    0.    0.   -0.   -0.    0.   -0.   -0.    0.   -1.    2.   -0.    0.    1.    0.    0.   -0.    0.   -0.
   -1.    1.   -0.    2.    1.   -1.    0.   -3.   -2.   -1.    0.    4.   -1.    2.   -0.   -0.   -5.    0.    0.   -2.
   -3.    0.    0.   -1.    2.    0.   -2.   -1.   -0.    0.   -1.   -0.    1.    0.    0.    0.    2.    0.   -1.    0.
    0.    0.    1.    0.   -3.   -0.   -0.    1.   -0.    0.    0.   -0.    0.    0.   -0.    0.    0.    0.    0.    0.
    0.    0.    0.   -0.   -0.    0.   -0.   -0.   -0.

 Displacement: in terms of nc of 1 THEN of nc of 2

   1     freq=    -0. Q= -0.000 lam=    -0.0     freq=    -0. Q= -0.000 lam=    -0.0
   2     freq=    -0. Q= -0.000 lam=    -0.0     freq=    -0. Q= -0.000 lam=    -0.0
   3     freq=    -0. Q=  0.000 lam=    -0.0     freq=    -0. Q=  0.000 lam=    -0.0
   4     freq=    -0. Q=  0.000 lam=    -0.0     freq=    -0. Q=  0.000 lam=    -0.0
   5     freq=     0. Q=  0.000 lam=     0.0     freq=     0. Q=  0.000 lam=     0.0
   6     freq=     0. Q=  0.000 lam=     0.0     freq=     0. Q=  0.000 lam=     0.0
   7     freq=     8. Q= -0.039 lam=     0.0     freq=    10. Q= -0.041 lam=     0.0
   8     freq=    19. Q= -0.007 lam=     0.0     freq=    15. Q= -0.010 lam=     0.0
   9     freq=    27. Q=  0.025 lam=     0.0     freq=    28. Q=  0.069 lam=     0.1
  10     freq=    29. Q= -1.304 lam=    24.5     freq=    28. Q= -1.282 lam=    23.3
  11     freq=    29. Q= -0.178 lam=     0.5     freq=    31. Q= -0.021 lam=     0.0
  12     freq=    49. Q=  0.003 lam=     0.0     freq=    49. Q=  0.004 lam=     0.0
  13     freq=    56. Q= -0.001 lam=     0.0     freq=    55. Q= -0.002 lam=     0.0
  14     freq=    64. Q=  0.003 lam=     0.0     freq=    65. Q=  0.004 lam=     0.0
  15     freq=    77. Q= -0.002 lam=     0.0     freq=    75. Q= -0.002 lam=     0.0
  16     freq=    89. Q=  0.007 lam=     0.0     freq=    89. Q=  0.007 lam=     0.0
  17     freq=    95. Q= -0.744 lam=    26.2     freq=    92. Q= -0.670 lam=    20.6
  18     freq=   101. Q= -0.003 lam=     0.0     freq=   101. Q= -0.003 lam=     0.0
  19     freq=   122. Q= -1.246 lam=    94.6     freq=   119. Q= -1.235 lam=    90.9
  20     freq=   145. Q=  0.008 lam=     0.0     freq=   144. Q=  0.004 lam=     0.0
  21     freq=   165. Q= -0.429 lam=    15.2     freq=   162. Q= -0.462 lam=    17.3
  22     freq=   169. Q=  0.005 lam=     0.0     freq=   168. Q=  0.003 lam=     0.0
  23     freq=   178. Q=  0.003 lam=     0.0     freq=   169. Q=  0.003 lam=     0.0
  24     freq=   195. Q= -0.001 lam=     0.0     freq=   183. Q= -0.002 lam=     0.0
  25     freq=   202. Q=  0.000 lam=     0.0     freq=   190. Q=  0.002 lam=     0.0
  26     freq=   212. Q= -0.329 lam=    11.4     freq=   201. Q= -0.000 lam=     0.0
  27     freq=   213. Q=  0.009 lam=     0.0     freq=   208. Q=  0.268 lam=     7.4
  28     freq=   229. Q= -0.547 lam=    34.3     freq=   210. Q= -0.002 lam=     0.0
  29     freq=   235. Q= -0.021 lam=     0.1     freq=   227. Q= -0.589 lam=    39.3
  30     freq=   236. Q=  0.062 lam=     0.4     freq=   235. Q=  0.021 lam=     0.1
  31     freq=   237. Q=  0.032 lam=     0.1     freq=   237. Q=  0.077 lam=     0.7
  32     freq=   258. Q=  0.001 lam=     0.0     freq=   256. Q=  0.001 lam=     0.0
  33     freq=   290. Q=  0.089 lam=     1.1     freq=   288. Q=  0.000 lam=     0.0
  34     freq=   296. Q=  0.017 lam=     0.0     freq=   289. Q=  0.073 lam=     0.8
  35     freq=   297. Q= -0.330 lam=    16.2     freq=   296. Q= -0.363 lam=    19.5
  36     freq=   314. Q=  0.000 lam=     0.0     freq=   302. Q=  0.002 lam=     0.0
  37     freq=   333. Q=  0.002 lam=     0.0     freq=   325. Q=  0.002 lam=     0.0
  38     freq=   355. Q=  0.098 lam=     1.7     freq=   348. Q=  0.095 lam=     1.6
  39     freq=   357. Q=  0.002 lam=     0.0     freq=   372. Q=  0.307 lam=    17.5
  40     freq=   380. Q=  0.340 lam=    22.0     freq=   385. Q=  0.000 lam=     0.0
  41     freq=   396. Q= -0.106 lam=     2.2     freq=   391. Q= -0.070 lam=     1.0
  42     freq=   404. Q=  0.141 lam=     4.0     freq=   402. Q=  0.238 lam=    11.4
  43     freq=   418. Q=  0.001 lam=     0.0     freq=   417. Q=  0.000 lam=     0.0
  44     freq=   433. Q=  0.494 lam=    52.8     freq=   428. Q=  0.649 lam=    90.2
  45     freq=   436. Q=  0.058 lam=     0.7     freq=   433. Q=  0.186 lam=     7.5
  46     freq=   443. Q=  0.136 lam=     4.1     freq=   440. Q=  0.115 lam=     2.9
  47     freq=   451. Q= -0.172 lam=     6.6     freq=   442. Q= -0.255 lam=    14.4
  48     freq=   453. Q= -0.002 lam=     0.0     freq=   447. Q= -0.000 lam=     0.0
  49     freq=   456. Q=  0.785 lam=   140.6     freq=   459. Q=  0.228 lam=    12.0
  50     freq=   459. Q=  0.489 lam=    54.8     freq=   466. Q=  0.238 lam=    13.2
  51     freq=   464. Q=  0.001 lam=     0.0     freq=   471. Q=  0.000 lam=     0.0
  52     freq=   473. Q= -0.275 lam=    17.9     freq=   478. Q= -0.444 lam=    47.2
  53     freq=   485. Q=  0.191 lam=     8.8     freq=   484. Q=  0.003 lam=     0.0
  54     freq=   497. Q= -0.359 lam=    31.9     freq=   485. Q= -0.225 lam=    12.2
  55     freq=   501. Q=  0.001 lam=     0.0     freq=   498. Q=  0.003 lam=     0.0
  56     freq=   513. Q= -0.001 lam=     0.0     freq=   506. Q= -0.000 lam=     0.0
  57     freq=   516. Q=  0.001 lam=     0.0     freq=   509. Q=  0.637 lam=   103.4
  58     freq=   534. Q= -0.124 lam=     4.1     freq=   538. Q= -0.301 lam=    24.3
  59     freq=   557. Q= -0.255 lam=    18.1     freq=   549. Q= -0.002 lam=     0.0
  60     freq=   564. Q= -0.001 lam=     0.0     freq=   556. Q= -0.303 lam=    25.5
  61     freq=   579. Q=  0.022 lam=     0.1     freq=   574. Q=  0.001 lam=     0.0
  62     freq=   584. Q= -0.211 lam=    13.0     freq=   575. Q= -0.012 lam=     0.0
  63     freq=   591. Q= -0.001 lam=     0.0     freq=   580. Q= -0.168 lam=     8.2
  64     freq=   620. Q=  0.236 lam=    17.3     freq=   604. Q=  0.002 lam=     0.0
  65     freq=   624. Q= -0.001 lam=     0.0     freq=   615. Q= -0.181 lam=    10.0
  66     freq=   626. Q= -0.124 lam=     4.8     freq=   618. Q= -0.222 lam=    15.2
  67     freq=   629. Q= -0.000 lam=     0.0     freq=   620. Q= -0.000 lam=     0.0
  68     freq=   647. Q= -0.188 lam=    11.5     freq=   632. Q= -0.002 lam=     0.0
  69     freq=   661. Q= -0.002 lam=     0.0     freq=   652. Q= -0.000 lam=     0.0
  70     freq=   669. Q=  0.001 lam=     0.0     freq=   666. Q=  0.271 lam=    24.5
  71     freq=   685. Q=  0.323 lam=    35.8     freq=   675. Q=  0.000 lam=     0.0
  72     freq=   713. Q= -0.142 lam=     7.2     freq=   683. Q= -0.256 lam=    22.3
  73     freq=   720. Q= -0.160 lam=     9.2     freq=   700. Q= -0.001 lam=     0.0
  74     freq=   730. Q= -0.269 lam=    26.4     freq=   700. Q= -0.001 lam=     0.0
  75     freq=   736. Q= -0.000 lam=     0.0     freq=   710. Q= -0.188 lam=    12.5
  76     freq=   748. Q=  0.000 lam=     0.0     freq=   720. Q=  0.082 lam=     2.4
  77     freq=   758. Q=  0.001 lam=     0.0     freq=   729. Q=  0.382 lam=    53.3
  78     freq=   762. Q= -0.174 lam=    11.5     freq=   743. Q= -0.005 lam=     0.0
  79     freq=   765. Q=  0.006 lam=     0.0     freq=   749. Q=  0.005 lam=     0.0
  80     freq=   772. Q=  0.002 lam=     0.0     freq=   757. Q=  0.001 lam=     0.0
  81     freq=   786. Q=  0.001 lam=     0.0     freq=   763. Q=  0.000 lam=     0.0
  82     freq=   802. Q=  0.030 lam=     0.4     freq=   767. Q=  0.133 lam=     6.8
  83     freq=   809. Q=  0.049 lam=     1.0     freq=   801. Q=  0.045 lam=     0.8
  84     freq=   816. Q=  0.000 lam=     0.0     freq=   807. Q=  0.002 lam=     0.0
  85     freq=   823. Q=  0.049 lam=     1.0     freq=   811. Q=  0.038 lam=     0.6
  86     freq=   823. Q=  0.023 lam=     0.2     freq=   815. Q=  0.000 lam=     0.0
  87     freq=   829. Q=  0.002 lam=     0.0     freq=   822. Q=  0.001 lam=     0.0
  88     freq=   834. Q=  0.002 lam=     0.0     freq=   822. Q=  0.060 lam=     1.5
  89     freq=   835. Q=  0.131 lam=     7.2     freq=   826. Q=  0.001 lam=     0.0
  90     freq=   835. Q=  0.015 lam=     0.1     freq=   832. Q=  0.001 lam=     0.0
  91     freq=   847. Q=  0.008 lam=     0.0     freq=   842. Q=  0.108 lam=     4.9
  92     freq=   847. Q=  0.103 lam=     4.5     freq=   848. Q=  0.159 lam=    10.7
  93     freq=   895. Q=  0.000 lam=     0.0     freq=   875. Q=  0.000 lam=     0.0
  94     freq=   900. Q=  0.076 lam=     2.6     freq=   881. Q=  0.001 lam=     0.0
  95     freq=   915. Q=  0.062 lam=     1.7     freq=   897. Q=  0.073 lam=     2.4
  96     freq=   920. Q= -0.001 lam=     0.0     freq=   919. Q= -0.058 lam=     1.5
  97     freq=   922. Q= -0.042 lam=     0.8     freq=   925. Q= -0.012 lam=     0.1
  98     freq=   944. Q= -0.000 lam=     0.0     freq=   933. Q= -0.085 lam=     3.4
  99     freq=   952. Q=  0.166 lam=    13.1     freq=   945. Q=  0.000 lam=     0.0
 100     freq=   956. Q= -0.000 lam=     0.0     freq=   957. Q= -0.000 lam=     0.0
 101     freq=   970. Q= -0.112 lam=     6.1     freq=   963. Q= -0.106 lam=     5.4
 102     freq=   974. Q=  0.000 lam=     0.0     freq=   975. Q=  0.000 lam=     0.0
 103     freq=   977. Q= -0.000 lam=     0.0     freq=   976. Q= -0.000 lam=     0.0
 104     freq=   983. Q=  0.090 lam=     4.0     freq=   988. Q=  0.000 lam=     0.0
 105     freq=   987. Q=  0.000 lam=     0.0     freq=   989. Q=  0.000 lam=     0.0
 106     freq=   990. Q=  0.000 lam=     0.0     freq=   999. Q=  0.000 lam=     0.0
 107     freq=  1019. Q=  0.000 lam=     0.0     freq=  1027. Q=  0.051 lam=     1.4
 108     freq=  1051. Q= -0.279 lam=    40.9     freq=  1063. Q= -0.002 lam=     0.0
 109     freq=  1070. Q= -0.085 lam=     3.9     freq=  1086. Q= -0.013 lam=     0.1
 110     freq=  1094. Q= -0.085 lam=     4.0     freq=  1100. Q= -0.051 lam=     1.4
 111     freq=  1102. Q= -0.071 lam=     2.8     freq=  1106. Q= -0.117 lam=     7.5
 112     freq=  1125. Q=  0.399 lam=    89.4     freq=  1133. Q=  0.241 lam=    32.8
 113     freq=  1150. Q= -0.026 lam=     0.4     freq=  1137. Q= -0.067 lam=     2.6
 114     freq=  1155. Q=  0.001 lam=     0.0     freq=  1155. Q=  0.000 lam=     0.0
 115     freq=  1155. Q= -0.269 lam=    41.8     freq=  1161. Q= -0.171 lam=    17.0
 116     freq=  1165. Q= -0.045 lam=     1.2     freq=  1162. Q= -0.050 lam=     1.4
 117     freq=  1175. Q=  0.015 lam=     0.1     freq=  1170. Q=  0.035 lam=     0.7
 118     freq=  1190. Q=  0.032 lam=     0.6     freq=  1186. Q=  0.002 lam=     0.0
 119     freq=  1201. Q=  0.024 lam=     0.3     freq=  1196. Q=  0.023 lam=     0.3
 120     freq=  1214. Q= -0.306 lam=    56.7     freq=  1198. Q= -0.041 lam=     1.0
 121     freq=  1215. Q= -0.121 lam=     8.9     freq=  1210. Q= -0.186 lam=    20.9
 122     freq=  1220. Q=  0.204 lam=    25.3     freq=  1224. Q=  0.104 lam=     6.7
 123     freq=  1228. Q= -0.051 lam=     1.6     freq=  1232. Q= -0.044 lam=     1.2
 124     freq=  1236. Q=  0.026 lam=     0.4     freq=  1239. Q=  0.335 lam=    69.5
 125     freq=  1250. Q= -0.021 lam=     0.3     freq=  1241. Q= -0.082 lam=     4.1
 126     freq=  1260. Q=  0.327 lam=    67.4     freq=  1246. Q=  0.173 lam=    18.7
 127     freq=  1278. Q= -0.518 lam=   171.7     freq=  1255. Q= -0.020 lam=     0.3
 128     freq=  1293. Q= -0.139 lam=    12.4     freq=  1298. Q= -0.378 lam=    92.6
 129     freq=  1299. Q=  0.058 lam=     2.2     freq=  1306. Q=  0.253 lam=    41.6
 130     freq=  1301. Q=  0.061 lam=     2.4     freq=  1316. Q=  0.157 lam=    16.2
 131     freq=  1325. Q= -0.335 lam=    74.4     freq=  1319. Q= -0.032 lam=     0.7
 132     freq=  1340. Q=  0.115 lam=     8.9     freq=  1347. Q=  0.518 lam=   181.1
 133     freq=  1348. Q=  0.150 lam=    15.1     freq=  1352. Q=  0.179 lam=    21.7
 134     freq=  1363. Q=  0.069 lam=     3.2     freq=  1361. Q=  0.249 lam=    42.2
 135     freq=  1363. Q= -0.043 lam=     1.2     freq=  1367. Q= -0.056 lam=     2.1
 136     freq=  1372. Q=  0.186 lam=    23.6     freq=  1375. Q=  0.066 lam=     3.0
 137     freq=  1383. Q=  0.559 lam=   216.4     freq=  1379. Q=  0.686 lam=   324.1
 138     freq=  1384. Q=  0.001 lam=     0.0     freq=  1382. Q=  0.002 lam=     0.0
 139     freq=  1393. Q=  0.058 lam=     2.4     freq=  1392. Q=  0.010 lam=     0.1
 140     freq=  1398. Q=  0.023 lam=     0.4     freq=  1400. Q=  0.246 lam=    42.5
 141     freq=  1398. Q= -0.001 lam=     0.0     freq=  1400. Q= -0.489 lam=   167.3
 142     freq=  1412. Q=  0.027 lam=     0.5     freq=  1405. Q=  0.042 lam=     1.2
 143     freq=  1425. Q=  0.011 lam=     0.1     freq=  1416. Q=  0.064 lam=     2.9
 144     freq=  1427. Q= -0.151 lam=    16.2     freq=  1431. Q= -0.097 lam=     6.7
 145     freq=  1440. Q= -0.241 lam=    41.8     freq=  1439. Q= -0.245 lam=    43.1
 146     freq=  1445. Q= -0.048 lam=     1.7     freq=  1447. Q= -0.001 lam=     0.0
 147     freq=  1455. Q= -0.066 lam=     3.2     freq=  1456. Q= -0.276 lam=    55.4
 148     freq=  1462. Q= -0.153 lam=    17.0     freq=  1462. Q= -0.086 lam=     5.5
 149     freq=  1475. Q= -0.027 lam=     0.6     freq=  1467. Q= -0.042 lam=     1.3
 150     freq=  1484. Q=  0.052 lam=     2.0     freq=  1485. Q=  0.000 lam=     0.0
 151     freq=  1484. Q= -0.000 lam=     0.0     freq=  1494. Q= -0.127 lam=    12.1
 152     freq=  1486. Q=  0.049 lam=     1.8     freq=  1498. Q=  0.053 lam=     2.1
 153     freq=  1496. Q=  0.025 lam=     0.5     freq=  1504. Q=  0.146 lam=    16.1
 154     freq=  1507. Q= -0.000 lam=     0.0     freq=  1505. Q= -0.000 lam=     0.0
 155     freq=  1510. Q= -0.470 lam=   166.5     freq=  1510. Q= -0.052 lam=     2.0
 156     freq=  1524. Q= -0.012 lam=     0.1     freq=  1523. Q= -0.014 lam=     0.1
 157     freq=  1548. Q= -0.127 lam=    12.5     freq=  1542. Q= -0.344 lam=    91.2
 158     freq=  1558. Q= -0.234 lam=    42.5     freq=  1546. Q= -0.009 lam=     0.1
 159     freq=  1575. Q= -0.185 lam=    26.9     freq=  1556. Q= -0.173 lam=    23.4
 160     freq=  1589. Q=  0.054 lam=     2.3     freq=  1572. Q=  0.037 lam=     1.1
 161     freq=  1603. Q=  0.403 lam=   130.0     freq=  1584. Q=  0.048 lam=     1.8
 162     freq=  1614. Q=  0.188 lam=    28.7     freq=  1600. Q=  0.010 lam=     0.1
 163     freq=  1616. Q= -0.123 lam=    12.3     freq=  1601. Q= -0.092 lam=     6.8
 164     freq=  1623. Q= -0.145 lam=    17.2     freq=  1621. Q= -0.005 lam=     0.0
 165     freq=  1638. Q= -0.241 lam=    47.6     freq=  1671. Q= -0.476 lam=   189.2
 166     freq=  1685. Q=  0.002 lam=     0.0     freq=  1686. Q=  0.004 lam=     0.0
 167     freq=  1722. Q=  0.104 lam=     9.4     freq=  1691. Q=  0.007 lam=     0.0
 168     freq=  1787. Q=  0.399 lam=   142.1     freq=  1725. Q=  0.100 lam=     8.7
 169     freq=  1827. Q= -0.036 lam=     1.2     freq=  1734. Q= -0.024 lam=     0.5
 170     freq=  3030. Q= -0.000 lam=     0.0     freq=  3034. Q= -0.000 lam=     0.0
 171     freq=  3035. Q= -0.008 lam=     0.1     freq=  3038. Q= -0.007 lam=     0.1
 172     freq=  3087. Q=  0.000 lam=     0.0     freq=  3092. Q=  0.000 lam=     0.0
 173     freq=  3090. Q=  0.006 lam=     0.1     freq=  3096. Q=  0.006 lam=     0.0
 174     freq=  3110. Q= -0.004 lam=     0.0     freq=  3112. Q= -0.003 lam=     0.0
 175     freq=  3132. Q=  0.000 lam=     0.0     freq=  3133. Q=  0.000 lam=     0.0
 176     freq=  3142. Q=  0.004 lam=     0.0     freq=  3143. Q=  0.004 lam=     0.0
 177     freq=  3153. Q= -0.044 lam=     3.0     freq=  3198. Q= -0.003 lam=     0.0
 178     freq=  3193. Q= -0.003 lam=     0.0     freq=  3199. Q= -0.002 lam=     0.0
 179     freq=  3194. Q=  0.002 lam=     0.0     freq=  3206. Q=  0.002 lam=     0.0
 180     freq=  3199. Q=  0.004 lam=     0.0     freq=  3206. Q=  0.004 lam=     0.0
 181     freq=  3200. Q= -0.004 lam=     0.0     freq=  3210. Q= -0.018 lam=     0.5
 182     freq=  3209. Q=  0.003 lam=     0.0     freq=  3213. Q=  0.006 lam=     0.1
 183     freq=  3209. Q= -0.004 lam=     0.0     freq=  3213. Q= -0.039 lam=     2.5
 184     freq=  3225. Q=  0.001 lam=     0.0     freq=  3214. Q=  0.008 lam=     0.1
 185     freq=  3225. Q= -0.002 lam=     0.0     freq=  3214. Q= -0.001 lam=     0.0
 186     freq=  3228. Q= -0.014 lam=     0.3     freq=  3224. Q= -0.001 lam=     0.0
 187     freq=  3228. Q=  0.010 lam=     0.2     freq=  3224. Q=  0.002 lam=     0.0
 188     freq=  3242. Q=  0.002 lam=     0.0     freq=  3238. Q=  0.011 lam=     0.2
 189     freq=  3248. Q= -0.001 lam=     0.0     freq=  3245. Q= -0.000 lam=     0.0

 total reorg energy (cm**-1, kcal/mol)=     2383.     2389.      6.81      6.83
 Nber of molecules processed=           2
