 Enter ifcurve (0=recti, 1=orth curvi, 2=apprx curvi, -1 = skip
 And atom ordering flag, 0= never changes, 1= use the first order thenceforth,
  2= deduce it (does read on fail), 3= always read it
 Reading file: 
 ./PDI_6_C0S1.log                                                               
                                          
  Entering Gaussian System, Link 0=g16                                          
  
 Gaussian format, type: g94, g98, g03= F F F
  #P Geom=AllCheck Guess=TCheck SCRF=Check GenChk RB3LYP TD(FC,Read)/6-3    
 energy type= TD      
 Original G94 input coords:
  6  1.414568  0.015338 -0.090258
  6  2.866948  0.025396 -0.066042
  6  4.077020  0.033460 -0.045109
  6  5.437336  0.042530 -0.021496
  6  6.644748  0.050577 -0.000496
  7  7.997849  0.059527  0.023106
  6  8.664556 -1.194682  0.198463
  8  8.026174 -2.217059  0.319649
  6 10.134881 -1.141305  0.218635
  6 10.841347 -2.339265  0.387625
  6 12.219736 -2.341190  0.413411
  6 12.969293 -1.141422  0.271085
  6 14.409999 -1.131990  0.296944
  6 15.174931 -2.319279  0.466779
  6 16.554568 -2.295511  0.489740
  6 17.245895 -1.086825  0.344455
  6 18.724751 -1.097727  0.374178
  8 19.345718 -2.139751  0.522916
  7 19.380105  0.130360  0.225558
  6 20.877783  0.168105  0.249698
  6 21.433075 -0.266043  1.610044
  6 21.482597 -0.598998 -0.930606
  6 18.713636  1.357626  0.051509
  8 19.326318  2.406414 -0.074760
  6 17.236211  1.327428  0.027659
  6 16.534412  2.527048 -0.142748
  6 15.154632  2.532809 -0.169058
  6 14.399462  1.335891 -0.026135
  6 12.958822  1.326499 -0.051235
  6 12.198787  2.516166 -0.220158
  6 10.820487  2.496075 -0.242617
  6 10.124083  1.288985 -0.098068
  6  8.653741  1.322943 -0.129176
  8  8.005902  2.336432 -0.272682
  6 10.834778  0.078543  0.072609
  6 12.264137  0.087974  0.097645
  6 15.101734  0.106562  0.147794
  6 16.529261  0.115808  0.173313
  1  1.023164 -0.892280  0.379425
  1  1.035721  0.053310 -1.116261
  1  1.007726  0.874872  0.451287
  1 10.276560 -3.256141  0.496509
  1 12.730547 -3.284198  0.545528
  1 14.675407 -3.270646  0.582000
  1 17.130371 -3.202728  0.619504
  1 21.098651  1.224675  0.115557
  1 21.257608 -1.324473  1.798043
  1 20.981939  0.318083  2.416313
  1 22.510727 -0.082096  1.628527
  1 21.309578 -1.671061 -0.845968
  1 22.561012 -0.420258 -0.954778
  1 21.065343 -0.244838 -1.876790
  1 17.101867  3.442117 -0.252214
  1 14.647366  3.477706 -0.302353
  1 12.701399  3.465879 -0.334647
  1 10.247955  3.405537 -0.371470
 nber atoms=          56
  Total Energy, E(TD-HF/TD-DFT) =  -1640.96901280                               
  
          32          49 "  -1640.96901280"
After scan for Atom:   Atom  AN      X      Y      Z        X      Y      Z        X      Y      Z   
After scan for Atom:   Atom  AN      X      Y      Z        X      Y      Z        X      Y      Z   
After scan for Atom:   Atom  AN      X      Y      Z        X      Y      Z        X      Y      Z   
After scan for Atom:   Atom  AN      X      Y      Z        X      Y      Z        X      Y      Z   
After scan for Atom:   Atom  AN      X      Y      Z        X      Y      Z        X      Y      Z   
After scan for Atom:   Atom  AN      X      Y      Z        X      Y      Z        X      Y      Z   
After scan for Atom:   Atom  AN      X      Y      Z        X      Y      Z        X      Y      Z   
After scan for Atom:   Atom  AN      X      Y      Z        X      Y      Z        X      Y      Z   
After scan for Atom:   Atom  AN      X      Y      Z        X      Y      Z        X      Y      Z   
After scan for Atom:   Atom  AN      X      Y      Z        X      Y      Z        X      Y      Z   
After scan for Atom:   Atom  AN      X      Y      Z        X      Y      Z        X      Y      Z   
After scan for Atom:   Atom  AN      X      Y      Z        X      Y      Z        X      Y      Z   
After scan for Atom:   Atom  AN      X      Y      Z        X      Y      Z        X      Y      Z   
After scan for Atom:   Atom  AN      X      Y      Z        X      Y      Z        X      Y      Z   
After scan for Atom:   Atom  AN      X      Y      Z        X      Y      Z        X      Y      Z   
After scan for Atom:   Atom  AN      X      Y      Z        X      Y      Z        X      Y      Z   
After scan for Atom:   Atom  AN      X      Y      Z        X      Y      Z        X      Y      Z   
After scan for Atom:   Atom  AN      X      Y      Z        X      Y      Z        X      Y      Z   
After scan for Atom:   Atom  AN      X      Y      Z        X      Y      Z        X      Y      Z   
After scan for Atom:   Atom  AN      X      Y      Z        X      Y      Z        X      Y      Z   
After scan for Atom:   Atom  AN      X      Y      Z        X      Y      Z        X      Y      Z   
After scan for Atom:   Atom  AN      X      Y      Z        X      Y      Z        X      Y      Z   
After scan for Atom:   Atom  AN      X      Y      Z        X      Y      Z        X      Y      Z   
After scan for Atom:   Atom  AN      X      Y      Z        X      Y      Z        X      Y      Z   
After scan for Atom:   Atom  AN      X      Y      Z        X      Y      Z        X      Y      Z   
After scan for Atom:   Atom  AN      X      Y      Z        X      Y      Z        X      Y      Z   
After scan for Atom:   Atom  AN      X      Y      Z        X      Y      Z        X      Y      Z   
After scan for Atom:   Atom  AN      X      Y      Z        X      Y      Z        X      Y      Z   
After scan for Atom:   Atom  AN      X      Y      Z        X      Y      Z        X      Y      Z   
After scan for Atom:   Atom  AN      X      Y      Z        X      Y      Z        X      Y      Z   
After scan for Atom:   Atom  AN      X      Y      Z        X      Y      Z        X      Y      Z   
After scan for Atom:   Atom  AN      X      Y      Z        X      Y      Z        X      Y      Z   
After scan for Atom:   Atom  AN      X      Y      Z        X      Y      Z        X      Y      Z   
After scan for Atom:   Atom  AN      X      Y      Z        X      Y      Z        X      Y      Z   
After scan for Atom:   Atom  AN      X      Y      Z        X      Y      Z        X      Y      Z   
After scan for Atom:   Atom  AN      X      Y      Z        X      Y      Z        X      Y      Z   
After scan for Atom:   Atom  AN      X      Y      Z        X      Y      Z        X      Y      Z   
After scan for Atom:   Atom  AN      X      Y      Z        X      Y      Z        X      Y      Z   
After scan for Atom:   Atom  AN      X      Y      Z        X      Y      Z        X      Y      Z   
After scan for Atom:   Atom  AN      X      Y      Z        X      Y      Z        X      Y      Z   
After scan for Atom:   Atom  AN      X      Y      Z        X      Y      Z        X      Y      Z   
After scan for Atom:   Atom  AN      X      Y      Z        X      Y      Z        X      Y      Z   
After scan for Atom:   Atom  AN      X      Y      Z        X      Y      Z        X      Y      Z   
After scan for Atom:   Atom  AN      X      Y      Z        X      Y      Z        X      Y      Z   
After scan for Atom:   Atom  AN      X      Y      Z        X      Y      Z        X      Y      Z   
After scan for Atom:   Atom  AN      X      Y      Z        X      Y      Z        X      Y      Z   
After scan for Atom:   Atom  AN      X      Y      Z        X      Y      Z        X      Y      Z   
After scan for Atom:   Atom  AN      X      Y      Z        X      Y      Z        X      Y      Z   
After scan for Atom:   Atom  AN      X      Y      Z        X      Y      Z        X      Y      Z   
After scan for Atom:   Atom  AN      X      Y      Z        X      Y      Z        X      Y      Z   
After scan for Atom:   Atom  AN      X      Y      Z        X      Y      Z        X      Y      Z   
After scan for Atom:   Atom  AN      X      Y      Z        X      Y      Z        X      Y      Z   
After scan for Atom:   Atom  AN      X      Y      Z        X      Y      Z        X      Y      Z   
After scan for Atom:   Atom  AN      X      Y      Z        X      Y      Z        X      Y      Z   
 g94    frequencies=
     0.0    0.0    0.0    0.0    0.0    0.0   -6.0   13.5   25.1   28.5
    30.7   54.0   58.2   75.7   86.1   89.9  101.8  102.0  137.3  162.0
   167.7  171.3  183.7  200.8  203.9  214.8  234.2  235.3  255.8  259.8
   280.0  297.8  301.3  310.8  318.1  325.8  351.2  389.3  391.6  416.9
   425.1  432.2  436.3  438.2  447.3  450.2  464.7  473.8  484.1  498.9
   501.4  505.6  508.0  510.3  544.7  550.3  573.1  574.1  578.2  604.1
   615.8  635.1  651.8  671.5  678.2  704.5  710.4  714.4  727.4  746.3
   757.4  757.8  764.1  800.8  809.1  810.4  814.6  823.0  826.3  832.0
   844.5  901.5  915.6  931.9  945.4  951.5  956.7  975.1  976.8  988.2
   988.9 1006.6 1046.4 1047.5 1061.7 1088.1 1096.7 1110.1 1136.9 1155.5
  1161.5 1169.6 1185.0 1187.2 1196.4 1200.7 1224.6 1232.7 1242.8 1256.6
  1289.7 1304.6 1319.0 1331.4 1350.4 1366.0 1371.1 1381.9 1391.1 1397.6
  1400.4 1404.5 1416.5 1417.3 1430.2 1438.4 1443.9 1459.4 1467.8 1472.6
  1474.4 1485.0 1491.5 1497.6 1505.1 1511.5 1522.4 1546.3 1554.5 1572.9
  1584.3 1599.0 1599.2 1621.9 1686.2 1725.9 1727.6 1758.8 2280.8 2369.7
  3017.6 3034.4 3038.5 3075.0 3076.5 3092.5 3095.7 3112.5 3132.4 3142.8
  3198.7 3199.0 3205.2 3205.4 3213.3 3213.4 3225.0 3225.3
 g94    symmetries=
                                                 A      A      A      A
       A      A      A      A      A      A      A      A      A      A
       A      A      A      A      A      A      A      A      A      A
       A      A      A      A      A      A      A      A      A      A
       A      A      A      A      A      A      A      A      A      A
       A      A      A      A      A      A      A      A      A      A
       A      A      A      A      A      A      A      A      A      A
       A      A      A      A      A      A      A      A      A      A
       A      A      A      A      A      A      A      A      A      A
       A      A      A      A      A      A      A      A      A      A
       A      A      A      A      A      A      A      A      A      A
       A      A      A      A      A      A      A      A      A      A
       A      A      A      A      A      A      A      A      A      A
       A      A      A      A      A      A      A      A      A      A
       A      A      A      A      A      A      A      A      A      A
       A      A      A      A      A      A      A      A      A      A
       A      A      A      A      A      A      A      A
 atomic masses:
 12.0000 12.0000 12.0000 12.0000 12.0000 14.0031 12.0000 15.9949 12.0000 12.0000
 12.0000 12.0000 12.0000 12.0000 12.0000 12.0000 12.0000 15.9949 14.0031 12.0000
 12.0000 12.0000 12.0000 15.9949 12.0000 12.0000 12.0000 12.0000 12.0000 12.0000
 12.0000 12.0000 12.0000 15.9949 12.0000 12.0000 12.0000 12.0000  1.0078  1.0078
  1.0078  1.0078  1.0078  1.0078  1.0078  1.0078  1.0078  1.0078  1.0078  1.0078
  1.0078  1.0078  1.0078  1.0078  1.0078  1.0078
 looking for force constants in 
 ./PDI_6_C0S1.fchk                                                              
  
 Cartesian Force Constants                  R   N=       14196                  
  
 n3=         168       14196
 g94-fc frequencies=
    -6.0   -1.4   -0.0   -0.0    0.0    0.5    3.5   13.5   25.1   28.5
    30.7   54.0   58.2   75.7   86.1   90.0  101.8  102.0  137.3  162.0
   167.7  171.3  183.7  200.9  203.9  214.8  234.2  235.3  255.8  259.8
   280.0  297.8  301.3  310.8  318.1  325.8  351.2  389.3  391.7  416.9
   425.1  432.2  436.3  438.2  447.3  450.2  464.7  473.8  484.1  498.9
   501.4  505.6  508.0  510.3  544.7  550.4  573.2  574.1  578.2  604.2
   615.8  635.1  651.8  671.5  678.2  704.5  710.4  714.5  727.4  746.4
   757.4  757.8  764.1  800.8  809.2  810.5  814.6  823.0  826.3  832.0
   844.6  901.5  915.6  931.9  945.4  951.6  956.8  975.1  976.9  988.2
   989.0 1006.7 1046.5 1047.6 1061.7 1088.2 1096.7 1110.1 1137.0 1155.5
  1161.5 1169.7 1185.0 1187.3 1196.5 1200.7 1224.7 1232.8 1242.8 1256.6
  1289.7 1304.7 1319.0 1331.4 1350.4 1366.0 1371.1 1382.0 1391.2 1397.7
  1400.4 1404.6 1416.5 1417.3 1430.2 1438.4 1444.0 1459.4 1467.8 1472.6
  1474.5 1485.0 1491.5 1497.7 1505.1 1511.5 1522.4 1546.3 1554.5 1573.0
  1584.4 1599.0 1599.2 1621.9 1686.2 1725.9 1727.7 1758.9 2280.9 2369.8
  3017.6 3034.5 3038.6 3075.0 3076.6 3092.5 3095.7 3112.6 3132.5 3142.8
  3198.8 3199.1 3205.3 3205.5 3213.4 3213.5 3225.1 3225.3
 at 99999: n3=         168
 symm operator            1 :  F  nop=           0
 symm operator            2 :  F  nop=           0
 symm operator            3 :  F  nop=           0
 symm operator            4 :  F  nop=           0
 symm operator            5 :  F  nop=           0
 symm operator            6 :  F  nop=           0
 symm operator            7 :  F  nop=           0
 The point group of the molecule is  C1
 Symmetry rotation matrix:
   1.00000   0.00000   0.00000
   0.00000   1.00000   0.00000
   0.00000   0.00000   1.00000

 Projecting out zero-frequency components
 generating redundant internal coords
         300        3600          56
 search for int coords
   1 str   2   1   1.453
   2 str   3   2   1.210
   3 str   4   3   1.361
   4 str   5   4   1.208
   5 str   6   5   1.353
   6 str   7   6   1.431
   7 str   8   7   1.211
   8 str   9   7   1.471
   9 str  10   9   1.401
  10 str  11  10   1.379
  11 str  12  11   1.422
  12 str  13  12   1.441
  13 str  14  13   1.423
  14 str  15  14   1.380
  15 str  16  15   1.400
  16 str  17  16   1.479
  17 str  18  17   1.222
  18 str  19  17   1.400
  19 str  20  19   1.498
  20 str  21  20   1.532
  21 str  22  20   1.532
  22 str  23  19   1.407
  23 str  24  23   1.221
  24 str  25  23   1.478
  25 str  26  25   1.400
  26 str  27  26   1.380
  27 str  28  27   1.422
  28 str  29  28   1.441
  29 str  30  29   1.422
  30 str  31  30   1.379
  31 str  32  31   1.401
  32 str  33   6   1.432
  33 str  33  32   1.471
  34 str  34  33   1.211
  35 str  35   9   1.414
  36 str  35  32   1.414
  37 str  36  12   1.428
  38 str  36  29   1.428
  39 str  36  35   1.430
  40 str  37  13   1.426
  41 str  37  28   1.426
  42 str  38  16   1.410
  43 str  38  25   1.410
  44 str  38  37   1.428
  45 str  39   1   1.094
  46 str  40   1   1.094
  47 str  41   1   1.094
  48 str  42  10   1.082
  49 str  43  11   1.081
  50 str  44  14   1.081
  51 str  45  15   1.082
  52 str  46  20   1.088
  53 str  47  21   1.089
  54 str  48  21   1.093
  55 str  49  21   1.093
  56 str  50  22   1.089
  57 str  51  22   1.093
  58 str  52  22   1.093
  59 str  53  26   1.082
  60 str  54  27   1.081
  61 str  55  30   1.081
  62 str  56  31   1.082
 nber stretches=          62
  63 lin ben   1   2   3
  65 ben   2   1  39
  66 ben   2   1  40
  67 ben   2   1  41
 Extend lin bond           1           1           2           4
  68 lin ben   2   3   4
  70 lin ben   3   4   5
 Extend lin bond           2           3           4           6
  72 lin ben   4   5   6
  74 ben   5   6   7
  75 prop tor   5   6   7   8
  76 prop tor   5   6   7   9
  77 ben   5   6  33
  78 prop tor   5   6  33  32
  79 prop tor   5   6  33  34
  80 ben   6   7   8
  81 ben   6   7   9
  82 prop tor   6   7   9  10
  83 prop tor   6   7   9  35
  84 ben   6  33  32
  85 ben   6  33  34
  86 ben   7   6  33
  87 prop tor   7   6  33  32
  88 prop tor   7   6  33  34
  89 ben   7   9  10
  90 prop tor   7   9  10  11
  91 prop tor   7   9  10  42
  92 ben   7   9  35
  93 prop tor   7   9  35  32
  94 prop tor   7   9  35  36
  95 ben   8   7   9
  96 prop tor   8   7   9  10
  97 prop tor   8   7   9  35
  98 ben   9  10  11
  99 prop tor   9  10  11  12
 100 prop tor   9  10  11  43
 101 ben   9  10  42
 102 ben   9  35  32
 103 ben   9  35  36
 104 prop tor   9  35  36  12
 105 prop tor   9  35  36  29
 106 ben  10   9  35
 107 prop tor  10   9  35  32
 108 prop tor  10   9  35  36
 109 ben  10  11  12
 110 prop tor  10  11  12  13
 111 prop tor  10  11  12  36
 112 ben  10  11  43
 113 ben  11  10  42
 114 ben  11  12  13
 115 prop tor  11  12  13  14
 116 prop tor  11  12  13  37
 117 ben  11  12  36
 118 prop tor  11  12  36  29
 119 prop tor  11  12  36  35
 120 ben  12  11  43
 121 ben  12  13  14
 122 prop tor  12  13  14  15
 123 prop tor  12  13  14  44
 124 ben  12  13  37
 125 prop tor  12  13  37  28
 126 prop tor  12  13  37  38
 127 ben  12  36  29
 128 ben  12  36  35
 129 ben  13  12  36
 130 prop tor  13  12  36  29
 131 prop tor  13  12  36  35
 132 ben  13  14  15
 133 prop tor  13  14  15  16
 134 prop tor  13  14  15  45
 135 ben  13  14  44
 136 ben  13  37  28
 137 ben  13  37  38
 138 prop tor  13  37  38  16
 139 prop tor  13  37  38  25
 140 ben  14  13  37
 141 prop tor  14  13  37  28
 142 prop tor  14  13  37  38
 143 ben  14  15  16
 144 prop tor  14  15  16  17
 145 prop tor  14  15  16  38
 146 ben  14  15  45
 147 ben  15  14  44
 148 ben  15  16  17
 149 prop tor  15  16  17  18
 150 prop tor  15  16  17  19
 151 ben  15  16  38
 152 prop tor  15  16  38  25
 153 prop tor  15  16  38  37
 154 ben  16  15  45
 155 ben  16  17  18
 156 ben  16  17  19
 157 prop tor  16  17  19  20
 158 prop tor  16  17  19  23
 159 ben  16  38  25
 160 ben  16  38  37
 161 ben  17  16  38
 162 prop tor  17  16  38  25
 163 prop tor  17  16  38  37
 164 ben  17  19  20
 165 prop tor  17  19  20  21
 166 prop tor  17  19  20  22
 167 prop tor  17  19  20  46
 168 ben  17  19  23
 169 prop tor  17  19  23  24
 170 prop tor  17  19  23  25
 171 ben  18  17  19
 172 prop tor  18  17  19  20
 173 prop tor  18  17  19  23
 174 ben  19  20  21
 175 prop tor  19  20  21  47
 176 prop tor  19  20  21  48
 177 prop tor  19  20  21  49
 178 ben  19  20  22
 179 prop tor  19  20  22  50
 180 prop tor  19  20  22  51
 181 prop tor  19  20  22  52
 182 ben  19  20  46
 183 ben  19  23  24
 184 ben  19  23  25
 185 prop tor  19  23  25  26
 186 prop tor  19  23  25  38
 187 ben  20  19  23
 188 prop tor  20  19  23  24
 189 prop tor  20  19  23  25
 190 ben  20  21  47
 191 ben  20  21  48
 192 ben  20  21  49
 193 ben  20  22  50
 194 ben  20  22  51
 195 ben  20  22  52
 196 ben  21  20  22
 197 prop tor  21  20  22  50
 198 prop tor  21  20  22  51
 199 prop tor  21  20  22  52
 200 ben  21  20  46
 201 prop tor  22  20  21  47
 202 prop tor  22  20  21  48
 203 prop tor  22  20  21  49
 204 ben  22  20  46
 205 prop tor  23  19  20  21
 206 prop tor  23  19  20  22
 207 prop tor  23  19  20  46
 208 ben  23  25  26
 209 prop tor  23  25  26  27
 210 prop tor  23  25  26  53
 211 ben  23  25  38
 212 prop tor  23  25  38  16
 213 prop tor  23  25  38  37
 214 ben  24  23  25
 215 prop tor  24  23  25  26
 216 prop tor  24  23  25  38
 217 ben  25  26  27
 218 prop tor  25  26  27  28
 219 prop tor  25  26  27  54
 220 ben  25  26  53
 221 ben  25  38  37
 222 ben  26  25  38
 223 prop tor  26  25  38  16
 224 prop tor  26  25  38  37
 225 ben  26  27  28
 226 prop tor  26  27  28  29
 227 prop tor  26  27  28  37
 228 ben  26  27  54
 229 ben  27  26  53
 230 ben  27  28  29
 231 prop tor  27  28  29  30
 232 prop tor  27  28  29  36
 233 ben  27  28  37
 234 prop tor  27  28  37  13
 235 prop tor  27  28  37  38
 236 ben  28  27  54
 237 ben  28  29  30
 238 prop tor  28  29  30  31
 239 prop tor  28  29  30  55
 240 ben  28  29  36
 241 prop tor  28  29  36  12
 242 prop tor  28  29  36  35
 243 ben  28  37  38
 244 prop tor  28  37  38  16
 245 prop tor  28  37  38  25
 246 ben  29  28  37
 247 prop tor  29  28  37  13
 248 prop tor  29  28  37  38
 249 ben  29  30  31
 250 prop tor  29  30  31  32
 251 prop tor  29  30  31  56
 252 ben  29  30  55
 253 ben  29  36  35
 254 ben  30  29  36
 255 prop tor  30  29  36  12
 256 prop tor  30  29  36  35
 257 ben  30  31  32
 258 prop tor  30  31  32  33
 259 prop tor  30  31  32  35
 260 ben  30  31  56
 261 ben  31  30  55
 262 ben  31  32  33
 263 prop tor  31  32  33   6
 264 prop tor  31  32  33  34
 265 ben  31  32  35
 266 prop tor  31  32  35   9
 267 prop tor  31  32  35  36
 268 ben  32  31  56
 269 ben  32  33  34
 270 ben  32  35  36
 271 prop tor  32  35  36  12
 272 prop tor  32  35  36  29
 273 prop tor  33   6   7   8
 274 prop tor  33   6   7   9
 275 ben  33  32  35
 276 prop tor  33  32  35   9
 277 prop tor  33  32  35  36
 278 prop tor  35   9  10  11
 279 prop tor  35   9  10  42
 280 prop tor  35  32  33   6
 281 prop tor  35  32  33  34
 282 prop tor  36  12  13  14
 283 prop tor  36  12  13  37
 284 prop tor  36  29  30  31
 285 prop tor  36  29  30  55
 286 prop tor  37  13  14  15
 287 prop tor  37  13  14  44
 288 prop tor  37  28  29  30
 289 prop tor  37  28  29  36
 290 prop tor  38  16  17  18
 291 prop tor  38  16  17  19
 292 prop tor  38  25  26  27
 293 prop tor  38  25  26  53
 294 prop tor  39   1   2   3
 295 ben  39   1  40
 296 ben  39   1  41
 297 prop tor  40   1   2   3
 298 ben  40   1  41
 299 prop tor  41   1   2   3
 300 prop tor  42  10  11  12
 301 prop tor  42  10  11  43
 302 prop tor  43  11  12  13
 303 prop tor  43  11  12  36
 304 prop tor  44  14  15  16
 305 prop tor  44  14  15  45
 306 prop tor  45  15  16  17
 307 prop tor  45  15  16  38
 308 prop tor  46  20  21  47
 309 prop tor  46  20  21  48
 310 prop tor  46  20  21  49
 311 prop tor  46  20  22  50
 312 prop tor  46  20  22  51
 313 prop tor  46  20  22  52
 314 ben  47  21  48
 315 ben  47  21  49
 316 ben  48  21  49
 317 ben  50  22  51
 318 ben  50  22  52
 319 ben  51  22  52
 320 prop tor  53  26  27  28
 321 prop tor  53  26  27  54
 322 prop tor  54  27  28  29
 323 prop tor  54  27  28  37
 324 prop tor  55  30  31  32
 325 prop tor  55  30  31  56
 326 prop tor  56  31  32  33
 327 prop tor  56  31  32  35
 328 lin bend prop tor   2   1   4   3
 329 lin bend prop tor   2   1   4   5
 330 lin bend prop tor  39   1   4   3
 331 lin bend prop tor  39   1   4   5
 332 lin bend prop tor  40   1   4   3
 333 lin bend prop tor  40   1   4   5
 334 lin bend prop tor  41   1   4   3
 335 lin bend prop tor  41   1   4   5
 336 lin bend prop tor   2   3   6   7
 337 lin bend prop tor   2   3   6  33
 nber bend=             110
 nber lin bend=           2
 nber prop tor=         165
 nber impr tor=           0
 nber tot redund int=         337
 Eigenvalues of G in red int coords
    Gval -0.00000000 -0.00000000 -0.00000000 -0.00000000 -0.00000000 -0.00000000 -0.00000000 -0.00000000
    Gval -0.00000000 -0.00000000 -0.00000000 -0.00000000 -0.00000000 -0.00000000 -0.00000000 -0.00000000
    Gval -0.00000000 -0.00000000 -0.00000000 -0.00000000 -0.00000000 -0.00000000 -0.00000000 -0.00000000
    Gval -0.00000000 -0.00000000 -0.00000000 -0.00000000 -0.00000000 -0.00000000 -0.00000000 -0.00000000
    Gval -0.00000000 -0.00000000 -0.00000000 -0.00000000 -0.00000000 -0.00000000 -0.00000000 -0.00000000
    Gval -0.00000000 -0.00000000 -0.00000000 -0.00000000 -0.00000000 -0.00000000 -0.00000000 -0.00000000
    Gval -0.00000000 -0.00000000 -0.00000000 -0.00000000 -0.00000000 -0.00000000 -0.00000000 -0.00000000
    Gval -0.00000000 -0.00000000 -0.00000000 -0.00000000 -0.00000000 -0.00000000 -0.00000000 -0.00000000
    Gval -0.00000000 -0.00000000 -0.00000000 -0.00000000 -0.00000000 -0.00000000 -0.00000000 -0.00000000
    Gval -0.00000000 -0.00000000 -0.00000000 -0.00000000 -0.00000000 -0.00000000 -0.00000000 -0.00000000
    Gval -0.00000000 -0.00000000 -0.00000000 -0.00000000 -0.00000000 -0.00000000 -0.00000000 -0.00000000
    Gval  0.00000000  0.00000000  0.00000000  0.00000000  0.00000000  0.00000000  0.00000000  0.00000000
    Gval  0.00000000  0.00000000  0.00000000  0.00000000  0.00000000  0.00000000  0.00000000  0.00000000
    Gval  0.00000000  0.00000000  0.00000000  0.00000000  0.00000000  0.00000000  0.00000000  0.00000000
    Gval  0.00000000  0.00000000  0.00000000  0.00000000  0.00000000  0.00000000  0.00000000  0.00000000
    Gval  0.00000000  0.00000000  0.00000000  0.00000000  0.00000000  0.00000000  0.00000000  0.00000000
    Gval  0.00000000  0.00000000  0.00000000  0.00000000  0.00000000  0.00000000  0.00000000  0.00000000
    Gval  0.00000000  0.00000000  0.00000000  0.00000000  0.00000000  0.00000000  0.00000000  0.00000000
    Gval  0.00000000  0.00000000  0.00000000  0.00000000  0.00000000  0.00000000  0.00000000  0.00000000
    Gval  0.00000000  0.00000000  0.00000000  0.00000000  0.00000000  0.00000000  0.00000000  0.00000000
    Gval  0.00000000  0.00000000  0.00000000  0.00000000  0.00000000  0.00000000  0.00000000  0.00000000
    Gval  0.00000000  0.00000000  0.00000000  0.00000000  0.00000000  0.00000000  0.00000000  0.00000000
    Gval  0.00000051  0.00000069  0.00000194  0.00000226  0.00000372  0.00000454  0.00000622  0.00000917
    Gval  0.00001105  0.00001117  0.00001264  0.00001472  0.00001647  0.00001704  0.00001754  0.00001833
    Gval  0.00002125  0.00002323  0.00002353  0.00002429  0.00002542  0.00002687  0.00003069  0.00003358
    Gval  0.00003579  0.00003994  0.00004575  0.00004884  0.00005149  0.00005222  0.00005367  0.00005470
    Gval  0.00005864  0.00006245  0.00006449  0.00006892  0.00007272  0.00007521  0.00008139  0.00008249
    Gval  0.00008586  0.00008667  0.00009311  0.00009448  0.00009533  0.00009597  0.00010109  0.00011767
    Gval  0.00012247  0.00013142  0.00013425  0.00013639  0.00013730  0.00014084  0.00015530  0.00015863
    Gval  0.00015937  0.00016847  0.00016863  0.00018152  0.00020033  0.00021197  0.00022226  0.00022928
    Gval  0.00023030  0.00025962  0.00027260  0.00028526  0.00028930  0.00029665  0.00034175  0.00036037
    Gval  0.00037540  0.00038151  0.00038921  0.00038995  0.00039517  0.00041949  0.00042343  0.00043164
    Gval  0.00043512  0.00044059  0.00044189  0.00046220  0.00046320  0.00046895  0.00046898  0.00049498
    Gval  0.00052810  0.00053361  0.00053716  0.00054045  0.00054511  0.00055411  0.00055585  0.00055602
    Gval  0.00055665  0.00056606  0.00058821  0.00059849  0.00059923  0.00059956  0.00059984  0.00060219
    Gval  0.00061041  0.00064074  0.00064423  0.00064499  0.00064681  0.00066921  0.00069087  0.00069275
    Gval  0.00069777  0.00078267  0.00081061  0.00092096  0.00097843  0.00109335  0.00109427  0.00109497
    Gval  0.00109546  0.00114288  0.00116545  0.00116573  0.00116593  0.00116627  0.00117134  0.00117190
    Gval  0.00118680  0.00119231  0.00121193  0.00129546  0.00131879  0.00147952  0.00151471  0.00171402
    Gval  0.00175242  0.00191345  0.00228032  0.00233875  0.00251859  0.00252073  0.00255775  0.00278327
    Gval  0.00278898  0.00292182  0.00295876  0.00302354  0.00304204  0.00308122  0.00309640  0.00367454
    Gval  0.00367632  0.00372127  0.00372299  0.00394546  0.16816672177.69102408877.21036495************
    Gval************
  5.062020521227981E-007  5.062020521227981E-007
  6.923087007718446E-007  5.062020521227981E-007
  1.939611559942740E-006  5.062020521227981E-007
  2.255770963429643E-006  5.062020521227981E-007
  3.715492728504093E-006  5.062020521227981E-007
  4.538668700069718E-006  5.062020521227981E-007
  6.216910191367519E-006  5.062020521227981E-007
  9.172935854146832E-006  5.062020521227981E-007
  1.105133848756658E-005  5.062020521227981E-007
  1.116678857820397E-005  5.062020521227981E-007
  1.264440193709596E-005  5.062020521227981E-007
  1.471548257364300E-005  5.062020521227981E-007
  1.646523087302858E-005  5.062020521227981E-007
  1.703945506962841E-005  5.062020521227981E-007
  1.754446692401980E-005  5.062020521227981E-007
  1.833456636602852E-005  5.062020521227981E-007
  2.124610521794484E-005  5.062020521227981E-007
  2.322877331875642E-005  5.062020521227981E-007
  2.353183596025528E-005  5.062020521227981E-007
  2.429288006267999E-005  5.062020521227981E-007
  2.542088811467058E-005  5.062020521227981E-007
  2.687162367272370E-005  5.062020521227981E-007
  3.069134064733396E-005  5.062020521227981E-007
  3.357895101839781E-005  5.062020521227981E-007
  3.578666458270021E-005  5.062020521227981E-007
  3.993966593552906E-005  5.062020521227981E-007
  4.575451935780848E-005  5.062020521227981E-007
  4.883511819154551E-005  5.062020521227981E-007
  5.148966620559254E-005  5.062020521227981E-007
  5.222232649765911E-005  5.062020521227981E-007
  5.366553020549956E-005  5.062020521227981E-007
  5.469955554121431E-005  5.062020521227981E-007
  5.863598763821402E-005  5.062020521227981E-007
  6.244604418559390E-005  5.062020521227981E-007
  6.448768062375628E-005  5.062020521227981E-007
  6.891525886586178E-005  5.062020521227981E-007
  7.271602942816468E-005  5.062020521227981E-007
  7.520777612490213E-005  5.062020521227981E-007
  8.139490108341084E-005  5.062020521227981E-007
  8.249110957499377E-005  5.062020521227981E-007
  8.586365335019762E-005  5.062020521227981E-007
  8.666712792404721E-005  5.062020521227981E-007
  9.311370591121249E-005  5.062020521227981E-007
  9.447995755428543E-005  5.062020521227981E-007
  9.533360881260149E-005  5.062020521227981E-007
  9.597304780783493E-005  5.062020521227981E-007
  1.010899900160051E-004  5.062020521227981E-007
  1.176695568984323E-004  5.062020521227981E-007
  1.224711030194799E-004  5.062020521227981E-007
  1.314216615760667E-004  5.062020521227981E-007
  1.342516396599923E-004  5.062020521227981E-007
  1.363876123012971E-004  5.062020521227981E-007
  1.372977713944322E-004  5.062020521227981E-007
  1.408401778945764E-004  5.062020521227981E-007
  1.552990439939885E-004  5.062020521227981E-007
  1.586331461650714E-004  5.062020521227981E-007
  1.593688062021114E-004  5.062020521227981E-007
  1.684718493459834E-004  5.062020521227981E-007
  1.686265099583734E-004  5.062020521227981E-007
  1.815192339103263E-004  5.062020521227981E-007
  2.003312829013706E-004  5.062020521227981E-007
  2.119727270679266E-004  5.062020521227981E-007
  2.222608112418304E-004  5.062020521227981E-007
  2.292778421378675E-004  5.062020521227981E-007
  2.302976994415875E-004  5.062020521227981E-007
  2.596212197836240E-004  5.062020521227981E-007
  2.726034413940866E-004  5.062020521227981E-007
  2.852623160922857E-004  5.062020521227981E-007
  2.893042564368518E-004  5.062020521227981E-007
  2.966540170336301E-004  5.062020521227981E-007
  3.417481406469683E-004  5.062020521227981E-007
  3.603652783068146E-004  5.062020521227981E-007
  3.753984780053750E-004  5.062020521227981E-007
  3.815058561336540E-004  5.062020521227981E-007
  3.892084480601527E-004  5.062020521227981E-007
  3.899478238774109E-004  5.062020521227981E-007
  3.951677269821222E-004  5.062020521227981E-007
  4.194881931120814E-004  5.062020521227981E-007
  4.234323378586985E-004  5.062020521227981E-007
  4.316390521603348E-004  5.062020521227981E-007
  4.351166123690308E-004  5.062020521227981E-007
  4.405944401002958E-004  5.062020521227981E-007
  4.418895733693253E-004  5.062020521227981E-007
  4.621953928990199E-004  5.062020521227981E-007
  4.631981065671084E-004  5.062020521227981E-007
  4.689476202474949E-004  5.062020521227981E-007
  4.689756815427340E-004  5.062020521227981E-007
  4.949781333434178E-004  5.062020521227981E-007
  5.281035841935997E-004  5.062020521227981E-007
  5.336094551254888E-004  5.062020521227981E-007
  5.371567220597296E-004  5.062020521227981E-007
  5.404468760453514E-004  5.062020521227981E-007
  5.451111132238213E-004  5.062020521227981E-007
  5.541143936922266E-004  5.062020521227981E-007
  5.558524070442238E-004  5.062020521227981E-007
  5.560178023425936E-004  5.062020521227981E-007
  5.566467021886805E-004  5.062020521227981E-007
  5.660644396967816E-004  5.062020521227981E-007
  5.882057579421551E-004  5.062020521227981E-007
  5.984911566587407E-004  5.062020521227981E-007
  5.992287598115129E-004  5.062020521227981E-007
  5.995620737151796E-004  5.062020521227981E-007
  5.998392042993297E-004  5.062020521227981E-007
  6.021870974852443E-004  5.062020521227981E-007
  6.104067740542908E-004  5.062020521227981E-007
  6.407381111131762E-004  5.062020521227981E-007
  6.442275249689873E-004  5.062020521227981E-007
  6.449930633258958E-004  5.062020521227981E-007
  6.468106333210201E-004  5.062020521227981E-007
  6.692127366827455E-004  5.062020521227981E-007
  6.908685109569552E-004  5.062020521227981E-007
  6.927539030498206E-004  5.062020521227981E-007
  6.977701662010208E-004  5.062020521227981E-007
  7.826663213025015E-004  5.062020521227981E-007
  8.106075440074678E-004  5.062020521227981E-007
  9.209638584692825E-004  5.062020521227981E-007
  9.784333949827584E-004  5.062020521227981E-007
  1.093346986308445E-003  5.062020521227981E-007
  1.094273508957392E-003  5.062020521227981E-007
  1.094972453767601E-003  5.062020521227981E-007
  1.095463906256268E-003  5.062020521227981E-007
  1.142875099366507E-003  5.062020521227981E-007
  1.165452155108995E-003  5.062020521227981E-007
  1.165725942992608E-003  5.062020521227981E-007
  1.165933483913055E-003  5.062020521227981E-007
  1.166270257271841E-003  5.062020521227981E-007
  1.171344122324113E-003  5.062020521227981E-007
  1.171904086197193E-003  5.062020521227981E-007
  1.186798883672572E-003  5.062020521227981E-007
  1.192312618734138E-003  5.062020521227981E-007
  1.211926536903507E-003  5.062020521227981E-007
  1.295464640575352E-003  5.062020521227981E-007
  1.318792918461064E-003  5.062020521227981E-007
  1.479523800867051E-003  5.062020521227981E-007
  1.514708824675307E-003  5.062020521227981E-007
  1.714018037901415E-003  5.062020521227981E-007
  1.752420639738967E-003  5.062020521227981E-007
  1.913451002328198E-003  5.062020521227981E-007
  2.280321605396065E-003  5.062020521227981E-007
  2.338752697181263E-003  5.062020521227981E-007
  2.518591835262524E-003  5.062020521227981E-007
  2.520734640938824E-003  5.062020521227981E-007
  2.557748194071282E-003  5.062020521227981E-007
  2.783268503997699E-003  5.062020521227981E-007
  2.788983768420036E-003  5.062020521227981E-007
  2.921824798737975E-003  5.062020521227981E-007
  2.958764633667014E-003  5.062020521227981E-007
  3.023544775125937E-003  5.062020521227981E-007
  3.042038016015991E-003  5.062020521227981E-007
  3.081222027545767E-003  5.062020521227981E-007
  3.096395260862672E-003  5.062020521227981E-007
  3.674538339410601E-003  5.062020521227981E-007
  3.676318712495239E-003  5.062020521227981E-007
  3.721267112937993E-003  5.062020521227981E-007
  3.722994279109727E-003  5.062020521227981E-007
  3.945458471415871E-003  5.062020521227981E-007
  0.168166717370017       5.062020521227981E-007
   177.691024075833       5.062020521227981E-007
   877.210364953535       5.062020521227981E-007
   4033.64663726221       5.062020521227981E-007
   19010.0105147408       5.062020521227981E-007
 cut=1d-8, nber non-redundant internal coords=         161
 Check on Eigenvals of non-red overlap matrix:
  0.00000051  0.00000069  0.00000194  0.00000226  0.00000372  0.00000454  0.00000622  0.00000917
  0.00001105  0.00001117  0.00001264  0.00001472  0.00001647  0.00001704  0.00001754  0.00001833
  0.00002125  0.00002323  0.00002353  0.00002429  0.00002542  0.00002687  0.00003069  0.00003358
  0.00003579  0.00003994  0.00004575  0.00004884  0.00005149  0.00005222  0.00005367  0.00005470
  0.00005864  0.00006245  0.00006449  0.00006892  0.00007272  0.00007521  0.00008139  0.00008249
  0.00008586  0.00008667  0.00009311  0.00009448  0.00009533  0.00009597  0.00010109  0.00011767
  0.00012247  0.00013142  0.00013425  0.00013639  0.00013730  0.00014084  0.00015530  0.00015863
  0.00015937  0.00016847  0.00016863  0.00018152  0.00020033  0.00021197  0.00022226  0.00022928
  0.00023030  0.00025962  0.00027260  0.00028526  0.00028930  0.00029665  0.00034175  0.00036037
  0.00037540  0.00038151  0.00038921  0.00038995  0.00039517  0.00041949  0.00042343  0.00043164
  0.00043512  0.00044059  0.00044189  0.00046220  0.00046320  0.00046895  0.00046898  0.00049498
  0.00052810  0.00053361  0.00053716  0.00054045  0.00054511  0.00055411  0.00055585  0.00055602
  0.00055665  0.00056606  0.00058821  0.00059849  0.00059923  0.00059956  0.00059984  0.00060219
  0.00061041  0.00064074  0.00064423  0.00064499  0.00064681  0.00066921  0.00069087  0.00069275
  0.00069777  0.00078267  0.00081061  0.00092096  0.00097843  0.00109335  0.00109427  0.00109497
  0.00109546  0.00114288  0.00116545  0.00116573  0.00116593  0.00116627  0.00117134  0.00117190
  0.00118680  0.00119231  0.00121193  0.00129546  0.00131879  0.00147952  0.00151471  0.00171402
  0.00175242  0.00191345  0.00228032  0.00233875  0.00251859  0.00252073  0.00255775  0.00278327
  0.00278898  0.00292182  0.00295876  0.00302354  0.00304204  0.00308122  0.00309640  0.00367454
  0.00367632  0.00372127  0.00372299  0.00394546  0.16816672177.69102408877.21036495************
************
 Checking for correct frequencies
 recalc frequencies=
    -0.0   -0.0   -0.0    0.0    0.0    0.0    0.0   13.5   25.1   28.5
    30.7   54.0   58.2   75.7   86.1   90.0  101.8  102.0  137.3  162.0
   167.7  171.3  183.7  200.9  203.9  214.8  234.2  235.3  255.8  259.8
   280.0  297.8  301.3  310.8  318.1  325.8  351.2  389.3  391.7  416.9
   425.1  432.2  436.3  438.2  447.3  450.2  464.7  473.8  484.1  498.9
   501.4  505.6  508.0  510.3  544.7  550.4  573.2  574.1  578.2  604.2
   615.8  635.1  651.8  671.5  678.2  704.5  710.4  714.5  727.4  746.4
   757.4  757.8  764.1  800.8  809.2  810.5  814.6  823.0  826.3  832.0
   844.6  901.5  915.6  931.9  945.4  951.6  956.8  975.1  976.9  988.2
   989.0 1006.7 1046.4 1047.6 1061.7 1088.2 1096.7 1110.1 1137.0 1155.5
  1161.5 1169.7 1185.0 1187.3 1196.5 1200.7 1224.7 1232.8 1242.8 1256.6
  1289.7 1304.7 1319.0 1331.4 1350.4 1366.0 1371.1 1382.0 1391.2 1397.7
  1400.4 1404.6 1416.5 1417.3 1430.2 1438.4 1444.0 1459.4 1467.8 1472.6
  1474.5 1485.0 1491.5 1497.7 1505.1 1511.5 1522.4 1546.3 1554.5 1573.0
  1584.4 1599.0 1599.2 1621.9 1686.2 1725.9 1727.7 1758.9 2280.9 2369.8
  3017.6 3034.5 3038.6 3075.0 3076.6 3092.5 3095.7 3112.6 3132.5 3142.8
  3198.8 3199.1 3205.3 3205.5 3213.4 3213.5 3225.1 3225.3
 recalc symmetries=
                                                                       
                                                                       
                                                                       
                                                                       
                                                                       
                                                                       
                                                                       
                                                                       
                                                                       
                                                                       
                                                                       
                                                                       
                                                                       
                                                                       
                                                                       
                                                                       
                                                         
 recalc freqs check OK
 Zero-point lengths:
 10.0000 10.0000 10.0000 10.0000 10.0000 10.0000 10.0000 67.5014 49.4490 46.4006
 44.7474 33.7221 32.5016 28.4916 26.7201 26.1392 24.5728 24.5437 21.1542 19.4787
 19.1415 18.9429 18.2887 17.4927 17.3625 16.9166 16.1999 16.1628 15.5001 15.3814
 14.8166 14.3655 14.2813 14.0623 13.8999 13.7356 13.2282 12.5644 12.5269 12.1411
 12.0243 11.9251 11.8684 11.8427 11.7222 11.6842 11.4999 11.3897 11.2677 11.0988
 11.0717 11.0257 10.9989 10.9744 10.6225 10.5675 10.3552 10.3468 10.3102 10.0861
  9.9905  9.8369  9.7106  9.5670  9.5198  9.3399  9.3013  9.2749  9.1917  9.0745
  9.0081  9.0055  8.9685  8.7605  8.7152  8.7082  8.6859  8.6417  8.6241  8.5947
  8.5306  8.2568  8.1929  8.1208  8.0627  8.0367  8.0149  7.9389  7.9320  7.8861
  7.8833  7.8137  7.6637  7.6596  7.6085  7.5154  7.4861  7.4407  7.3523  7.2929
  7.2741  7.2488  7.2017  7.1949  7.1672  7.1544  7.0841  7.0609  7.0321  6.9934
  6.9032  6.8635  6.8260  6.7943  6.7462  6.7076  6.6951  6.6688  6.6467  6.6312
  6.6248  6.6149  6.5870  6.5850  6.5553  6.5367  6.5241  6.4895  6.4709  6.4602
  6.4562  6.4332  6.4192  6.4060  6.3902  6.3766  6.3537  6.3044  6.2878  6.2508
  6.2283  6.1997  6.1992  6.1557  6.0373  5.9675  5.9644  5.9112  5.1910  5.0926
  4.5130  4.5004  4.4974  4.4706  4.4695  4.4580  4.4557  4.4436  4.4295  4.4222
  4.3833  4.3831  4.3789  4.3787  4.3734  4.3733  4.3654  4.3653
 highest evec of mol 1
 -0.0000  0.0000 -0.0000
 -0.0000  0.0000 -0.0000
  0.0000  0.0000  0.0000
  0.0000  0.0000  0.0000
 -0.0001 -0.0000  0.0000
  0.0004  0.0000  0.0000
 -0.0004 -0.0007  0.0001
  0.0000  0.0004 -0.0001
 -0.0017  0.0027 -0.0004
 -0.0380 -0.0535  0.0063
  0.0800 -0.1405  0.0198
  0.0028  0.0024 -0.0003
 -0.0026  0.0019 -0.0003
 -0.0723 -0.1313  0.0158
  0.0360 -0.0498  0.0072
  0.0015  0.0025 -0.0003
  0.0005 -0.0008  0.0001
  0.0000  0.0004 -0.0001
 -0.0004  0.0000 -0.0000
  0.0002  0.0001 -0.0000
  0.0000  0.0000  0.0000
  0.0000  0.0000 -0.0000
  0.0004  0.0005 -0.0001
 -0.0000 -0.0003  0.0000
  0.0010 -0.0017  0.0002
  0.0242  0.0345 -0.0041
 -0.0485  0.0863 -0.0122
 -0.0018 -0.0013  0.0001
  0.0020 -0.0016  0.0002
  0.0518  0.0933 -0.0112
 -0.0253  0.0351 -0.0050
 -0.0010 -0.0018  0.0002
 -0.0004  0.0004 -0.0001
  0.0000 -0.0003  0.0000
 -0.0002  0.0001 -0.0000
 -0.0002  0.0004 -0.0001
  0.0001  0.0003 -0.0000
  0.0002  0.0001 -0.0000
  0.0000  0.0001 -0.0000
  0.0001 -0.0000  0.0001
  0.0001 -0.0001 -0.0000
  0.1066  0.1748 -0.0208
 -0.2665  0.4739 -0.0666
  0.2420  0.4434 -0.0535
 -0.1022  0.1630 -0.0233
 -0.0002 -0.0004  0.0001
  0.0000 -0.0000  0.0000
  0.0000 -0.0001 -0.0001
 -0.0003 -0.0000 -0.0000
  0.0000 -0.0000 -0.0000
 -0.0003 -0.0000  0.0000
  0.0000 -0.0000  0.0001
 -0.0690 -0.1126  0.0135
  0.1624 -0.2912  0.0412
 -0.1729 -0.3147  0.0378
  0.0714 -0.1146  0.0162
 generating redundant internal coords
         300        3600          56
 Adding extra bonds for z output only
           6           6           6           6           6           7
           6           8           6           6           6           6
           6           6           6           6           6           8
           7           6           6           6           6           8
           6           6           6           6           6           6
           6           6           6           8           6           6
           6           6           1           1           1           1
           1           1           1           1           1           1
           1           1           1           1           1           1
           1           1
 search for int coords
   1 str   2   1   1.453
   2 str   3   2   1.210
   3 str   4   3   1.361
   4 str   5   4   1.208
   5 str   6   5   1.353
   6 str   7   6   1.431
   7 str   8   7   1.211
   8 str   9   7   1.471
   9 str  10   9   1.401
  10 str  11  10   1.379
  11 str  12  11   1.422
  12 str  13  12   1.441
  13 str  14  13   1.423
  14 str  15  14   1.380
  15 str  16  15   1.400
  16 str  17  16   1.479
  17 str  18  17   1.222
  18 str  19  17   1.400
  19 str  20  19   1.498
  20 str  21  20   1.532
  21 str  22  20   1.532
  22 str  23  19   1.407
  23 str  24  23   1.221
  24 str  25  23   1.478
  25 str  26  25   1.400
  26 str  27  26   1.380
  27 str  28  27   1.422
  28 str  29  28   1.441
  29 str  30  29   1.422
  30 str  31  30   1.379
  31 str  32  31   1.401
  32 str  33   6   1.432
  33 str  33  32   1.471
  34 str  34  33   1.211
  35 str  35   9   1.414
  36 str  35  32   1.414
  37 str  36  12   1.428
  38 str  36  29   1.428
  39 str  36  35   1.430
  40 str  37  13   1.426
  41 str  37  28   1.426
  42 str  38  16   1.410
  43 str  38  25   1.410
  44 str  38  37   1.428
  45 str  39   1   1.094
  46 str  40   1   1.094
  47 str  41   1   1.094
  48 str  42  10   1.082
  49 str  43  11   1.081
  50 str  44  14   1.081
  51 str  45  15   1.082
  52 str  46  20   1.088
  53 str  47  21   1.089
  54 str  48  21   1.093
  55 str  49  21   1.093
  56 str  50  22   1.089
  57 str  51  22   1.093
  58 str  52  22   1.093
  59 str  53  26   1.082
  60 str  54  27   1.081
  61 str  55  30   1.081
  62 str  56  31   1.082
 nber stretches=          62
  63 lin ben   1   2   3
  65 ben   2   1  39
  66 ben   2   1  40
  67 ben   2   1  41
 Extend lin bond           1           1           2           4
  68 lin ben   2   3   4
  70 lin ben   3   4   5
 Extend lin bond           2           3           4           6
  72 lin ben   4   5   6
  74 ben   5   6   7
  75 prop tor   5   6   7   8
  76 prop tor   5   6   7   9
  77 ben   5   6  33
  78 prop tor   5   6  33  32
  79 prop tor   5   6  33  34
  80 ben   6   7   8
  81 ben   6   7   9
  82 prop tor   6   7   9  10
  83 prop tor   6   7   9  35
  84 ben   6  33  32
  85 ben   6  33  34
  86 ben   7   6  33
  87 prop tor   7   6  33  32
  88 prop tor   7   6  33  34
  89 ben   7   9  10
  90 prop tor   7   9  10  11
  91 prop tor   7   9  10  42
  92 ben   7   9  35
  93 prop tor   7   9  35  32
  94 prop tor   7   9  35  36
  95 ben   8   7   9
  96 prop tor   8   7   9  10
  97 prop tor   8   7   9  35
  98 ben   9  10  11
  99 prop tor   9  10  11  12
 100 prop tor   9  10  11  43
 101 ben   9  10  42
 102 ben   9  35  32
 103 ben   9  35  36
 104 prop tor   9  35  36  12
 105 prop tor   9  35  36  29
 106 ben  10   9  35
 107 prop tor  10   9  35  32
 108 prop tor  10   9  35  36
 109 ben  10  11  12
 110 prop tor  10  11  12  13
 111 prop tor  10  11  12  36
 112 ben  10  11  43
 113 ben  11  10  42
 114 ben  11  12  13
 115 prop tor  11  12  13  14
 116 prop tor  11  12  13  37
 117 ben  11  12  36
 118 prop tor  11  12  36  29
 119 prop tor  11  12  36  35
 120 ben  12  11  43
 121 ben  12  13  14
 122 prop tor  12  13  14  15
 123 prop tor  12  13  14  44
 124 ben  12  13  37
 125 prop tor  12  13  37  28
 126 prop tor  12  13  37  38
 127 ben  12  36  29
 128 ben  12  36  35
 129 ben  13  12  36
 130 prop tor  13  12  36  29
 131 prop tor  13  12  36  35
 132 ben  13  14  15
 133 prop tor  13  14  15  16
 134 prop tor  13  14  15  45
 135 ben  13  14  44
 136 ben  13  37  28
 137 ben  13  37  38
 138 prop tor  13  37  38  16
 139 prop tor  13  37  38  25
 140 ben  14  13  37
 141 prop tor  14  13  37  28
 142 prop tor  14  13  37  38
 143 ben  14  15  16
 144 prop tor  14  15  16  17
 145 prop tor  14  15  16  38
 146 ben  14  15  45
 147 ben  15  14  44
 148 ben  15  16  17
 149 prop tor  15  16  17  18
 150 prop tor  15  16  17  19
 151 ben  15  16  38
 152 prop tor  15  16  38  25
 153 prop tor  15  16  38  37
 154 ben  16  15  45
 155 ben  16  17  18
 156 ben  16  17  19
 157 prop tor  16  17  19  20
 158 prop tor  16  17  19  23
 159 ben  16  38  25
 160 ben  16  38  37
 161 ben  17  16  38
 162 prop tor  17  16  38  25
 163 prop tor  17  16  38  37
 164 ben  17  19  20
 165 prop tor  17  19  20  21
 166 prop tor  17  19  20  22
 167 prop tor  17  19  20  46
 168 ben  17  19  23
 169 prop tor  17  19  23  24
 170 prop tor  17  19  23  25
 171 ben  18  17  19
 172 prop tor  18  17  19  20
 173 prop tor  18  17  19  23
 174 ben  19  20  21
 175 prop tor  19  20  21  47
 176 prop tor  19  20  21  48
 177 prop tor  19  20  21  49
 178 ben  19  20  22
 179 prop tor  19  20  22  50
 180 prop tor  19  20  22  51
 181 prop tor  19  20  22  52
 182 ben  19  20  46
 183 ben  19  23  24
 184 ben  19  23  25
 185 prop tor  19  23  25  26
 186 prop tor  19  23  25  38
 187 ben  20  19  23
 188 prop tor  20  19  23  24
 189 prop tor  20  19  23  25
 190 ben  20  21  47
 191 ben  20  21  48
 192 ben  20  21  49
 193 ben  20  22  50
 194 ben  20  22  51
 195 ben  20  22  52
 196 ben  21  20  22
 197 prop tor  21  20  22  50
 198 prop tor  21  20  22  51
 199 prop tor  21  20  22  52
 200 ben  21  20  46
 201 prop tor  22  20  21  47
 202 prop tor  22  20  21  48
 203 prop tor  22  20  21  49
 204 ben  22  20  46
 205 prop tor  23  19  20  21
 206 prop tor  23  19  20  22
 207 prop tor  23  19  20  46
 208 ben  23  25  26
 209 prop tor  23  25  26  27
 210 prop tor  23  25  26  53
 211 ben  23  25  38
 212 prop tor  23  25  38  16
 213 prop tor  23  25  38  37
 214 ben  24  23  25
 215 prop tor  24  23  25  26
 216 prop tor  24  23  25  38
 217 ben  25  26  27
 218 prop tor  25  26  27  28
 219 prop tor  25  26  27  54
 220 ben  25  26  53
 221 ben  25  38  37
 222 ben  26  25  38
 223 prop tor  26  25  38  16
 224 prop tor  26  25  38  37
 225 ben  26  27  28
 226 prop tor  26  27  28  29
 227 prop tor  26  27  28  37
 228 ben  26  27  54
 229 ben  27  26  53
 230 ben  27  28  29
 231 prop tor  27  28  29  30
 232 prop tor  27  28  29  36
 233 ben  27  28  37
 234 prop tor  27  28  37  13
 235 prop tor  27  28  37  38
 236 ben  28  27  54
 237 ben  28  29  30
 238 prop tor  28  29  30  31
 239 prop tor  28  29  30  55
 240 ben  28  29  36
 241 prop tor  28  29  36  12
 242 prop tor  28  29  36  35
 243 ben  28  37  38
 244 prop tor  28  37  38  16
 245 prop tor  28  37  38  25
 246 ben  29  28  37
 247 prop tor  29  28  37  13
 248 prop tor  29  28  37  38
 249 ben  29  30  31
 250 prop tor  29  30  31  32
 251 prop tor  29  30  31  56
 252 ben  29  30  55
 253 ben  29  36  35
 254 ben  30  29  36
 255 prop tor  30  29  36  12
 256 prop tor  30  29  36  35
 257 ben  30  31  32
 258 prop tor  30  31  32  33
 259 prop tor  30  31  32  35
 260 ben  30  31  56
 261 ben  31  30  55
 262 ben  31  32  33
 263 prop tor  31  32  33   6
 264 prop tor  31  32  33  34
 265 ben  31  32  35
 266 prop tor  31  32  35   9
 267 prop tor  31  32  35  36
 268 ben  32  31  56
 269 ben  32  33  34
 270 ben  32  35  36
 271 prop tor  32  35  36  12
 272 prop tor  32  35  36  29
 273 prop tor  33   6   7   8
 274 prop tor  33   6   7   9
 275 ben  33  32  35
 276 prop tor  33  32  35   9
 277 prop tor  33  32  35  36
 278 prop tor  35   9  10  11
 279 prop tor  35   9  10  42
 280 prop tor  35  32  33   6
 281 prop tor  35  32  33  34
 282 prop tor  36  12  13  14
 283 prop tor  36  12  13  37
 284 prop tor  36  29  30  31
 285 prop tor  36  29  30  55
 286 prop tor  37  13  14  15
 287 prop tor  37  13  14  44
 288 prop tor  37  28  29  30
 289 prop tor  37  28  29  36
 290 prop tor  38  16  17  18
 291 prop tor  38  16  17  19
 292 prop tor  38  25  26  27
 293 prop tor  38  25  26  53
 294 prop tor  39   1   2   3
 295 ben  39   1  40
 296 ben  39   1  41
 297 prop tor  40   1   2   3
 298 ben  40   1  41
 299 prop tor  41   1   2   3
 300 prop tor  42  10  11  12
 301 prop tor  42  10  11  43
 302 prop tor  43  11  12  13
 303 prop tor  43  11  12  36
 304 prop tor  44  14  15  16
 305 prop tor  44  14  15  45
 306 prop tor  45  15  16  17
 307 prop tor  45  15  16  38
 308 prop tor  46  20  21  47
 309 prop tor  46  20  21  48
 310 prop tor  46  20  21  49
 311 prop tor  46  20  22  50
 312 prop tor  46  20  22  51
 313 prop tor  46  20  22  52
 314 ben  47  21  48
 315 ben  47  21  49
 316 ben  48  21  49
 317 ben  50  22  51
 318 ben  50  22  52
 319 ben  51  22  52
 320 prop tor  53  26  27  28
 321 prop tor  53  26  27  54
 322 prop tor  54  27  28  29
 323 prop tor  54  27  28  37
 324 prop tor  55  30  31  32
 325 prop tor  55  30  31  56
 326 prop tor  56  31  32  33
 327 prop tor  56  31  32  35
 328 lin bend prop tor   2   1   4   3
 329 lin bend prop tor   2   1   4   5
 330 lin bend prop tor  39   1   4   3
 331 lin bend prop tor  39   1   4   5
 332 lin bend prop tor  40   1   4   3
 333 lin bend prop tor  40   1   4   5
 334 lin bend prop tor  41   1   4   3
 335 lin bend prop tor  41   1   4   5
 336 lin bend prop tor   2   3   6   7
 337 lin bend prop tor   2   3   6  33
 nber bend=             110
 nber lin bend=           2
 nber prop tor=         165
 nber impr tor=           0
 nber tot redund int=         337
 Reading file: 
 ./PDI_6_C-1S0.log                                                              
                                          
  Entering Gaussian System, Link 0=g16                                          
  
 Gaussian format, type: g94, g98, g03= F F F
  #P Geom=AllCheck Guess=TCheck SCRF=Check GenChk UB3LYP/6-311G(d,p) Fre    
 energy type= B3LYP   
 Original G94 input coords:
  6  1.341643  0.030610 -0.084187
  6  2.795480  0.041550 -0.058450
  6  4.006366  0.049797 -0.037676
  6  5.367500  0.058963 -0.014339
  6  6.576550  0.066971  0.006367
  7  7.924001  0.075594  0.029703
  6  8.590513 -1.192636  0.205435
  8  7.922943 -2.203820  0.323573
  6 10.043981 -1.131731  0.224206
  6 10.762938 -2.322676  0.391250
  6 12.139717 -2.321599  0.416409
  6 12.887143 -1.128134  0.275889
  6 14.334311 -1.118913  0.301538
  6 15.096917 -2.298904  0.468732
  6 16.476498 -2.277998  0.491811
  6 17.178721 -1.077048  0.349126
  6 18.642233 -1.092005  0.378771
  8 19.291263 -2.126481  0.525640
  7 19.296555  0.144414  0.230524
  6 20.784099  0.183881  0.254277
  6 21.348457 -0.251009  1.612264
  6 21.398014 -0.580419 -0.924993
  6 18.631298  1.381528  0.056929
  8 19.271316  2.423097 -0.066497
  6 17.169129  1.346827  0.034053
  6 16.456437  2.538748 -0.134024
  6 15.076921  2.541743 -0.159792
  6 14.323967  1.351973 -0.019044
  6 12.876977  1.342706 -0.044079
  6 12.119651  2.526583 -0.210771
  6 10.742960  2.510037 -0.233564
  6 10.033864  1.309935 -0.091415
  6  8.580011  1.352286 -0.123159
  8  7.904042  2.354844 -0.264812
  6 10.740601  0.093569  0.078591
  6 12.178781  0.102747  0.103629
  6 15.029141  0.121073  0.153605
  6 16.464687  0.130294  0.179019
  1  0.958676 -0.982852 -0.244215
  1  0.953967  0.661459 -0.891199
  1  0.920909  0.399190  0.857542
  1 10.203208 -3.243484  0.499954
  1 12.651475 -3.264760  0.547682
  1 14.597191 -3.250881  0.582877
  1 17.047256 -3.189364  0.620737
  1 21.004540  1.241195  0.121299
  1 21.159803 -1.307199  1.800305
  1 20.900292  0.337279  2.417582
  1 22.428808 -0.074401  1.628744
  1 21.212009 -1.650623 -0.844063
  1 22.478986 -0.407976 -0.944758
  1 20.983707 -0.219817 -1.870396
  1 17.018818  3.457828 -0.243070
  1 14.569383  3.487216 -0.292015
  1 12.623540  3.476280 -0.324170
  1 10.175613  3.423644 -0.361793
 nber atoms=          56
  SCF Done:  E(UB3LYP) =  -1641.15326716     A.U. after    1 cycles             
  
          23          40 "  -1641.15326716"
After scan for Atom:   Atom  AN      X      Y      Z        X      Y      Z        X      Y      Z   
After scan for Atom:   Atom  AN      X      Y      Z        X      Y      Z        X      Y      Z   
After scan for Atom:   Atom  AN      X      Y      Z        X      Y      Z        X      Y      Z   
After scan for Atom:   Atom  AN      X      Y      Z        X      Y      Z        X      Y      Z   
After scan for Atom:   Atom  AN      X      Y      Z        X      Y      Z        X      Y      Z   
After scan for Atom:   Atom  AN      X      Y      Z        X      Y      Z        X      Y      Z   
After scan for Atom:   Atom  AN      X      Y      Z        X      Y      Z        X      Y      Z   
After scan for Atom:   Atom  AN      X      Y      Z        X      Y      Z        X      Y      Z   
After scan for Atom:   Atom  AN      X      Y      Z        X      Y      Z        X      Y      Z   
After scan for Atom:   Atom  AN      X      Y      Z        X      Y      Z        X      Y      Z   
After scan for Atom:   Atom  AN      X      Y      Z        X      Y      Z        X      Y      Z   
After scan for Atom:   Atom  AN      X      Y      Z        X      Y      Z        X      Y      Z   
After scan for Atom:   Atom  AN      X      Y      Z        X      Y      Z        X      Y      Z   
After scan for Atom:   Atom  AN      X      Y      Z        X      Y      Z        X      Y      Z   
After scan for Atom:   Atom  AN      X      Y      Z        X      Y      Z        X      Y      Z   
After scan for Atom:   Atom  AN      X      Y      Z        X      Y      Z        X      Y      Z   
After scan for Atom:   Atom  AN      X      Y      Z        X      Y      Z        X      Y      Z   
After scan for Atom:   Atom  AN      X      Y      Z        X      Y      Z        X      Y      Z   
After scan for Atom:   Atom  AN      X      Y      Z        X      Y      Z        X      Y      Z   
After scan for Atom:   Atom  AN      X      Y      Z        X      Y      Z        X      Y      Z   
After scan for Atom:   Atom  AN      X      Y      Z        X      Y      Z        X      Y      Z   
After scan for Atom:   Atom  AN      X      Y      Z        X      Y      Z        X      Y      Z   
After scan for Atom:   Atom  AN      X      Y      Z        X      Y      Z        X      Y      Z   
After scan for Atom:   Atom  AN      X      Y      Z        X      Y      Z        X      Y      Z   
After scan for Atom:   Atom  AN      X      Y      Z        X      Y      Z        X      Y      Z   
After scan for Atom:   Atom  AN      X      Y      Z        X      Y      Z        X      Y      Z   
After scan for Atom:   Atom  AN      X      Y      Z        X      Y      Z        X      Y      Z   
After scan for Atom:   Atom  AN      X      Y      Z        X      Y      Z        X      Y      Z   
After scan for Atom:   Atom  AN      X      Y      Z        X      Y      Z        X      Y      Z   
After scan for Atom:   Atom  AN      X      Y      Z        X      Y      Z        X      Y      Z   
After scan for Atom:   Atom  AN      X      Y      Z        X      Y      Z        X      Y      Z   
After scan for Atom:   Atom  AN      X      Y      Z        X      Y      Z        X      Y      Z   
After scan for Atom:   Atom  AN      X      Y      Z        X      Y      Z        X      Y      Z   
After scan for Atom:   Atom  AN      X      Y      Z        X      Y      Z        X      Y      Z   
After scan for Atom:   Atom  AN      X      Y      Z        X      Y      Z        X      Y      Z   
After scan for Atom:   Atom  AN      X      Y      Z        X      Y      Z        X      Y      Z   
After scan for Atom:   Atom  AN      X      Y      Z        X      Y      Z        X      Y      Z   
After scan for Atom:   Atom  AN      X      Y      Z        X      Y      Z        X      Y      Z   
After scan for Atom:   Atom  AN      X      Y      Z        X      Y      Z        X      Y      Z   
After scan for Atom:   Atom  AN      X      Y      Z        X      Y      Z        X      Y      Z   
After scan for Atom:   Atom  AN      X      Y      Z        X      Y      Z        X      Y      Z   
After scan for Atom:   Atom  AN      X      Y      Z        X      Y      Z        X      Y      Z   
After scan for Atom:   Atom  AN      X      Y      Z        X      Y      Z        X      Y      Z   
After scan for Atom:   Atom  AN      X      Y      Z        X      Y      Z        X      Y      Z   
After scan for Atom:   Atom  AN      X      Y      Z        X      Y      Z        X      Y      Z   
After scan for Atom:   Atom  AN      X      Y      Z        X      Y      Z        X      Y      Z   
After scan for Atom:   Atom  AN      X      Y      Z        X      Y      Z        X      Y      Z   
After scan for Atom:   Atom  AN      X      Y      Z        X      Y      Z        X      Y      Z   
After scan for Atom:   Atom  AN      X      Y      Z        X      Y      Z        X      Y      Z   
After scan for Atom:   Atom  AN      X      Y      Z        X      Y      Z        X      Y      Z   
After scan for Atom:   Atom  AN      X      Y      Z        X      Y      Z        X      Y      Z   
After scan for Atom:   Atom  AN      X      Y      Z        X      Y      Z        X      Y      Z   
After scan for Atom:   Atom  AN      X      Y      Z        X      Y      Z        X      Y      Z   
After scan for Atom:   Atom  AN      X      Y      Z        X      Y      Z        X      Y      Z   
 g94    frequencies=
     0.0    0.0    0.0    0.0    0.0    0.0    2.0   14.0   24.5   26.6
    31.5   56.5   60.5   79.6   87.4   92.5  104.5  106.2  140.0  162.7
   170.9  172.3  196.6  204.6  205.4  217.6  233.9  234.5  261.5  264.1
   281.4  286.4  299.9  307.7  310.9  344.0  357.7  390.6  392.4  417.5
   429.6  435.5  442.6  452.2  453.8  459.0  465.8  470.6  498.5  505.2
   509.6  512.4  516.6  529.1  542.5  547.7  579.4  582.3  592.4  622.6
   625.2  655.3  663.6  676.3  714.2  718.2  730.2  746.3  748.2  750.1
   765.0  780.1  800.2  803.9  810.0  811.7  818.9  825.2  827.6  830.6
   846.3  906.0  919.5  942.0  953.7  956.7  964.9  968.5  973.4  977.8
   981.3 1013.8 1047.4 1048.8 1062.5 1074.0 1083.1 1096.1 1145.1 1154.4
  1159.0 1173.6 1177.0 1184.9 1195.7 1199.5 1224.4 1233.9 1244.5 1254.5
  1284.1 1296.7 1313.3 1327.5 1354.2 1360.4 1368.8 1383.1 1387.1 1387.8
  1394.2 1396.5 1406.5 1416.6 1421.4 1433.7 1461.1 1467.6 1472.5 1476.2
  1478.8 1481.2 1482.5 1493.7 1507.4 1523.9 1530.1 1561.6 1571.8 1575.4
  1589.5 1608.9 1616.9 1627.4 1666.8 1703.9 1712.2 1745.3 2275.2 2362.6
  3005.9 3022.5 3027.9 3057.1 3060.3 3080.7 3083.7 3104.5 3129.4 3138.5
  3183.3 3183.5 3190.5 3190.7 3200.4 3200.7 3213.5 3213.8
 g94    symmetries=
                                                 A      A      A      A
       A      A      A      A      A      A      A      A      A      A
       A      A      A      A      A      A      A      A      A      A
       A      A      A      A      A      A      A      A      A      A
       A      A      A      A      A      A      A      A      A      A
       A      A      A      A      A      A      A      A      A      A
       A      A      A      A      A      A      A      A      A      A
       A      A      A      A      A      A      A      A      A      A
       A      A      A      A      A      A      A      A      A      A
       A      A      A      A      A      A      A      A      A      A
       A      A      A      A      A      A      A      A      A      A
       A      A      A      A      A      A      A      A      A      A
       A      A      A      A      A      A      A      A      A      A
       A      A      A      A      A      A      A      A      A      A
       A      A      A      A      A      A      A      A      A      A
       A      A      A      A      A      A      A      A      A      A
       A      A      A      A      A      A      A      A
 atomic masses:
 12.0000 12.0000 12.0000 12.0000 12.0000 14.0031 12.0000 15.9949 12.0000 12.0000
 12.0000 12.0000 12.0000 12.0000 12.0000 12.0000 12.0000 15.9949 14.0031 12.0000
 12.0000 12.0000 12.0000 15.9949 12.0000 12.0000 12.0000 12.0000 12.0000 12.0000
 12.0000 12.0000 12.0000 15.9949 12.0000 12.0000 12.0000 12.0000  1.0078  1.0078
  1.0078  1.0078  1.0078  1.0078  1.0078  1.0078  1.0078  1.0078  1.0078  1.0078
  1.0078  1.0078  1.0078  1.0078  1.0078  1.0078
 looking for force constants in 
 ./PDI_6_C-1S0.fchk                                                             
  
 Cartesian Force Constants                  R   N=       14196                  
  
 n3=         168       14196
 g94-fc frequencies=
    -1.5   -0.8   -0.0    0.0    0.0    2.1    3.4   14.0   24.5   26.6
    31.5   56.5   60.5   79.6   87.4   92.5  104.5  106.2  140.0  162.7
   170.9  172.3  196.6  204.6  205.4  217.6  233.9  234.6  261.5  264.1
   281.4  286.4  299.9  307.7  310.9  344.0  357.7  390.6  392.4  417.5
   429.6  435.5  442.6  452.2  453.8  459.0  465.8  470.6  498.5  505.2
   509.6  512.4  516.6  529.1  542.5  547.7  579.4  582.4  592.4  622.7
   625.2  655.3  663.6  676.3  714.3  718.2  730.2  746.3  748.2  750.1
   765.0  780.1  800.2  803.9  810.0  811.7  818.9  825.2  827.6  830.6
   846.3  906.0  919.5  942.0  953.7  956.7  965.0  968.5  973.4  977.8
   981.3 1013.8 1047.4 1048.8 1062.5 1074.0 1083.2 1096.1 1145.1 1154.4
  1159.0 1173.6 1177.0 1184.9 1195.8 1199.5 1224.4 1234.0 1244.5 1254.6
  1284.1 1296.7 1313.4 1327.5 1354.2 1360.5 1368.9 1383.1 1387.1 1387.8
  1394.3 1396.5 1406.6 1416.6 1421.5 1433.8 1461.1 1467.7 1472.5 1476.3
  1478.8 1481.2 1482.5 1493.8 1507.4 1524.0 1530.1 1561.6 1571.8 1575.4
  1589.5 1608.9 1617.0 1627.4 1666.9 1703.9 1712.3 1745.4 2275.3 2362.6
  3005.9 3022.6 3028.0 3057.1 3060.3 3080.7 3083.8 3104.5 3129.5 3138.5
  3183.4 3183.6 3190.6 3190.8 3200.5 3200.7 3213.6 3213.9
 at 99999: n3=         168
 symm operator            1 :  F  nop=           0
 symm operator            2 :  F  nop=           0
 symm operator            3 :  F  nop=           0
 symm operator            4 :  F  nop=           0
 symm operator            5 :  F  nop=           0
 symm operator            6 :  F  nop=           0
 symm operator            7 :  F  nop=           0
 The point group of the molecule is  C1
 Symmetry rotation matrix:
   1.00000   0.00000   0.00000
   0.00000   1.00000   0.00000
   0.00000   0.00000   1.00000

 Projecting out zero-frequency components
 generating redundant internal coords
         300        3600          56
 search for int coords
   1 str   2   1   1.454
   2 str   3   2   1.211
   3 str   4   3   1.361
   4 str   5   4   1.209
   5 str   6   5   1.348
   6 str   7   6   1.443
   7 str   8   7   1.217
   8 str   9   7   1.455
   9 str  10   9   1.401
  10 str  11  10   1.377
  11 str  12  11   1.415
  12 str  13  12   1.447
  13 str  14  13   1.415
  14 str  15  14   1.380
  15 str  16  15   1.398
  16 str  17  16   1.464
  17 str  18  17   1.230
  18 str  19  17   1.407
  19 str  20  19   1.488
  20 str  21  20   1.534
  21 str  22  20   1.534
  22 str  23  19   1.415
  23 str  24  23   1.229
  24 str  25  23   1.463
  25 str  26  25   1.399
  26 str  27  26   1.380
  27 str  28  27   1.415
  28 str  29  28   1.447
  29 str  30  29   1.415
  30 str  31  30   1.377
  31 str  32  31   1.401
  32 str  33   6   1.443
  33 str  33  32   1.455
  34 str  34  33   1.217
  35 str  35   9   1.417
  36 str  35  32   1.417
  37 str  36  12   1.431
  38 str  36  29   1.431
  39 str  36  35   1.438
  40 str  37  13   1.429
  41 str  37  28   1.429
  42 str  38  16   1.413
  43 str  38  25   1.413
  44 str  38  37   1.436
  45 str  39   1   1.095
  46 str  40   1   1.095
  47 str  41   1   1.095
  48 str  42  10   1.083
  49 str  43  11   1.081
  50 str  44  14   1.081
  51 str  45  15   1.083
  52 str  46  20   1.088
  53 str  47  21   1.089
  54 str  48  21   1.093
  55 str  49  21   1.095
  56 str  50  22   1.089
  57 str  51  22   1.095
  58 str  52  22   1.093
  59 str  53  26   1.083
  60 str  54  27   1.081
  61 str  55  30   1.081
  62 str  56  31   1.083
 nber stretches=          62
  63 lin ben   1   2   3
  65 ben   2   1  39
  66 ben   2   1  40
  67 ben   2   1  41
 Extend lin bond           1           1           2           4
  68 lin ben   2   3   4
  70 lin ben   3   4   5
 Extend lin bond           2           3           4           6
  72 lin ben   4   5   6
  74 ben   5   6   7
  75 prop tor   5   6   7   8
  76 prop tor   5   6   7   9
  77 ben   5   6  33
  78 prop tor   5   6  33  32
  79 prop tor   5   6  33  34
  80 ben   6   7   8
  81 ben   6   7   9
  82 prop tor   6   7   9  10
  83 prop tor   6   7   9  35
  84 ben   6  33  32
  85 ben   6  33  34
  86 ben   7   6  33
  87 prop tor   7   6  33  32
  88 prop tor   7   6  33  34
  89 ben   7   9  10
  90 prop tor   7   9  10  11
  91 prop tor   7   9  10  42
  92 ben   7   9  35
  93 prop tor   7   9  35  32
  94 prop tor   7   9  35  36
  95 ben   8   7   9
  96 prop tor   8   7   9  10
  97 prop tor   8   7   9  35
  98 ben   9  10  11
  99 prop tor   9  10  11  12
 100 prop tor   9  10  11  43
 101 ben   9  10  42
 102 ben   9  35  32
 103 ben   9  35  36
 104 prop tor   9  35  36  12
 105 prop tor   9  35  36  29
 106 ben  10   9  35
 107 prop tor  10   9  35  32
 108 prop tor  10   9  35  36
 109 ben  10  11  12
 110 prop tor  10  11  12  13
 111 prop tor  10  11  12  36
 112 ben  10  11  43
 113 ben  11  10  42
 114 ben  11  12  13
 115 prop tor  11  12  13  14
 116 prop tor  11  12  13  37
 117 ben  11  12  36
 118 prop tor  11  12  36  29
 119 prop tor  11  12  36  35
 120 ben  12  11  43
 121 ben  12  13  14
 122 prop tor  12  13  14  15
 123 prop tor  12  13  14  44
 124 ben  12  13  37
 125 prop tor  12  13  37  28
 126 prop tor  12  13  37  38
 127 ben  12  36  29
 128 ben  12  36  35
 129 ben  13  12  36
 130 prop tor  13  12  36  29
 131 prop tor  13  12  36  35
 132 ben  13  14  15
 133 prop tor  13  14  15  16
 134 prop tor  13  14  15  45
 135 ben  13  14  44
 136 ben  13  37  28
 137 ben  13  37  38
 138 prop tor  13  37  38  16
 139 prop tor  13  37  38  25
 140 ben  14  13  37
 141 prop tor  14  13  37  28
 142 prop tor  14  13  37  38
 143 ben  14  15  16
 144 prop tor  14  15  16  17
 145 prop tor  14  15  16  38
 146 ben  14  15  45
 147 ben  15  14  44
 148 ben  15  16  17
 149 prop tor  15  16  17  18
 150 prop tor  15  16  17  19
 151 ben  15  16  38
 152 prop tor  15  16  38  25
 153 prop tor  15  16  38  37
 154 ben  16  15  45
 155 ben  16  17  18
 156 ben  16  17  19
 157 prop tor  16  17  19  20
 158 prop tor  16  17  19  23
 159 ben  16  38  25
 160 ben  16  38  37
 161 ben  17  16  38
 162 prop tor  17  16  38  25
 163 prop tor  17  16  38  37
 164 ben  17  19  20
 165 prop tor  17  19  20  21
 166 prop tor  17  19  20  22
 167 prop tor  17  19  20  46
 168 ben  17  19  23
 169 prop tor  17  19  23  24
 170 prop tor  17  19  23  25
 171 ben  18  17  19
 172 prop tor  18  17  19  20
 173 prop tor  18  17  19  23
 174 ben  19  20  21
 175 prop tor  19  20  21  47
 176 prop tor  19  20  21  48
 177 prop tor  19  20  21  49
 178 ben  19  20  22
 179 prop tor  19  20  22  50
 180 prop tor  19  20  22  51
 181 prop tor  19  20  22  52
 182 ben  19  20  46
 183 ben  19  23  24
 184 ben  19  23  25
 185 prop tor  19  23  25  26
 186 prop tor  19  23  25  38
 187 ben  20  19  23
 188 prop tor  20  19  23  24
 189 prop tor  20  19  23  25
 190 ben  20  21  47
 191 ben  20  21  48
 192 ben  20  21  49
 193 ben  20  22  50
 194 ben  20  22  51
 195 ben  20  22  52
 196 ben  21  20  22
 197 prop tor  21  20  22  50
 198 prop tor  21  20  22  51
 199 prop tor  21  20  22  52
 200 ben  21  20  46
 201 prop tor  22  20  21  47
 202 prop tor  22  20  21  48
 203 prop tor  22  20  21  49
 204 ben  22  20  46
 205 prop tor  23  19  20  21
 206 prop tor  23  19  20  22
 207 prop tor  23  19  20  46
 208 ben  23  25  26
 209 prop tor  23  25  26  27
 210 prop tor  23  25  26  53
 211 ben  23  25  38
 212 prop tor  23  25  38  16
 213 prop tor  23  25  38  37
 214 ben  24  23  25
 215 prop tor  24  23  25  26
 216 prop tor  24  23  25  38
 217 ben  25  26  27
 218 prop tor  25  26  27  28
 219 prop tor  25  26  27  54
 220 ben  25  26  53
 221 ben  25  38  37
 222 ben  26  25  38
 223 prop tor  26  25  38  16
 224 prop tor  26  25  38  37
 225 ben  26  27  28
 226 prop tor  26  27  28  29
 227 prop tor  26  27  28  37
 228 ben  26  27  54
 229 ben  27  26  53
 230 ben  27  28  29
 231 prop tor  27  28  29  30
 232 prop tor  27  28  29  36
 233 ben  27  28  37
 234 prop tor  27  28  37  13
 235 prop tor  27  28  37  38
 236 ben  28  27  54
 237 ben  28  29  30
 238 prop tor  28  29  30  31
 239 prop tor  28  29  30  55
 240 ben  28  29  36
 241 prop tor  28  29  36  12
 242 prop tor  28  29  36  35
 243 ben  28  37  38
 244 prop tor  28  37  38  16
 245 prop tor  28  37  38  25
 246 ben  29  28  37
 247 prop tor  29  28  37  13
 248 prop tor  29  28  37  38
 249 ben  29  30  31
 250 prop tor  29  30  31  32
 251 prop tor  29  30  31  56
 252 ben  29  30  55
 253 ben  29  36  35
 254 ben  30  29  36
 255 prop tor  30  29  36  12
 256 prop tor  30  29  36  35
 257 ben  30  31  32
 258 prop tor  30  31  32  33
 259 prop tor  30  31  32  35
 260 ben  30  31  56
 261 ben  31  30  55
 262 ben  31  32  33
 263 prop tor  31  32  33   6
 264 prop tor  31  32  33  34
 265 ben  31  32  35
 266 prop tor  31  32  35   9
 267 prop tor  31  32  35  36
 268 ben  32  31  56
 269 ben  32  33  34
 270 ben  32  35  36
 271 prop tor  32  35  36  12
 272 prop tor  32  35  36  29
 273 prop tor  33   6   7   8
 274 prop tor  33   6   7   9
 275 ben  33  32  35
 276 prop tor  33  32  35   9
 277 prop tor  33  32  35  36
 278 prop tor  35   9  10  11
 279 prop tor  35   9  10  42
 280 prop tor  35  32  33   6
 281 prop tor  35  32  33  34
 282 prop tor  36  12  13  14
 283 prop tor  36  12  13  37
 284 prop tor  36  29  30  31
 285 prop tor  36  29  30  55
 286 prop tor  37  13  14  15
 287 prop tor  37  13  14  44
 288 prop tor  37  28  29  30
 289 prop tor  37  28  29  36
 290 prop tor  38  16  17  18
 291 prop tor  38  16  17  19
 292 prop tor  38  25  26  27
 293 prop tor  38  25  26  53
 294 prop tor  39   1   2   3
 295 ben  39   1  40
 296 ben  39   1  41
 297 prop tor  40   1   2   3
 298 ben  40   1  41
 299 prop tor  41   1   2   3
 300 prop tor  42  10  11  12
 301 prop tor  42  10  11  43
 302 prop tor  43  11  12  13
 303 prop tor  43  11  12  36
 304 prop tor  44  14  15  16
 305 prop tor  44  14  15  45
 306 prop tor  45  15  16  17
 307 prop tor  45  15  16  38
 308 prop tor  46  20  21  47
 309 prop tor  46  20  21  48
 310 prop tor  46  20  21  49
 311 prop tor  46  20  22  50
 312 prop tor  46  20  22  51
 313 prop tor  46  20  22  52
 314 ben  47  21  48
 315 ben  47  21  49
 316 ben  48  21  49
 317 ben  50  22  51
 318 ben  50  22  52
 319 ben  51  22  52
 320 prop tor  53  26  27  28
 321 prop tor  53  26  27  54
 322 prop tor  54  27  28  29
 323 prop tor  54  27  28  37
 324 prop tor  55  30  31  32
 325 prop tor  55  30  31  56
 326 prop tor  56  31  32  33
 327 prop tor  56  31  32  35
 328 lin bend prop tor   2   1   4   3
 329 lin bend prop tor   2   1   4   5
 330 lin bend prop tor  39   1   4   3
 331 lin bend prop tor  39   1   4   5
 332 lin bend prop tor  40   1   4   3
 333 lin bend prop tor  40   1   4   5
 334 lin bend prop tor  41   1   4   3
 335 lin bend prop tor  41   1   4   5
 336 lin bend prop tor   2   3   6   5
 337 lin bend prop tor   2   3   6   7
 338 lin bend prop tor   2   3   6  33
 339 lin bend prop tor   4   3   6   5
 340 lin bend prop tor   4   3   6   7
 341 lin bend prop tor   4   3   6  33
 nber bend=             110
 nber lin bend=           2
 nber prop tor=         169
 nber impr tor=           0
 nber tot redund int=         341
 Eigenvalues of G in red int coords
    Gval -0.00000000 -0.00000000 -0.00000000 -0.00000000 -0.00000000 -0.00000000 -0.00000000 -0.00000000
    Gval -0.00000000 -0.00000000 -0.00000000 -0.00000000 -0.00000000 -0.00000000 -0.00000000 -0.00000000
    Gval -0.00000000 -0.00000000 -0.00000000 -0.00000000 -0.00000000 -0.00000000 -0.00000000 -0.00000000
    Gval -0.00000000 -0.00000000 -0.00000000 -0.00000000 -0.00000000 -0.00000000 -0.00000000 -0.00000000
    Gval -0.00000000 -0.00000000 -0.00000000 -0.00000000 -0.00000000 -0.00000000 -0.00000000 -0.00000000
    Gval -0.00000000 -0.00000000 -0.00000000 -0.00000000 -0.00000000 -0.00000000 -0.00000000 -0.00000000
    Gval -0.00000000 -0.00000000 -0.00000000 -0.00000000 -0.00000000 -0.00000000 -0.00000000 -0.00000000
    Gval -0.00000000 -0.00000000 -0.00000000 -0.00000000 -0.00000000 -0.00000000 -0.00000000 -0.00000000
    Gval -0.00000000 -0.00000000 -0.00000000 -0.00000000 -0.00000000 -0.00000000 -0.00000000 -0.00000000
    Gval -0.00000000 -0.00000000 -0.00000000 -0.00000000 -0.00000000 -0.00000000 -0.00000000 -0.00000000
    Gval -0.00000000 -0.00000000 -0.00000000 -0.00000000 -0.00000000 -0.00000000 -0.00000000 -0.00000000
    Gval  0.00000000  0.00000000  0.00000000  0.00000000  0.00000000  0.00000000  0.00000000  0.00000000
    Gval  0.00000000  0.00000000  0.00000000  0.00000000  0.00000000  0.00000000  0.00000000  0.00000000
    Gval  0.00000000  0.00000000  0.00000000  0.00000000  0.00000000  0.00000000  0.00000000  0.00000000
    Gval  0.00000000  0.00000000  0.00000000  0.00000000  0.00000000  0.00000000  0.00000000  0.00000000
    Gval  0.00000000  0.00000000  0.00000000  0.00000000  0.00000000  0.00000000  0.00000000  0.00000000
    Gval  0.00000000  0.00000000  0.00000000  0.00000000  0.00000000  0.00000000  0.00000000  0.00000000
    Gval  0.00000000  0.00000000  0.00000000  0.00000000  0.00000000  0.00000000  0.00000000  0.00000000
    Gval  0.00000000  0.00000000  0.00000000  0.00000000  0.00000000  0.00000000  0.00000000  0.00000000
    Gval  0.00000000  0.00000000  0.00000000  0.00000000  0.00000000  0.00000000  0.00000000  0.00000000
    Gval  0.00000000  0.00000000  0.00000000  0.00000000  0.00000000  0.00000000  0.00000000  0.00000000
    Gval  0.00000000  0.00000000  0.00000000  0.00000000  0.00000000  0.00000000  0.00000000  0.00000000
    Gval  0.00000000  0.00000000  0.00000000  0.00000000  0.00000049  0.00000122  0.00000193  0.00000210
    Gval  0.00000453  0.00000593  0.00000646  0.00000912  0.00001091  0.00001111  0.00001468  0.00001579
    Gval  0.00001673  0.00001745  0.00001778  0.00001828  0.00002119  0.00002164  0.00002348  0.00002529
    Gval  0.00002554  0.00002686  0.00003068  0.00003304  0.00003581  0.00003996  0.00004893  0.00005051
    Gval  0.00005150  0.00005309  0.00005494  0.00005907  0.00006276  0.00006358  0.00006773  0.00006975
    Gval  0.00007315  0.00007649  0.00008149  0.00008245  0.00008616  0.00008658  0.00009316  0.00009431
    Gval  0.00009530  0.00010156  0.00011769  0.00012249  0.00013101  0.00013142  0.00013640  0.00013725
    Gval  0.00014089  0.00015150  0.00015892  0.00016073  0.00016776  0.00016863  0.00018183  0.00019944
    Gval  0.00021256  0.00022189  0.00022767  0.00023119  0.00026529  0.00027291  0.00028590  0.00028856
    Gval  0.00029832  0.00034310  0.00036100  0.00038181  0.00038850  0.00038964  0.00039387  0.00040079
    Gval  0.00041928  0.00042164  0.00042974  0.00043565  0.00043999  0.00044167  0.00046254  0.00046436
    Gval  0.00046804  0.00049246  0.00051251  0.00052976  0.00053320  0.00053738  0.00053747  0.00055258
    Gval  0.00055323  0.00055585  0.00055611  0.00055699  0.00057331  0.00059852  0.00059925  0.00059958
    Gval  0.00059987  0.00060221  0.00060468  0.00063134  0.00064151  0.00064488  0.00064581  0.00064749
    Gval  0.00066814  0.00069169  0.00069614  0.00075557  0.00078030  0.00082453  0.00092504  0.00098346
    Gval  0.00109244  0.00109338  0.00109405  0.00109457  0.00114762  0.00115271  0.00116373  0.00116421
    Gval  0.00116422  0.00116474  0.00116581  0.00116633  0.00119447  0.00120856  0.00128954  0.00130262
    Gval  0.00149033  0.00150218  0.00172198  0.00174034  0.00190526  0.00227314  0.00233656  0.00251711
    Gval  0.00251795  0.00255455  0.00277728  0.00280561  0.00292497  0.00296156  0.00302051  0.00304166
    Gval  0.00308332  0.00308766  0.00365926  0.00366101  0.00370732  0.00370882  0.00392547432.11956472
    Gval508.04533997791.01125147************************************
  4.917070124394519E-007  4.917070124394519E-007
  1.218727394494966E-006  4.917070124394519E-007
  1.927990775752525E-006  4.917070124394519E-007
  2.097038716891480E-006  4.917070124394519E-007
  4.526480497163235E-006  4.917070124394519E-007
  5.934188399420259E-006  4.917070124394519E-007
  6.456125408617930E-006  4.917070124394519E-007
  9.119148001685040E-006  4.917070124394519E-007
  1.090967831994372E-005  4.917070124394519E-007
  1.110811277033359E-005  4.917070124394519E-007
  1.467555842472798E-005  4.917070124394519E-007
  1.578529448976760E-005  4.917070124394519E-007
  1.672725509060868E-005  4.917070124394519E-007
  1.744870006515233E-005  4.917070124394519E-007
  1.778304346075604E-005  4.917070124394519E-007
  1.828027289430234E-005  4.917070124394519E-007
  2.118711592950245E-005  4.917070124394519E-007
  2.164327983445181E-005  4.917070124394519E-007
  2.347959635819329E-005  4.917070124394519E-007
  2.529464132855974E-005  4.917070124394519E-007
  2.554246472204320E-005  4.917070124394519E-007
  2.686152863904225E-005  4.917070124394519E-007
[...]
 153 prop tor  15  16  38  37
 154 ben  16  15  45
 155 ben  16  17  18
 156 ben  16  17  19
 157 prop tor  16  17  19  20
 158 prop tor  16  17  19  23
 159 ben  16  38  25
 160 ben  16  38  37
 161 ben  17  16  38
 162 prop tor  17  16  38  25
 163 prop tor  17  16  38  37
 164 ben  17  19  20
 165 prop tor  17  19  20  21
 166 prop tor  17  19  20  22
 167 prop tor  17  19  20  46
 168 ben  17  19  23
 169 prop tor  17  19  23  24
 170 prop tor  17  19  23  25
 171 ben  18  17  19
 172 prop tor  18  17  19  20
 173 prop tor  18  17  19  23
 174 ben  19  20  21
 175 prop tor  19  20  21  47
 176 prop tor  19  20  21  48
 177 prop tor  19  20  21  49
 178 ben  19  20  22
 179 prop tor  19  20  22  50
 180 prop tor  19  20  22  51
 181 prop tor  19  20  22  52
 182 ben  19  20  46
 183 ben  19  23  24
 184 ben  19  23  25
 185 prop tor  19  23  25  26
 186 prop tor  19  23  25  38
 187 ben  20  19  23
 188 prop tor  20  19  23  24
 189 prop tor  20  19  23  25
 190 ben  20  21  47
 191 ben  20  21  48
 192 ben  20  21  49
 193 ben  20  22  50
 194 ben  20  22  51
 195 ben  20  22  52
 196 ben  21  20  22
 197 prop tor  21  20  22  50
 198 prop tor  21  20  22  51
 199 prop tor  21  20  22  52
 200 ben  21  20  46
 201 prop tor  22  20  21  47
 202 prop tor  22  20  21  48
 203 prop tor  22  20  21  49
 204 ben  22  20  46
 205 prop tor  23  19  20  21
 206 prop tor  23  19  20  22
 207 prop tor  23  19  20  46
 208 ben  23  25  26
 209 prop tor  23  25  26  27
 210 prop tor  23  25  26  53
 211 ben  23  25  38
 212 prop tor  23  25  38  16
 213 prop tor  23  25  38  37
 214 ben  24  23  25
 215 prop tor  24  23  25  26
 216 prop tor  24  23  25  38
 217 ben  25  26  27
 218 prop tor  25  26  27  28
 219 prop tor  25  26  27  54
 220 ben  25  26  53
 221 ben  25  38  37
 222 ben  26  25  38
 223 prop tor  26  25  38  16
 224 prop tor  26  25  38  37
 225 ben  26  27  28
 226 prop tor  26  27  28  29
 227 prop tor  26  27  28  37
 228 ben  26  27  54
 229 ben  27  26  53
 230 ben  27  28  29
 231 prop tor  27  28  29  30
 232 prop tor  27  28  29  36
 233 ben  27  28  37
 234 prop tor  27  28  37  13
 235 prop tor  27  28  37  38
 236 ben  28  27  54
 237 ben  28  29  30
 238 prop tor  28  29  30  31
 239 prop tor  28  29  30  55
 240 ben  28  29  36
 241 prop tor  28  29  36  12
 242 prop tor  28  29  36  35
 243 ben  28  37  38
 244 prop tor  28  37  38  16
 245 prop tor  28  37  38  25
 246 ben  29  28  37
 247 prop tor  29  28  37  13
 248 prop tor  29  28  37  38
 249 ben  29  30  31
 250 prop tor  29  30  31  32
 251 prop tor  29  30  31  56
 252 ben  29  30  55
 253 ben  29  36  35
 254 ben  30  29  36
 255 prop tor  30  29  36  12
 256 prop tor  30  29  36  35
 257 ben  30  31  32
 258 prop tor  30  31  32  33
 259 prop tor  30  31  32  35
 260 ben  30  31  56
 261 ben  31  30  55
 262 ben  31  32  33
 263 prop tor  31  32  33   6
 264 prop tor  31  32  33  34
 265 ben  31  32  35
 266 prop tor  31  32  35   9
 267 prop tor  31  32  35  36
 268 ben  32  31  56
 269 ben  32  33  34
 270 ben  32  35  36
 271 prop tor  32  35  36  12
 272 prop tor  32  35  36  29
 273 prop tor  33   6   7   8
 274 prop tor  33   6   7   9
 275 ben  33  32  35
 276 prop tor  33  32  35   9
 277 prop tor  33  32  35  36
 278 prop tor  35   9  10  11
 279 prop tor  35   9  10  42
 280 prop tor  35  32  33   6
 281 prop tor  35  32  33  34
 282 prop tor  36  12  13  14
 283 prop tor  36  12  13  37
 284 prop tor  36  29  30  31
 285 prop tor  36  29  30  55
 286 prop tor  37  13  14  15
 287 prop tor  37  13  14  44
 288 prop tor  37  28  29  30
 289 prop tor  37  28  29  36
 290 prop tor  38  16  17  18
 291 prop tor  38  16  17  19
 292 prop tor  38  25  26  27
 293 prop tor  38  25  26  53
 294 prop tor  39   1   2   3
 295 ben  39   1  40
 296 ben  39   1  41
 297 prop tor  40   1   2   3
 298 ben  40   1  41
 299 prop tor  41   1   2   3
 300 prop tor  42  10  11  12
 301 prop tor  42  10  11  43
 302 prop tor  43  11  12  13
 303 prop tor  43  11  12  36
 304 prop tor  44  14  15  16
 305 prop tor  44  14  15  45
 306 prop tor  45  15  16  17
 307 prop tor  45  15  16  38
 308 prop tor  46  20  21  47
 309 prop tor  46  20  21  48
 310 prop tor  46  20  21  49
 311 prop tor  46  20  22  50
 312 prop tor  46  20  22  51
 313 prop tor  46  20  22  52
 314 ben  47  21  48
 315 ben  47  21  49
 316 ben  48  21  49
 317 ben  50  22  51
 318 ben  50  22  52
 319 ben  51  22  52
 320 prop tor  53  26  27  28
 321 prop tor  53  26  27  54
 322 prop tor  54  27  28  29
 323 prop tor  54  27  28  37
 324 prop tor  55  30  31  32
 325 prop tor  55  30  31  56
 326 prop tor  56  31  32  33
 327 prop tor  56  31  32  35
 328 lin bend prop tor   2   1   4   3
 329 lin bend prop tor   2   1   4   5
 330 lin bend prop tor  39   1   4   3
 331 lin bend prop tor  39   1   4   5
 332 lin bend prop tor  40   1   4   3
 333 lin bend prop tor  40   1   4   5
 334 lin bend prop tor  41   1   4   3
 335 lin bend prop tor  41   1   4   5
 336 lin bend prop tor   2   3   6   5
 337 lin bend prop tor   2   3   6   7
 338 lin bend prop tor   2   3   6  33
 339 lin bend prop tor   4   3   6   5
 340 lin bend prop tor   4   3   6   7
 341 lin bend prop tor   4   3   6  33
 nber bend=             110
 nber lin bend=           2
 nber prop tor=         169
 nber impr tor=           0
 nber tot redund int=         341
 Eigenvalues of G in red int coords
    Gval -0.00000000 -0.00000000 -0.00000000 -0.00000000 -0.00000000 -0.00000000 -0.00000000 -0.00000000
    Gval -0.00000000 -0.00000000 -0.00000000 -0.00000000 -0.00000000 -0.00000000 -0.00000000 -0.00000000
    Gval -0.00000000 -0.00000000 -0.00000000 -0.00000000 -0.00000000 -0.00000000 -0.00000000 -0.00000000
    Gval -0.00000000 -0.00000000 -0.00000000 -0.00000000 -0.00000000 -0.00000000 -0.00000000 -0.00000000
    Gval -0.00000000 -0.00000000 -0.00000000 -0.00000000 -0.00000000 -0.00000000 -0.00000000 -0.00000000
    Gval -0.00000000 -0.00000000 -0.00000000 -0.00000000 -0.00000000 -0.00000000 -0.00000000 -0.00000000
    Gval -0.00000000 -0.00000000 -0.00000000 -0.00000000 -0.00000000 -0.00000000 -0.00000000 -0.00000000
    Gval -0.00000000 -0.00000000 -0.00000000 -0.00000000 -0.00000000 -0.00000000 -0.00000000 -0.00000000
    Gval -0.00000000 -0.00000000 -0.00000000 -0.00000000 -0.00000000 -0.00000000 -0.00000000 -0.00000000
    Gval -0.00000000 -0.00000000 -0.00000000 -0.00000000 -0.00000000 -0.00000000 -0.00000000 -0.00000000
    Gval -0.00000000 -0.00000000 -0.00000000 -0.00000000 -0.00000000 -0.00000000 -0.00000000  0.00000000
    Gval  0.00000000  0.00000000  0.00000000  0.00000000  0.00000000  0.00000000  0.00000000  0.00000000
    Gval  0.00000000  0.00000000  0.00000000  0.00000000  0.00000000  0.00000000  0.00000000  0.00000000
    Gval  0.00000000  0.00000000  0.00000000  0.00000000  0.00000000  0.00000000  0.00000000  0.00000000
    Gval  0.00000000  0.00000000  0.00000000  0.00000000  0.00000000  0.00000000  0.00000000  0.00000000
    Gval  0.00000000  0.00000000  0.00000000  0.00000000  0.00000000  0.00000000  0.00000000  0.00000000
    Gval  0.00000000  0.00000000  0.00000000  0.00000000  0.00000000  0.00000000  0.00000000  0.00000000
    Gval  0.00000000  0.00000000  0.00000000  0.00000000  0.00000000  0.00000000  0.00000000  0.00000000
    Gval  0.00000000  0.00000000  0.00000000  0.00000000  0.00000000  0.00000000  0.00000000  0.00000000
    Gval  0.00000000  0.00000000  0.00000000  0.00000000  0.00000000  0.00000000  0.00000000  0.00000000
    Gval  0.00000000  0.00000000  0.00000000  0.00000000  0.00000000  0.00000000  0.00000000  0.00000000
    Gval  0.00000000  0.00000000  0.00000000  0.00000000  0.00000000  0.00000000  0.00000000  0.00000000
    Gval  0.00000000  0.00000000  0.00000000  0.00000000  0.00000049  0.00000122  0.00000193  0.00000210
    Gval  0.00000453  0.00000593  0.00000646  0.00000912  0.00001091  0.00001111  0.00001468  0.00001579
    Gval  0.00001673  0.00001745  0.00001778  0.00001828  0.00002119  0.00002164  0.00002348  0.00002529
    Gval  0.00002554  0.00002686  0.00003068  0.00003304  0.00003581  0.00003996  0.00004893  0.00005051
    Gval  0.00005150  0.00005309  0.00005494  0.00005907  0.00006276  0.00006358  0.00006773  0.00006975
    Gval  0.00007315  0.00007649  0.00008149  0.00008245  0.00008616  0.00008658  0.00009316  0.00009431
    Gval  0.00009530  0.00010156  0.00011769  0.00012249  0.00013101  0.00013142  0.00013640  0.00013725
    Gval  0.00014089  0.00015150  0.00015892  0.00016073  0.00016776  0.00016863  0.00018183  0.00019944
    Gval  0.00021256  0.00022189  0.00022767  0.00023119  0.00026529  0.00027291  0.00028590  0.00028856
    Gval  0.00029832  0.00034310  0.00036100  0.00038181  0.00038850  0.00038964  0.00039387  0.00040079
    Gval  0.00041928  0.00042164  0.00042974  0.00043565  0.00043999  0.00044167  0.00046254  0.00046436
    Gval  0.00046804  0.00049246  0.00051251  0.00052976  0.00053320  0.00053738  0.00053747  0.00055258
    Gval  0.00055323  0.00055585  0.00055611  0.00055699  0.00057331  0.00059852  0.00059925  0.00059958
    Gval  0.00059987  0.00060221  0.00060468  0.00063134  0.00064151  0.00064488  0.00064581  0.00064749
    Gval  0.00066814  0.00069169  0.00069614  0.00075557  0.00078030  0.00082453  0.00092504  0.00098346
    Gval  0.00109244  0.00109338  0.00109405  0.00109457  0.00114762  0.00115271  0.00116373  0.00116421
    Gval  0.00116422  0.00116474  0.00116581  0.00116633  0.00119447  0.00120856  0.00128954  0.00130262
    Gval  0.00149033  0.00150218  0.00172198  0.00174034  0.00190526  0.00227314  0.00233656  0.00251711
    Gval  0.00251795  0.00255455  0.00277728  0.00280561  0.00292497  0.00296156  0.00302051  0.00304166
    Gval  0.00308332  0.00308766  0.00365926  0.00366101  0.00370732  0.00370882  0.00392547432.11956444
    Gval508.04534036791.01124732************************************
  4.917070111576630E-007  4.917070111576630E-007
  1.218727390972710E-006  4.917070111576630E-007
  1.927990775561608E-006  4.917070111576630E-007
  2.097038715668389E-006  4.917070111576630E-007
  4.526480497123294E-006  4.917070111576630E-007
  5.934188398187053E-006  4.917070111576630E-007
  6.456125404413156E-006  4.917070111576630E-007
  9.119148001592895E-006  4.917070111576630E-007
  1.090967831951018E-005  4.917070111576630E-007
  1.110811277029929E-005  4.917070111576630E-007
  1.467555842469054E-005  4.917070111576630E-007
  1.578529448829281E-005  4.917070111576630E-007
  1.672725509042873E-005  4.917070111576630E-007
  1.744870006513274E-005  4.917070111576630E-007
  1.778304345747242E-005  4.917070111576630E-007
  1.828027289425599E-005  4.917070111576630E-007
  2.118711592919397E-005  4.917070111576630E-007
  2.164327983111477E-005  4.917070111576630E-007
  2.347959635818820E-005  4.917070111576630E-007
  2.529464132825312E-005  4.917070111576630E-007
  2.554246472046126E-005  4.917070111576630E-007
  2.686152863904131E-005  4.917070111576630E-007
  3.068394138336214E-005  4.917070111576630E-007
  3.303604644450747E-005  4.917070111576630E-007
  3.581419630630951E-005  4.917070111576630E-007
  3.996197046333532E-005  4.917070111576630E-007
  4.892749709364851E-005  4.917070111576630E-007
  5.050900254170052E-005  4.917070111576630E-007
  5.150450834100906E-005  4.917070111576630E-007
  5.309290001989258E-005  4.917070111576630E-007
  5.494364036465549E-005  4.917070111576630E-007
  5.907198261877701E-005  4.917070111576630E-007
  6.276283666266427E-005  4.917070111576630E-007
  6.357680387831861E-005  4.917070111576630E-007
  6.772888976707591E-005  4.917070111576630E-007
  6.975310001595755E-005  4.917070111576630E-007
  7.315312439341703E-005  4.917070111576630E-007
  7.648900815447859E-005  4.917070111576630E-007
  8.149283378693703E-005  4.917070111576630E-007
  8.245377594223103E-005  4.917070111576630E-007
  8.615539467797780E-005  4.917070111576630E-007
  8.658483902837362E-005  4.917070111576630E-007
  9.316259572164232E-005  4.917070111576630E-007
  9.431361264396567E-005  4.917070111576630E-007
  9.529619857643477E-005  4.917070111576630E-007
  1.015604742041926E-004  4.917070111576630E-007
  1.176947677772635E-004  4.917070111576630E-007
  1.224878847771484E-004  4.917070111576630E-007
  1.310122142164781E-004  4.917070111576630E-007
  1.314152920856480E-004  4.917070111576630E-007
  1.364047468670382E-004  4.917070111576630E-007
  1.372542738801149E-004  4.917070111576630E-007
  1.408889336131699E-004  4.917070111576630E-007
  1.514974299196462E-004  4.917070111576630E-007
  1.589237539631284E-004  4.917070111576630E-007
  1.607250907615755E-004  4.917070111576630E-007
  1.677553904780420E-004  4.917070111576630E-007
  1.686263211983014E-004  4.917070111576630E-007
  1.818264516747829E-004  4.917070111576630E-007
  1.994401980544517E-004  4.917070111576630E-007
  2.125556680041803E-004  4.917070111576630E-007
  2.218880943807610E-004  4.917070111576630E-007
  2.276743504673759E-004  4.917070111576630E-007
  2.311895399491033E-004  4.917070111576630E-007
  2.652852652954160E-004  4.917070111576630E-007
  2.729075489284859E-004  4.917070111576630E-007
  2.858998120457652E-004  4.917070111576630E-007
  2.885641261307470E-004  4.917070111576630E-007
  2.983165513310982E-004  4.917070111576630E-007
  3.431025774471919E-004  4.917070111576630E-007
  3.609964319251669E-004  4.917070111576630E-007
  3.818087188098083E-004  4.917070111576630E-007
  3.885038838420038E-004  4.917070111576630E-007
  3.896367257452278E-004  4.917070111576630E-007
  3.938725768655955E-004  4.917070111576630E-007
  4.007863608875106E-004  4.917070111576630E-007
  4.192789940445420E-004  4.917070111576630E-007
  4.216385008614457E-004  4.917070111576630E-007
  4.297433757113141E-004  4.917070111576630E-007
  4.356500360966245E-004  4.917070111576630E-007
  4.399941453203192E-004  4.917070111576630E-007
  4.416657258794906E-004  4.917070111576630E-007
  4.625384291878951E-004  4.917070111576630E-007
  4.643611872157309E-004  4.917070111576630E-007
  4.680443708280660E-004  4.917070111576630E-007
  4.924599585902995E-004  4.917070111576630E-007
  5.125114153050242E-004  4.917070111576630E-007
  5.297613419906431E-004  4.917070111576630E-007
  5.332041148480708E-004  4.917070111576630E-007
  5.373783123423900E-004  4.917070111576630E-007
  5.374720923493196E-004  4.917070111576630E-007
  5.525788560271134E-004  4.917070111576630E-007
  5.532266347485719E-004  4.917070111576630E-007
  5.558492399318946E-004  4.917070111576630E-007
  5.561143009261777E-004  4.917070111576630E-007
  5.569872914948080E-004  4.917070111576630E-007
  5.733055660368577E-004  4.917070111576630E-007
  5.985227528134750E-004  4.917070111576630E-007
  5.992540788537487E-004  4.917070111576630E-007
  5.995804168441434E-004  4.917070111576630E-007
  5.998650371131971E-004  4.917070111576630E-007
  6.022108065934239E-004  4.917070111576630E-007
  6.046787637301932E-004  4.917070111576630E-007
  6.313354030127493E-004  4.917070111576630E-007
  6.415132130108067E-004  4.917070111576630E-007
  6.448812620499346E-004  4.917070111576630E-007
  6.458085223575436E-004  4.917070111576630E-007
  6.474941993048910E-004  4.917070111576630E-007
  6.681387364359521E-004  4.917070111576630E-007
  6.916888914863690E-004  4.917070111576630E-007
  6.961367453945914E-004  4.917070111576630E-007
  7.555717239188724E-004  4.917070111576630E-007
  7.802976968839878E-004  4.917070111576630E-007
  8.245290735960440E-004  4.917070111576630E-007
  9.250367618080028E-004  4.917070111576630E-007
  9.834561062941225E-004  4.917070111576630E-007
  1.092441563656655E-003  4.917070111576630E-007
  1.093383550528592E-003  4.917070111576630E-007
  1.094052029723302E-003  4.917070111576630E-007
  1.094568905661510E-003  4.917070111576630E-007
  1.147619836045355E-003  4.917070111576630E-007
  1.152713564160722E-003  4.917070111576630E-007
  1.163725128377363E-003  4.917070111576630E-007
  1.164210932773933E-003  4.917070111576630E-007
  1.164219275861666E-003  4.917070111576630E-007
  1.164741640979111E-003  4.917070111576630E-007
  1.165812941379611E-003  4.917070111576630E-007
  1.166330088116858E-003  4.917070111576630E-007
  1.194465673015399E-003  4.917070111576630E-007
  1.208564075497482E-003  4.917070111576630E-007
  1.289535152360113E-003  4.917070111576630E-007
  1.302621842685258E-003  4.917070111576630E-007
  1.490331498172043E-003  4.917070111576630E-007
  1.502177730375630E-003  4.917070111576630E-007
  1.721976298506192E-003  4.917070111576630E-007
  1.740335669394343E-003  4.917070111576630E-007
  1.905258168480609E-003  4.917070111576630E-007
  2.273144433306778E-003  4.917070111576630E-007
  2.336562633610891E-003  4.917070111576630E-007
  2.517111875005407E-003  4.917070111576630E-007
  2.517954767826673E-003  4.917070111576630E-007
  2.554545806040767E-003  4.917070111576630E-007
  2.777280254262117E-003  4.917070111576630E-007
  2.805609541066573E-003  4.917070111576630E-007
  2.924966019419517E-003  4.917070111576630E-007
  2.961560383140422E-003  4.917070111576630E-007
  3.020511609895487E-003  4.917070111576630E-007
  3.041659378637480E-003  4.917070111576630E-007
  3.083320370788450E-003  4.917070111576630E-007
  3.087658258959947E-003  4.917070111576630E-007
  3.659261343388324E-003  4.917070111576630E-007
  3.661007995735316E-003  4.917070111576630E-007
  3.707324258871937E-003  4.917070111576630E-007
  3.708821392481918E-003  4.917070111576630E-007
  3.925474432638952E-003  4.917070111576630E-007
   432.119564439882       4.917070111576630E-007
   508.045340364835       4.917070111576630E-007
   791.011247315953       4.917070111576630E-007
   1102.17619100742       4.917070111576630E-007
   3957.04587324985       4.917070111576630E-007
   7279.82725873390       4.917070111576630E-007
 cut=1d-8, nber non-redundant internal coords=         161
 Check on Eigenvals of non-red overlap matrix:
  0.00000049  0.00000122  0.00000193  0.00000210  0.00000453  0.00000593  0.00000646  0.00000912
  0.00001091  0.00001111  0.00001468  0.00001579  0.00001673  0.00001745  0.00001778  0.00001828
  0.00002119  0.00002164  0.00002348  0.00002529  0.00002554  0.00002686  0.00003068  0.00003304
  0.00003581  0.00003996  0.00004893  0.00005051  0.00005150  0.00005309  0.00005494  0.00005907
  0.00006276  0.00006358  0.00006773  0.00006975  0.00007315  0.00007649  0.00008149  0.00008245
  0.00008616  0.00008658  0.00009316  0.00009431  0.00009530  0.00010156  0.00011769  0.00012249
  0.00013101  0.00013142  0.00013640  0.00013725  0.00014089  0.00015150  0.00015892  0.00016073
  0.00016776  0.00016863  0.00018183  0.00019944  0.00021256  0.00022189  0.00022767  0.00023119
  0.00026529  0.00027291  0.00028590  0.00028856  0.00029832  0.00034310  0.00036100  0.00038181
  0.00038850  0.00038964  0.00039387  0.00040079  0.00041928  0.00042164  0.00042974  0.00043565
  0.00043999  0.00044167  0.00046254  0.00046436  0.00046804  0.00049246  0.00051251  0.00052976
  0.00053320  0.00053738  0.00053747  0.00055258  0.00055323  0.00055585  0.00055611  0.00055699
  0.00057331  0.00059852  0.00059925  0.00059958  0.00059987  0.00060221  0.00060468  0.00063134
  0.00064151  0.00064488  0.00064581  0.00064749  0.00066814  0.00069169  0.00069614  0.00075557
  0.00078030  0.00082453  0.00092504  0.00098346  0.00109244  0.00109338  0.00109405  0.00109457
  0.00114762  0.00115271  0.00116373  0.00116421  0.00116422  0.00116474  0.00116581  0.00116633
  0.00119447  0.00120856  0.00128954  0.00130262  0.00149033  0.00150218  0.00172198  0.00174034
  0.00190526  0.00227314  0.00233656  0.00251711  0.00251795  0.00255455  0.00277728  0.00280561
  0.00292497  0.00296156  0.00302051  0.00304166  0.00308332  0.00308766  0.00365926  0.00366101
  0.00370732  0.00370882  0.00392547432.11956444508.04534036791.01124732************************
************
 int defn changed for coord         336
           2           3           6           7
           2           3           6           5
