 Enter ifcurve (0=recti, 1=orth curvi, 2=apprx curvi, -1 = skip
 And atom ordering flag, 0= never changes, 1= use the first order thenceforth,
  2= deduce it (does read on fail), 3= always read it
 Reading file: 
 ./Benzene_Conj_0_C0S0.log                                                      
                                          
  Entering Gaussian System, Link 0=g16                                          
  
 Gaussian format, type: g94, g98, g03= F F F
  #P Geom=AllCheck Guess=TCheck SCRF=Check GenChk RB3LYP/6-311G(d,p) Fre    
 energy type= B3LYP   
 Original G94 input coords:
  6  1.393861  0.000000  0.000000
  6  0.696930 -1.207119  0.000000
  6 -0.696930 -1.207119  0.000000
  6 -1.393861  0.000000  0.000000
  6 -0.696930  1.207119  0.000000
  6  0.696930  1.207119  0.000000
  1  2.478330  0.000000  0.000000
  1  1.239165 -2.146297  0.000000
  1 -1.239165 -2.146297  0.000000
  1 -2.478330  0.000000  0.000000
  1 -1.239165  2.146297  0.000000
  1  1.239165  2.146297  0.000000
 nber atoms=          12
 Original standard coords:
  6  0.000000  1.393861  0.000000
  6  1.207119  0.696930  0.000000
  6  1.207119 -0.696930  0.000000
  6  0.000000 -1.393861  0.000000
  6 -1.207119 -0.696930  0.000000
  6 -1.207119  0.696930  0.000000
  1  0.000000  2.478330  0.000000
  1  2.146297  1.239165  0.000000
  1  2.146297 -1.239165  0.000000
  1  0.000000 -2.478330  0.000000
  1 -2.146297 -1.239165  0.000000
  1 -2.146297  1.239165  0.000000
  SCF Done:  E(RB3LYP) =  -232.308541895     A.U. after    1 cycles             
  
          23          40 "  -232.308541895"
After scan for Atom:   Atom  AN      X      Y      Z        X      Y      Z        X      Y      Z   
After scan for Atom:   Atom  AN      X      Y      Z        X      Y      Z        X      Y      Z   
After scan for Atom:   Atom  AN      X      Y      Z        X      Y      Z        X      Y      Z   
After scan for Atom:   Atom  AN      X      Y      Z        X      Y      Z        X      Y      Z   
After scan for Atom:   Atom  AN      X      Y      Z        X      Y      Z        X      Y      Z   
After scan for Atom:   Atom  AN      X      Y      Z        X      Y      Z        X      Y      Z   
After scan for Atom:   Atom  AN      X      Y      Z        X      Y      Z        X      Y      Z   
After scan for Atom:   Atom  AN      X      Y      Z        X      Y      Z        X      Y      Z   
After scan for Atom:   Atom  AN      X      Y      Z        X      Y      Z        X      Y      Z   
After scan for Atom:   Atom  AN      X      Y      Z        X      Y      Z        X      Y      Z   
 g94    frequencies=
     0.0    0.0    0.0    0.0    0.0    0.0  412.8  412.8  623.2  623.2
   688.9  723.3  862.5  862.5  981.4  981.4 1013.2 1016.5 1023.3 1060.2
  1060.2 1174.6 1197.5 1197.5 1335.1 1381.7 1512.9 1512.9 1637.4 1637.4
  3153.9 3163.6 3163.6 3179.4 3179.4 3190.0
 g94    symmetries=
                                                E2     E2     E2     E2
      A2     B2     E1     E1     E2     E2     A1     B2     B1     E1
      E1     B2     E2     E2     B2     A2     E1     E1     E2     E2
      B1     E2     E2     E1     E1     A1
 atomic masses:
 12.0000 12.0000 12.0000 12.0000 12.0000 12.0000  1.0078  1.0078  1.0078  1.0078
  1.0078  1.0078
 looking for force constants in 
 ./Benzene_Conj_0_C0S0.fchk                                                     
  
 Cartesian Force Constants                  R   N=         666                  
  
 n3=          36         666
 g94-fc frequencies=
   -10.5   -9.4   -9.4   -0.0   -0.0    0.0  412.9  412.9  623.2  623.2
   688.9  723.3  862.5  862.5  981.4  981.4 1013.3 1016.6 1023.3 1060.3
  1060.3 1174.7 1197.5 1197.5 1335.2 1381.7 1512.9 1512.9 1637.4 1637.4
  3154.0 3163.6 3163.6 3179.4 3179.4 3190.0
 at 99999: n3=          36
 symm operator            1 :  T  nop=           1
 symm operator            2 :  T  nop=           2
 symm operator            3 :  T  nop=           3
 symm operator            4 :  T  nop=           4
 symm operator            5 :  T  nop=           5
 symm operator            6 :  T  nop=           6
 symm operator            7 :  T  nop=           7
 The point group of the molecule is D2H
 enforcing symm op           1  jsymt=          -1          -1           1
 enforcing symm op           2  jsymt=          -1           1          -1
 enforcing symm op           3  jsymt=           1          -1          -1
 enforcing symm op           4  jsymt=          -1          -1          -1
 enforcing symm op           5  jsymt=           1           1          -1
 enforcing symm op           6  jsymt=           1          -1           1
 enforcing symm op           7  jsymt=          -1           1           1
 cartesian coord symmetries:
 Ag :    6 Au :    2 B1g:    6 B1u:    4 B2g:    2 B2u:    6 B3g:    4 B3u:    6
 Symmetry rotation matrix:
   1.00000   0.00000   0.00000
   0.00000   1.00000   0.00000
   0.00000   0.00000   1.00000

 Projecting out zero-frequency components
 generating redundant internal coords
         300        3600          12
 search for int coords
   1 str   2   1   1.394
   2 str   3   2   1.394
   3 str   4   3   1.394
   4 str   5   4   1.394
   5 str   6   1   1.394
   6 str   6   5   1.394
   7 str   7   1   1.084
   8 str   8   2   1.084
   9 str   9   3   1.084
  10 str  10   4   1.084
  11 str  11   5   1.084
  12 str  12   6   1.084
 nber stretches=          12
  13 ben   1   2   3
  14 prop tor   1   2   3   4
  15 prop tor   1   2   3   9
  16 ben   1   2   8
  17 ben   1   6   5
  18 ben   1   6  12
  19 ben   2   1   6
  20 prop tor   2   1   6   5
  21 prop tor   2   1   6  12
  22 ben   2   1   7
  23 ben   2   3   4
  24 prop tor   2   3   4   5
  25 prop tor   2   3   4  10
  26 ben   2   3   9
  27 ben   3   2   8
  28 ben   3   4   5
  29 prop tor   3   4   5   6
  30 prop tor   3   4   5  11
  31 ben   3   4  10
  32 ben   4   3   9
  33 ben   4   5   6
  34 prop tor   4   5   6   1
  35 prop tor   4   5   6  12
  36 ben   4   5  11
  37 ben   5   4  10
  38 ben   5   6  12
  39 prop tor   6   1   2   3
  40 prop tor   6   1   2   8
  41 ben   6   1   7
  42 ben   6   5  11
  43 prop tor   7   1   2   3
  44 prop tor   7   1   2   8
  45 prop tor   7   1   6   5
  46 prop tor   7   1   6  12
  47 prop tor   8   2   3   4
  48 prop tor   8   2   3   9
  49 prop tor   9   3   4   5
  50 prop tor   9   3   4  10
  51 prop tor  10   4   5   6
  52 prop tor  10   4   5  11
  53 prop tor  11   5   6   1
  54 prop tor  11   5   6  12
 nber bend=              18
 nber lin bend=           0
 nber prop tor=          24
 nber impr tor=           0
 nber tot redund int=          54
 Eigenvalues of G in red int coords
    Gval -0.00000000 -0.00000000 -0.00000000 -0.00000000 -0.00000000 -0.00000000 -0.00000000 -0.00000000
    Gval -0.00000000 -0.00000000 -0.00000000 -0.00000000 -0.00000000  0.00000000  0.00000000  0.00000000
    Gval  0.00000000  0.00000000  0.00000000  0.00000000  0.00000000  0.00000000  0.00000000  0.00000000
    Gval  0.00004190  0.00005678  0.00005678  0.00009579  0.00009579  0.00012501  0.00025283  0.00025283
    Gval  0.00034465  0.00049567  0.00049567  0.00059156  0.00059156  0.00059386  0.00061194  0.00061194
    Gval  0.00066895  0.00101556  0.00111059  0.00111059  0.00117131  0.00117131  0.00117145  0.00133136
    Gval  0.00133789  0.00234291  0.00234291  0.00374986  0.00374986  0.00418827
  4.190328692529266E-005  4.190328692529266E-005
  5.678248456911217E-005  4.190328692529266E-005
  5.678248711406736E-005  4.190328692529266E-005
  9.578884679035497E-005  4.190328692529266E-005
  9.578889071357638E-005  4.190328692529266E-005
  1.250099391597936E-004  4.190328692529266E-005
  2.528251000898442E-004  4.190328692529266E-005
  2.528253545265631E-004  4.190328692529266E-005
  3.446450293198790E-004  4.190328692529266E-005
  4.956692060019769E-004  4.190328692529266E-005
  4.956703251077471E-004  4.190328692529266E-005
  5.915580954380406E-004  4.190328692529266E-005
  5.915580994594919E-004  4.190328692529266E-005
  5.938597688794221E-004  4.190328692529266E-005
  6.119364471242832E-004  4.190328692529266E-005
  6.119364889541808E-004  4.190328692529266E-005
  6.689500099480611E-004  4.190328692529266E-005
  1.015556634195098E-003  4.190328692529266E-005
  1.110585022710175E-003  4.190328692529266E-005
  1.110585866171008E-003  4.190328692529266E-005
  1.171309754392503E-003  4.190328692529266E-005
  1.171310305427281E-003  4.190328692529266E-005
  1.171453297780129E-003  4.190328692529266E-005
  1.331356590740584E-003  4.190328692529266E-005
  1.337891097808357E-003  4.190328692529266E-005
  2.342905002427357E-003  4.190328692529266E-005
  2.342908188685785E-003  4.190328692529266E-005
  3.749857569447347E-003  4.190328692529266E-005
  3.749859797633690E-003  4.190328692529266E-005
  4.188265384631263E-003  4.190328692529266E-005
 cut=1d-8, nber non-redundant internal coords=          30
 Check on Eigenvals of non-red overlap matrix:
  0.00004190  0.00005678  0.00005678  0.00009579  0.00009579  0.00012501  0.00025283  0.00025283
  0.00034465  0.00049567  0.00049567  0.00059156  0.00059156  0.00059386  0.00061194  0.00061194
  0.00066895  0.00101556  0.00111059  0.00111059  0.00117131  0.00117131  0.00117145  0.00133136
  0.00133789  0.00234291  0.00234291  0.00374986  0.00374986  0.00418827
 Checking for correct frequencies
 recalc frequencies=
    -0.0   -0.0   -0.0    0.0    0.0    0.0  412.9  412.9  623.2  623.2
   688.9  723.3  862.5  862.5  981.4  981.4 1013.3 1016.6 1023.3 1060.3
  1060.3 1174.7 1197.5 1197.5 1335.2 1381.7 1512.9 1512.9 1637.4 1637.4
  3154.0 3163.6 3163.6 3179.4 3179.4 3190.0
 recalc symmetries=
     B3g    B2u    B1u    B2g    B3u    B1g    B1u    Au     B1g    Ag 
     B1u    B3g    B3g    B2g    B1u    Au     Ag     B3g    B2u    B3u
     B2u    B3u    B1g    Ag     B3u    B1g    B3u    B2u    Ag     B1g
     B2u    B1g    Ag     B3u    B2u    Ag 
 recalc freqs check OK
 Zero-point lengths:
 10.0000 10.0000 10.0000 10.0000 10.0000 10.0000 12.2011 12.2011  9.9307  9.9307
  9.4450  9.2180  8.4414  8.4414  7.9134  7.9134  7.7882  7.7755  7.7497  7.6136
  7.6136  7.2334  7.1639  7.1639  6.7847  6.6693  6.3736  6.3736  6.1265  6.1265
  4.4143  4.4076  4.4076  4.3966  4.3966  4.3893
 highest evec of mol 1
  0.0000  0.1231  0.0000
  0.1066  0.0616  0.0000
  0.1066 -0.0616  0.0000
  0.0000 -0.1231  0.0000
 -0.1066 -0.0616  0.0000
 -0.1066  0.0616  0.0000
  0.0000 -0.3892  0.0000
 -0.3371 -0.1946  0.0000
 -0.3371  0.1946  0.0000
  0.0000  0.3892  0.0000
  0.3371  0.1946  0.0000
  0.3371 -0.1946  0.0000
 generating redundant internal coords
         300        3600          12
 Adding extra bonds for z output only
           6           6           6           6           6           6
           1           1           1           1           1           1
 search for int coords
   1 str   2   1   1.394
   2 str   3   2   1.394
   3 str   4   3   1.394
   4 str   5   4   1.394
   5 str   6   1   1.394
   6 str   6   5   1.394
   7 str   7   1   1.084
   8 str   8   2   1.084
   9 str   9   3   1.084
  10 str  10   4   1.084
  11 str  11   5   1.084
  12 str  12   6   1.084
 nber stretches=          12
  13 ben   1   2   3
  14 prop tor   1   2   3   4
  15 prop tor   1   2   3   9
  16 ben   1   2   8
  17 ben   1   6   5
  18 ben   1   6  12
  19 ben   2   1   6
  20 prop tor   2   1   6   5
  21 prop tor   2   1   6  12
  22 ben   2   1   7
  23 ben   2   3   4
  24 prop tor   2   3   4   5
  25 prop tor   2   3   4  10
  26 ben   2   3   9
  27 ben   3   2   8
  28 ben   3   4   5
  29 prop tor   3   4   5   6
  30 prop tor   3   4   5  11
  31 ben   3   4  10
  32 ben   4   3   9
  33 ben   4   5   6
  34 prop tor   4   5   6   1
  35 prop tor   4   5   6  12
  36 ben   4   5  11
  37 ben   5   4  10
  38 ben   5   6  12
  39 prop tor   6   1   2   3
  40 prop tor   6   1   2   8
  41 ben   6   1   7
  42 ben   6   5  11
  43 prop tor   7   1   2   3
  44 prop tor   7   1   2   8
  45 prop tor   7   1   6   5
  46 prop tor   7   1   6  12
  47 prop tor   8   2   3   4
  48 prop tor   8   2   3   9
  49 prop tor   9   3   4   5
  50 prop tor   9   3   4  10
  51 prop tor  10   4   5   6
  52 prop tor  10   4   5  11
  53 prop tor  11   5   6   1
  54 prop tor  11   5   6  12
 nber bend=              18
 nber lin bend=           0
 nber prop tor=          24
 nber impr tor=           0
 nber tot redund int=          54
 Reading file: 
 ./Benzene_Conj_0_C0S1.log                                                      
                                          
  Entering Gaussian System, Link 0=g16                                          
  
 Gaussian format, type: g94, g98, g03= F F F
  #P Geom=AllCheck Guess=TCheck SCRF=Check GenChk RB3LYP TD(FC,Read)/6-3    
 energy type= TD      
 Original G94 input coords:
  6  1.436851 -0.000329  0.000000
  6  0.710110 -1.236179  0.000000
  6 -0.708238 -1.233649  0.000000
  6 -1.436851  0.000329  0.000000
  6 -0.710110  1.236179  0.000000
  6  0.708238  1.233649  0.000000
  1  2.518930  0.001581  0.000000
  1  1.247470 -2.177766  0.000000
  1 -1.247358 -2.174506  0.000000
  1 -2.518930 -0.001581  0.000000
  1 -1.247470  2.177766  0.000000
  1  1.247358  2.174506  0.000000
 nber atoms=          12
 Original standard coords:
  6  0.716818 -1.245277  0.000000
  6 -0.716818 -1.232302  0.000000
  6 -1.422493 -0.001961  0.000000
  6 -0.716818  1.245277  0.000000
  6  0.716818  1.232302  0.000000
  6  1.422493  0.001961  0.000000
  1  1.258516 -2.182006  0.000000
  1 -1.264570 -2.167881  0.000000
  1 -2.506862 -0.004345  0.000000
  1 -1.258516  2.182006  0.000000
  1  1.264570  2.167881  0.000000
  1  2.506862  0.004345  0.000000
  Total Energy, E(TD-HF/TD-DFT) =  -232.049051913                               
  
          32          49 "  -232.049051913"
After scan for Atom:   Atom  AN      X      Y      Z        X      Y      Z        X      Y      Z   
After scan for Atom:   Atom  AN      X      Y      Z        X      Y      Z        X      Y      Z   
After scan for Atom:   Atom  AN      X      Y      Z        X      Y      Z        X      Y      Z   
After scan for Atom:   Atom  AN      X      Y      Z        X      Y      Z        X      Y      Z   
After scan for Atom:   Atom  AN      X      Y      Z        X      Y      Z        X      Y      Z   
After scan for Atom:   Atom  AN      X      Y      Z        X      Y      Z        X      Y      Z   
After scan for Atom:   Atom  AN      X      Y      Z        X      Y      Z        X      Y      Z   
After scan for Atom:   Atom  AN      X      Y      Z        X      Y      Z        X      Y      Z   
After scan for Atom:   Atom  AN      X      Y      Z        X      Y      Z        X      Y      Z   
After scan for Atom:   Atom  AN      X      Y      Z        X      Y      Z        X      Y      Z   
 g94    frequencies=
     0.0    0.0    0.0    0.0    0.0    0.0 -848.0 -601.5 -515.6 -359.3
  -250.8  422.0  428.9  531.4  579.6  613.8  736.5  866.9  916.7  943.1
   983.9 1151.6 1171.6 1208.6 1230.9 1344.5 1414.6 1439.3 1552.6 2144.0
  3153.2 3163.6 3181.0 3181.8 3201.4 3208.0
 g94    symmetries=
                                                BG     AU     AU     BG
      BG     AU     AG     AU     AU     AG     BG     BU     BU     AG
      BU     BU     AG     AG     BU     AG     BU     BU     AG     AG
      AG     BU     BU     AG     BU     AG
 atomic masses:
 12.0000 12.0000 12.0000 12.0000 12.0000 12.0000  1.0078  1.0078  1.0078  1.0078
  1.0078  1.0078
 looking for force constants in 
 ./Benzene_Conj_0_C0S1.fchk                                                     
  
 Cartesian Force Constants                  R   N=         666                  
  
 n3=          36         666
 g94-fc frequencies=
  -848.0 -601.5 -515.6 -359.4 -250.8   -8.2   -4.7   -0.0    0.0    0.0
     9.4  422.0  428.9  531.4  579.6  613.9  736.5  866.9  916.7  943.1
   983.9 1151.6 1171.6 1208.6 1230.9 1344.5 1414.6 1439.4 1552.6 2144.0
  3153.3 3163.6 3181.1 3181.9 3201.5 3208.1
 at 99999: n3=          36
 symm operator            1 :  T  nop=           1
 symm operator            2 :  F  nop=           1
 symm operator            3 :  F  nop=           1
 symm operator            4 :  T  nop=           2
 symm operator            5 :  T  nop=           3
 symm operator            6 :  F  nop=           3
 symm operator            7 :  F  nop=           3
 The point group of the molecule is C2H
 enforcing symm op           1  jsymt=          -1          -1           1
 enforcing symm op           4  jsymt=          -1          -1          -1
 enforcing symm op           5  jsymt=           1           1          -1
 cartesian coord symmetries:
 Ag :   12 Au :    6 Bg :    6 Bu :   12
 Symmetry rotation matrix:
   1.00000   0.00000   0.00000
   0.00000   1.00000   0.00000
   0.00000   0.00000   1.00000

 Projecting out zero-frequency components
 generating redundant internal coords
         300        3600          12
 search for int coords
   1 str   2   1   1.434
   2 str   3   2   1.418
   3 str   4   3   1.433
   4 str   5   4   1.434
   5 str   6   1   1.433
   6 str   6   5   1.418
   7 str   7   1   1.082
   8 str   8   2   1.084
   9 str   9   3   1.084
  10 str  10   4   1.082
  11 str  11   5   1.084
  12 str  12   6   1.084
 nber stretches=          12
  13 ben   1   2   3
  14 prop tor   1   2   3   4
  15 prop tor   1   2   3   9
  16 ben   1   2   8
  17 ben   1   6   5
  18 ben   1   6  12
  19 ben   2   1   6
  20 prop tor   2   1   6   5
  21 prop tor   2   1   6  12
  22 ben   2   1   7
  23 ben   2   3   4
  24 prop tor   2   3   4   5
  25 prop tor   2   3   4  10
  26 ben   2   3   9
  27 ben   3   2   8
  28 ben   3   4   5
  29 prop tor   3   4   5   6
  30 prop tor   3   4   5  11
  31 ben   3   4  10
  32 ben   4   3   9
  33 ben   4   5   6
  34 prop tor   4   5   6   1
  35 prop tor   4   5   6  12
  36 ben   4   5  11
  37 ben   5   4  10
  38 ben   5   6  12
  39 prop tor   6   1   2   3
  40 prop tor   6   1   2   8
  41 ben   6   1   7
  42 ben   6   5  11
  43 prop tor   7   1   2   3
  44 prop tor   7   1   2   8
  45 prop tor   7   1   6   5
  46 prop tor   7   1   6  12
  47 prop tor   8   2   3   4
  48 prop tor   8   2   3   9
  49 prop tor   9   3   4   5
  50 prop tor   9   3   4  10
  51 prop tor  10   4   5   6
  52 prop tor  10   4   5  11
  53 prop tor  11   5   6   1
  54 prop tor  11   5   6  12
 nber bend=              18
 nber lin bend=           0
 nber prop tor=          24
 nber impr tor=           0
 nber tot redund int=          54
 Eigenvalues of G in red int coords
    Gval -0.00000000 -0.00000000 -0.00000000 -0.00000000 -0.00000000 -0.00000000 -0.00000000 -0.00000000
    Gval -0.00000000 -0.00000000  0.00000000  0.00000000  0.00000000  0.00000000  0.00000000  0.00000000
    Gval  0.00000000  0.00000000  0.00000000  0.00000000  0.00000000  0.00000000  0.00000000  0.00000000
    Gval  0.00004190  0.00005609  0.00005633  0.00009382  0.00009472  0.00012501  0.00024302  0.00024671
    Gval  0.00033193  0.00046131  0.00048740  0.00059159  0.00059164  0.00059386  0.00061035  0.00061098
    Gval  0.00066148  0.00101726  0.00110475  0.00111001  0.00116548  0.00116822  0.00116928  0.00127220
    Gval  0.00134030  0.00232292  0.00234990  0.00371660  0.00376472  0.00418391
  4.190329616332585E-005  4.190329616332585E-005
  5.608793022384419E-005  4.190329616332585E-005
  5.632788772328788E-005  4.190329616332585E-005
  9.381820677442125E-005  4.190329616332585E-005
  9.471891385404911E-005  4.190329616332585E-005
  1.250130069424909E-004  4.190329616332585E-005
  2.430189907347241E-004  4.190329616332585E-005
  2.467075070738479E-004  4.190329616332585E-005
  3.319268148739634E-004  4.190329616332585E-005
  4.613083470187183E-004  4.190329616332585E-005
  4.874041814810558E-004  4.190329616332585E-005
  5.915881891597903E-004  4.190329616332585E-005
  5.916442421821496E-004  4.190329616332585E-005
  5.938599699584625E-004  4.190329616332585E-005
  6.103492473339309E-004  4.190329616332585E-005
  6.109798913160542E-004  4.190329616332585E-005
  6.614827865709814E-004  4.190329616332585E-005
  1.017261445177395E-003  4.190329616332585E-005
  1.104746384063182E-003  4.190329616332585E-005
  1.110011757627397E-003  4.190329616332585E-005
  1.165479687230304E-003  4.190329616332585E-005
  1.168220260792876E-003  4.190329616332585E-005
  1.169279830245389E-003  4.190329616332585E-005
  1.272204126061927E-003  4.190329616332585E-005
  1.340299589310495E-003  4.190329616332585E-005
  2.322922953640849E-003  4.190329616332585E-005
  2.349901792050879E-003  4.190329616332585E-005
  3.716602837456407E-003  4.190329616332585E-005
  3.764716704084378E-003  4.190329616332585E-005
  4.183911051108006E-003  4.190329616332585E-005
 cut=1d-8, nber non-redundant internal coords=          30
 Check on Eigenvals of non-red overlap matrix:
  0.00004190  0.00005609  0.00005633  0.00009382  0.00009472  0.00012501  0.00024302  0.00024671
  0.00033193  0.00046131  0.00048740  0.00059159  0.00059164  0.00059386  0.00061035  0.00061098
  0.00066148  0.00101726  0.00110475  0.00111001  0.00116548  0.00116822  0.00116928  0.00127220
  0.00134030  0.00232292  0.00234990  0.00371660  0.00376472  0.00418391
 Checking for correct frequencies
 recalc frequencies=
  -848.0 -601.5 -515.6 -359.4 -250.8   -0.0   -0.0    0.0    0.0    0.0
     0.0  422.0  428.9  531.4  579.6  613.9  736.5  866.9  916.7  943.1
   983.9 1151.6 1171.6 1208.6 1230.9 1344.5 1414.6 1439.4 1552.6 2144.0
  3153.3 3163.6 3181.1 3181.9 3201.5 3208.1
 recalc symmetries=
     Bg     Au     Au     Bg     Bg     Bg     Bu     Au     Bg     Bu 
     Ag     Au     Ag     Au     Au     Ag     Bg     Bu     Bu     Ag 
     Bu     Bu     Ag     Ag     Bu     Ag     Bu     Bu     Ag     Ag 
     Ag     Bu     Bu     Ag     Bu     Ag 
 recalc freqs check OK
 Zero-point lengths:
  8.5131 10.1081 10.9179 13.0778 15.6544 10.0000 10.0000 10.0000 10.0000 10.0000
 10.0000 12.0681 11.9708 10.7543 10.2978 10.0060  9.1348  8.4201  8.1881  8.0727
  7.9033  7.3053  7.2427  7.1311  7.0662  6.7611  6.5913  6.5344  6.2916  5.3540
  4.4148  4.4076  4.3955  4.3950  4.3815  4.3770
 highest evec of mol 2
 -0.0965  0.1646  0.0000
  0.0347  0.0536  0.0000
  0.0566  0.0017  0.0000
  0.0965 -0.1646  0.0000
 -0.0347 -0.0536  0.0000
 -0.0566 -0.0017  0.0000
  0.3116 -0.5388  0.0000
 -0.1001 -0.1687  0.0000
 -0.1744 -0.0015  0.0000
 -0.3116  0.5388  0.0000
  0.1001  0.1687  0.0000
  0.1744  0.0015  0.0000
 Enter nber and list of atoms to keep of mol #2
 keep list:          12           1           2           3           4
           5           6           7           8           9          10
          11          12
 reordering atoms
           1  -1.40108181718079     
           2 -0.966784877981592     
           3  0.416743126636732     
           4   1.40108181718079     
           5  0.966784877981592     
           6 -0.416743126636733     
           7  -2.45574371743463     
           8  -1.69973972347205     
           9  0.733577415916185     
          10   2.45574371743463     
          11   1.69973972347205     
          12 -0.733577415916185     
           1           1
           2           2
           3           3
           4           4
           5           5
           6           6
           7           7
           8           8
           9           9
          10          10
          11          11
          12          12
 initial cartes coords mol 1
   6   0.00000   1.39386   0.00000
   6   0.00000   0.69693   1.20712
   6   0.00000  -0.69693   1.20712
   6   0.00000  -1.39386   0.00000
   6   0.00000  -0.69693  -1.20712
   6   0.00000   0.69693  -1.20712
   1   0.00000   2.47833   0.00000
   1   0.00000   1.23917   2.14630
   1   0.00000  -1.23917   2.14630
   1   0.00000  -2.47833   0.00000
   1   0.00000  -1.23917  -2.14630
   1   0.00000   1.23917  -2.14630
 initial cartes coords mol 2
   6   0.00000   0.31861  -1.40108
   6   0.00000  -1.04772  -0.96678
   6   0.00000  -1.36008   0.41674
   6   0.00000  -0.31861   1.40108
   6   0.00000   1.04772   0.96678
   6   0.00000   1.36008  -0.41674
   1   0.00000   0.56066  -2.45574
   1   0.00000  -1.84655  -1.69974
   1   0.00000  -2.39713   0.73358
   1   0.00000  -0.56066   2.45574
   1   0.00000   1.84655   1.69974
   1   0.00000   2.39713  -0.73358
 loop 1 0
 mod cartes coords mol 2
   6   0.00000   0.31861  -1.40108
   6   0.00000  -1.04772  -0.96678
   6   0.00000  -1.36008   0.41674
   6   0.00000  -0.31861   1.40108
   6   0.00000   1.04772   0.96678
   6   0.00000   1.36008  -0.41674
   1   0.00000   0.56066  -2.45574
   1   0.00000  -1.84655  -1.69974
   1   0.00000  -2.39713   0.73358
   1   0.00000  -0.56066   2.45574
   1   0.00000   1.84655   1.69974
   1   0.00000   2.39713  -0.73358
 read in order, maxerr=  4.93 for atom   8
 loop 1 1
 mod cartes coords mol 2
   6   0.00000   0.31861  -1.40108
   6   0.00000  -1.04772  -0.96678
   6   0.00000  -1.36008   0.41674
   6   0.00000  -0.31861   1.40108
   6   0.00000   1.04772   0.96678
   6   0.00000   1.36008  -0.41674
   1   0.00000   0.56066  -2.45574
   1   0.00000  -1.84655  -1.69974
   1   0.00000  -2.39713   0.73358
   1   0.00000  -0.56066   2.45574
   1   0.00000   1.84655   1.69974
   1   0.00000   2.39713  -0.73358
 read in order, maxerr=  4.93 for atom   8
 loop 1 2
 mod cartes coords mol 2
   6   0.00000  -0.31861  -1.40108
   6   0.00000   1.04772  -0.96678
   6   0.00000   1.36008   0.41674
   6   0.00000   0.31861   1.40108
   6   0.00000  -1.04772   0.96678
   6   0.00000  -1.36008  -0.41674
   1   0.00000  -0.56066  -2.45574
   1   0.00000   1.84655  -1.69974
   1   0.00000   2.39713   0.73358
   1   0.00000   0.56066   2.45574
   1   0.00000  -1.84655   1.69974
   1   0.00000  -2.39713  -0.73358
 read in order, maxerr=  3.91 for atom   7
 loop 1 3
 mod cartes coords mol 2
   6   0.00000  -0.31861  -1.40108
   6   0.00000   1.04772  -0.96678
   6   0.00000   1.36008   0.41674
   6   0.00000   0.31861   1.40108
   6   0.00000  -1.04772   0.96678
   6   0.00000  -1.36008  -0.41674
   1   0.00000  -0.56066  -2.45574
   1   0.00000   1.84655  -1.69974
   1   0.00000   2.39713   0.73358
   1   0.00000   0.56066   2.45574
   1   0.00000  -1.84655   1.69974
   1   0.00000  -2.39713  -0.73358
 read in order, maxerr=  3.91 for atom   7
 loop 1 4
 mod cartes coords mol 2
   6   0.00000   0.31861   1.40108
   6   0.00000  -1.04772   0.96678
   6   0.00000  -1.36008  -0.41674
   6   0.00000  -0.31861  -1.40108
   6   0.00000   1.04772  -0.96678
   6   0.00000   1.36008   0.41674
   1   0.00000   0.56066   2.45574
   1   0.00000  -1.84655   1.69974
   1   0.00000  -2.39713  -0.73358
   1   0.00000  -0.56066  -2.45574
   1   0.00000   1.84655  -1.69974
   1   0.00000   2.39713   0.73358
 read in order, maxerr=  3.12 for atom   8
 loop 1 5
 mod cartes coords mol 2
   6   0.00000   0.31861   1.40108
   6   0.00000  -1.04772   0.96678
   6   0.00000  -1.36008  -0.41674
   6   0.00000  -0.31861  -1.40108
   6   0.00000   1.04772  -0.96678
   6   0.00000   1.36008   0.41674
   1   0.00000   0.56066   2.45574
   1   0.00000  -1.84655   1.69974
   1   0.00000  -2.39713  -0.73358
   1   0.00000  -0.56066  -2.45574
   1   0.00000   1.84655  -1.69974
   1   0.00000   2.39713   0.73358
 read in order, maxerr=  3.12 for atom   8
 loop 1 6
 mod cartes coords mol 2
   6   0.00000  -0.31861   1.40108
   6   0.00000   1.04772   0.96678
   6   0.00000   1.36008  -0.41674
   6   0.00000   0.31861  -1.40108
   6   0.00000  -1.04772  -0.96678
   6   0.00000  -1.36008   0.41674
   1   0.00000  -0.56066   2.45574
   1   0.00000   1.84655   1.69974
   1   0.00000   2.39713  -0.73358
   1   0.00000   0.56066  -2.45574
   1   0.00000  -1.84655  -1.69974
   1   0.00000  -2.39713   0.73358
 read in order, maxerr=  4.64 for atom   9
 loop 1 7
 mod cartes coords mol 2
   6   0.00000  -0.31861   1.40108
   6   0.00000   1.04772   0.96678
   6   0.00000   1.36008  -0.41674
   6   0.00000   0.31861  -1.40108
   6   0.00000  -1.04772  -0.96678
   6   0.00000  -1.36008   0.41674
   1   0.00000  -0.56066   2.45574
   1   0.00000   1.84655   1.69974
   1   0.00000   2.39713  -0.73358
   1   0.00000   0.56066  -2.45574
   1   0.00000  -1.84655  -1.69974
   1   0.00000  -2.39713   0.73358
 read in order, maxerr=  4.64 for atom   9
 loop 2 0
 mod cartes coords mol 2
   6   0.00000  -1.40108   0.31861
   6   0.00000  -0.96678  -1.04772
   6   0.00000   0.41674  -1.36008
   6   0.00000   1.40108  -0.31861
   6   0.00000   0.96678   1.04772
   6   0.00000  -0.41674   1.36008
   1   0.00000  -2.45574   0.56066
   1   0.00000  -1.69974  -1.84655
   1   0.00000   0.73358  -2.39713
   1   0.00000   2.45574  -0.56066
   1   0.00000   1.69974   1.84655
   1   0.00000  -0.73358   2.39713
 read in order, maxerr=  4.97 for atom   7
 loop 2 1
 mod cartes coords mol 2
   6   0.00000  -1.40108   0.31861
   6   0.00000  -0.96678  -1.04772
   6   0.00000   0.41674  -1.36008
   6   0.00000   1.40108  -0.31861
   6   0.00000   0.96678   1.04772
   6   0.00000  -0.41674   1.36008
   1   0.00000  -2.45574   0.56066
   1   0.00000  -1.69974  -1.84655
   1   0.00000   0.73358  -2.39713
   1   0.00000   2.45574  -0.56066
   1   0.00000   1.69974   1.84655
   1   0.00000  -0.73358   2.39713
 read in order, maxerr=  4.97 for atom   7
 loop 2 2
 mod cartes coords mol 2
   6   0.00000  -1.40108  -0.31861
   6   0.00000  -0.96678   1.04772
   6   0.00000   0.41674   1.36008
   6   0.00000   1.40108   0.31861
   6   0.00000   0.96678  -1.04772
   6   0.00000  -0.41674  -1.36008
   1   0.00000  -2.45574  -0.56066
   1   0.00000  -1.69974   1.84655
   1   0.00000   0.73358   2.39713
   1   0.00000   2.45574   0.56066
   1   0.00000   1.69974  -1.84655
   1   0.00000  -0.73358  -2.39713
 read in order, maxerr=  4.97 for atom   7
 loop 2 3
 mod cartes coords mol 2
   6   0.00000  -1.40108  -0.31861
   6   0.00000  -0.96678   1.04772
   6   0.00000   0.41674   1.36008
   6   0.00000   1.40108   0.31861
   6   0.00000   0.96678  -1.04772
   6   0.00000  -0.41674  -1.36008
   1   0.00000  -2.45574  -0.56066
   1   0.00000  -1.69974   1.84655
   1   0.00000   0.73358   2.39713
   1   0.00000   2.45574   0.56066
   1   0.00000   1.69974  -1.84655
   1   0.00000  -0.73358  -2.39713
 read in order, maxerr=  4.97 for atom   7
 loop 2 4
 mod cartes coords mol 2
   6   0.00000   1.40108   0.31861
   6   0.00000   0.96678  -1.04772
   6   0.00000  -0.41674  -1.36008
   6   0.00000  -1.40108  -0.31861
   6   0.00000  -0.96678   1.04772
   6   0.00000   0.41674   1.36008
   1   0.00000   2.45574   0.56066
   1   0.00000   1.69974  -1.84655
   1   0.00000  -0.73358  -2.39713
   1   0.00000  -2.45574  -0.56066
   1   0.00000  -1.69974   1.84655
   1   0.00000   0.73358   2.39713
 read in order, maxerr=  4.57 for atom   9
 loop 2 5
 mod cartes coords mol 2
   6   0.00000   1.40108   0.31861
   6   0.00000   0.96678  -1.04772
   6   0.00000  -0.41674  -1.36008
   6   0.00000  -1.40108  -0.31861
   6   0.00000  -0.96678   1.04772
   6   0.00000   0.41674   1.36008
   1   0.00000   2.45574   0.56066
   1   0.00000   1.69974  -1.84655
   1   0.00000  -0.73358  -2.39713
   1   0.00000  -2.45574  -0.56066
   1   0.00000  -1.69974   1.84655
   1   0.00000   0.73358   2.39713
 read in order, maxerr=  4.57 for atom   9
 loop 2 6
 mod cartes coords mol 2
   6   0.00000   1.40108  -0.31861
   6   0.00000   0.96678   1.04772
   6   0.00000  -0.41674   1.36008
   6   0.00000  -1.40108   0.31861
   6   0.00000  -0.96678  -1.04772
   6   0.00000   0.41674  -1.36008
   1   0.00000   2.45574  -0.56066
   1   0.00000   1.69974   1.84655
   1   0.00000  -0.73358   2.39713
   1   0.00000  -2.45574   0.56066
   1   0.00000  -1.69974  -1.84655
   1   0.00000   0.73358  -2.39713
 read in order, maxerr=  0.56 for atom   9
 loop 2 7
 mod cartes coords mol 2
   6   0.00000   1.40108  -0.31861
   6   0.00000   0.96678   1.04772
   6   0.00000  -0.41674   1.36008
   6   0.00000  -1.40108   0.31861
   6   0.00000  -0.96678  -1.04772
   6   0.00000   0.41674  -1.36008
   1   0.00000   2.45574  -0.56066
   1   0.00000   1.69974   1.84655
   1   0.00000  -0.73358   2.39713
   1   0.00000  -2.45574   0.56066
   1   0.00000  -1.69974  -1.84655
   1   0.00000   0.73358  -2.39713
 read in order, maxerr=  0.56 for atom   9
 loop 3 0
 mod cartes coords mol 2
   6   0.31861   0.00000  -1.40108
   6  -1.04772   0.00000  -0.96678
   6  -1.36008   0.00000   0.41674
   6  -0.31861   0.00000   1.40108
   6   1.04772   0.00000   0.96678
   6   1.36008   0.00000  -0.41674
   1   0.56066   0.00000  -2.45574
   1  -1.84655   0.00000  -1.69974
   1  -2.39713   0.00000   0.73358
   1  -0.56066   0.00000   2.45574
   1   1.84655   0.00000   1.69974
   1   2.39713   0.00000  -0.73358
 read in order, maxerr=  4.44 for atom   8
 loop 3 1
 mod cartes coords mol 2
   6   0.31861   0.00000  -1.40108
   6  -1.04772   0.00000  -0.96678
   6  -1.36008   0.00000   0.41674
   6  -0.31861   0.00000   1.40108
   6   1.04772   0.00000   0.96678
   6   1.36008   0.00000  -0.41674
   1   0.56066   0.00000  -2.45574
   1  -1.84655   0.00000  -1.69974
   1  -2.39713   0.00000   0.73358
   1  -0.56066   0.00000   2.45574
   1   1.84655   0.00000   1.69974
   1   2.39713   0.00000  -0.73358
 read in order, maxerr=  4.44 for atom   8
 loop 3 2
 mod cartes coords mol 2
   6  -0.31861   0.00000  -1.40108
   6   1.04772   0.00000  -0.96678
   6   1.36008   0.00000   0.41674
   6   0.31861   0.00000   1.40108
   6  -1.04772   0.00000   0.96678
   6  -1.36008   0.00000  -0.41674
   1  -0.56066   0.00000  -2.45574
   1   1.84655   0.00000  -1.69974
   1   2.39713   0.00000   0.73358
   1   0.56066   0.00000   2.45574
   1  -1.84655   0.00000   1.69974
   1  -2.39713   0.00000  -0.73358
 read in order, maxerr=  4.44 for atom   8
 loop 3 3
 mod cartes coords mol 2
   6  -0.31861   0.00000  -1.40108
   6   1.04772   0.00000  -0.96678
   6   1.36008   0.00000   0.41674
   6   0.31861   0.00000   1.40108
   6  -1.04772   0.00000   0.96678
   6  -1.36008   0.00000  -0.41674
   1  -0.56066   0.00000  -2.45574
   1   1.84655   0.00000  -1.69974
   1   2.39713   0.00000   0.73358
   1   0.56066   0.00000   2.45574
   1  -1.84655   0.00000   1.69974
   1  -2.39713   0.00000  -0.73358
 read in order, maxerr=  4.44 for atom   8
 loop 3 4
 mod cartes coords mol 2
   6   0.31861   0.00000   1.40108
   6  -1.04772   0.00000   0.96678
   6  -1.36008   0.00000  -0.41674
   6  -0.31861   0.00000  -1.40108
   6   1.04772   0.00000  -0.96678
   6   1.36008   0.00000   0.41674
   1   0.56066   0.00000   2.45574
   1  -1.84655   0.00000   1.69974
   1  -2.39713   0.00000  -0.73358
   1  -0.56066   0.00000  -2.45574
   1   1.84655   0.00000  -1.69974
   1   2.39713   0.00000   0.73358
 read in order, maxerr=  3.95 for atom   9
 loop 3 5
 mod cartes coords mol 2
   6   0.31861   0.00000   1.40108
   6  -1.04772   0.00000   0.96678
   6  -1.36008   0.00000  -0.41674
   6  -0.31861   0.00000  -1.40108
   6   1.04772   0.00000  -0.96678
   6   1.36008   0.00000   0.41674
   1   0.56066   0.00000   2.45574
   1  -1.84655   0.00000   1.69974
   1  -2.39713   0.00000  -0.73358
   1  -0.56066   0.00000  -2.45574
   1   1.84655   0.00000  -1.69974
   1   2.39713   0.00000   0.73358
 read in order, maxerr=  3.95 for atom   9
 loop 3 6
 mod cartes coords mol 2
   6  -0.31861   0.00000   1.40108
   6   1.04772   0.00000   0.96678
   6   1.36008   0.00000  -0.41674
   6   0.31861   0.00000  -1.40108
   6  -1.04772   0.00000  -0.96678
   6  -1.36008   0.00000   0.41674
   1  -0.56066   0.00000   2.45574
   1   1.84655   0.00000   1.69974
   1   2.39713   0.00000  -0.73358
   1   0.56066   0.00000  -2.45574
   1  -1.84655   0.00000  -1.69974
   1  -2.39713   0.00000   0.73358
 read in order, maxerr=  3.95 for atom   9
 loop 3 7
 mod cartes coords mol 2
   6  -0.31861   0.00000   1.40108
   6   1.04772   0.00000   0.96678
   6   1.36008   0.00000  -0.41674
   6   0.31861   0.00000  -1.40108
   6  -1.04772   0.00000  -0.96678
   6  -1.36008   0.00000   0.41674
   1  -0.56066   0.00000   2.45574
   1   1.84655   0.00000   1.69974
   1   2.39713   0.00000  -0.73358
   1   0.56066   0.00000  -2.45574
   1  -1.84655   0.00000  -1.69974
   1  -2.39713   0.00000   0.73358
 read in order, maxerr=  3.95 for atom   9
 loop 4 0
 mod cartes coords mol 2
   6  -1.40108   0.00000   0.31861
   6  -0.96678   0.00000  -1.04772
   6   0.41674   0.00000  -1.36008
   6   1.40108   0.00000  -0.31861
   6   0.96678   0.00000   1.04772
   6  -0.41674   0.00000   1.36008
   1  -2.45574   0.00000   0.56066
   1  -1.69974   0.00000  -1.84655
   1   0.73358   0.00000  -2.39713
   1   2.45574   0.00000  -0.56066
   1   1.69974   0.00000   1.84655
   1  -0.73358   0.00000   2.39713
 read in order, maxerr=  4.77 for atom   9
 loop 4 1
 mod cartes coords mol 2
   6  -1.40108   0.00000   0.31861
   6  -0.96678   0.00000  -1.04772
   6   0.41674   0.00000  -1.36008
   6   1.40108   0.00000  -0.31861
   6   0.96678   0.00000   1.04772
   6  -0.41674   0.00000   1.36008
   1  -2.45574   0.00000   0.56066
   1  -1.69974   0.00000  -1.84655
   1   0.73358   0.00000  -2.39713
   1   2.45574   0.00000  -0.56066
   1   1.69974   0.00000   1.84655
   1  -0.73358   0.00000   2.39713
 read in order, maxerr=  4.77 for atom   9
 loop 4 2
 mod cartes coords mol 2
   6  -1.40108   0.00000  -0.31861
   6  -0.96678   0.00000   1.04772
   6   0.41674   0.00000   1.36008
   6   1.40108   0.00000   0.31861
   6   0.96678   0.00000  -1.04772
   6  -0.41674   0.00000  -1.36008
   1  -2.45574   0.00000  -0.56066
   1  -1.69974   0.00000   1.84655
   1   0.73358   0.00000   2.39713
   1   2.45574   0.00000   0.56066
   1   1.69974   0.00000  -1.84655
   1  -0.73358   0.00000  -2.39713
 read in order, maxerr=  3.53 for atom   7
 loop 4 3
 mod cartes coords mol 2
   6  -1.40108   0.00000  -0.31861
   6  -0.96678   0.00000   1.04772
   6   0.41674   0.00000   1.36008
   6   1.40108   0.00000   0.31861
   6   0.96678   0.00000  -1.04772
   6  -0.41674   0.00000  -1.36008
   1  -2.45574   0.00000  -0.56066
   1  -1.69974   0.00000   1.84655
   1   0.73358   0.00000   2.39713
   1   2.45574   0.00000   0.56066
   1   1.69974   0.00000  -1.84655
   1  -0.73358   0.00000  -2.39713
 read in order, maxerr=  3.53 for atom   7
 loop 4 4
 mod cartes coords mol 2
   6   1.40108   0.00000   0.31861
   6   0.96678   0.00000  -1.04772
   6  -0.41674   0.00000  -1.36008
   6  -1.40108   0.00000  -0.31861
   6  -0.96678   0.00000   1.04772
   6   0.41674   0.00000   1.36008
   1   2.45574   0.00000   0.56066
   1   1.69974   0.00000  -1.84655
   1  -0.73358   0.00000  -2.39713
   1  -2.45574   0.00000  -0.56066
   1  -1.69974   0.00000   1.84655
   1   0.73358   0.00000   2.39713
 read in order, maxerr=  4.77 for atom   9
 loop 4 5
 mod cartes coords mol 2
   6   1.40108   0.00000   0.31861
   6   0.96678   0.00000  -1.04772
   6  -0.41674   0.00000  -1.36008
   6  -1.40108   0.00000  -0.31861
   6  -0.96678   0.00000   1.04772
   6   0.41674   0.00000   1.36008
   1   2.45574   0.00000   0.56066
   1   1.69974   0.00000  -1.84655
   1  -0.73358   0.00000  -2.39713
   1  -2.45574   0.00000  -0.56066
   1  -1.69974   0.00000   1.84655
   1   0.73358   0.00000   2.39713
 read in order, maxerr=  4.77 for atom   9
 loop 4 6
 mod cartes coords mol 2
   6   1.40108   0.00000  -0.31861
   6   0.96678   0.00000   1.04772
   6  -0.41674   0.00000   1.36008
   6  -1.40108   0.00000   0.31861
   6  -0.96678   0.00000  -1.04772
   6   0.41674   0.00000  -1.36008
   1   2.45574   0.00000  -0.56066
   1   1.69974   0.00000   1.84655
   1  -0.73358   0.00000   2.39713
   1  -2.45574   0.00000   0.56066
   1  -1.69974   0.00000  -1.84655
   1   0.73358   0.00000  -2.39713
 read in order, maxerr=  3.53 for atom   7
 loop 4 7
 mod cartes coords mol 2
   6   1.40108   0.00000  -0.31861
   6   0.96678   0.00000   1.04772
   6  -0.41674   0.00000   1.36008
   6  -1.40108   0.00000   0.31861
   6  -0.96678   0.00000  -1.04772
   6   0.41674   0.00000  -1.36008
   1   2.45574   0.00000  -0.56066
   1   1.69974   0.00000   1.84655
   1  -0.73358   0.00000   2.39713
   1  -2.45574   0.00000   0.56066
   1  -1.69974   0.00000  -1.84655
   1   0.73358   0.00000  -2.39713
 read in order, maxerr=  3.53 for atom   7
 loop 5 0
 mod cartes coords mol 2
   6   0.31861  -1.40108   0.00000
   6  -1.04772  -0.96678   0.00000
   6  -1.36008   0.41674   0.00000
   6  -0.31861   1.40108   0.00000
   6   1.04772   0.96678   0.00000
   6   1.36008  -0.41674   0.00000
   1   0.56066  -2.45574   0.00000
   1  -1.84655  -1.69974   0.00000
   1  -2.39713   0.73358   0.00000
   1  -0.56066   2.45574   0.00000
   1   1.84655   1.69974   0.00000
   1   2.39713  -0.73358   0.00000
 read in order, maxerr=  4.97 for atom   7
 loop 5 1
 mod cartes coords mol 2
   6   0.31861  -1.40108   0.00000
   6  -1.04772  -0.96678   0.00000
   6  -1.36008   0.41674   0.00000
   6  -0.31861   1.40108   0.00000
   6   1.04772   0.96678   0.00000
   6   1.36008  -0.41674   0.00000
   1   0.56066  -2.45574   0.00000
   1  -1.84655  -1.69974   0.00000
   1  -2.39713   0.73358   0.00000
   1  -0.56066   2.45574   0.00000
   1   1.84655   1.69974   0.00000
   1   2.39713  -0.73358   0.00000
 read in order, maxerr=  4.97 for atom   7
 loop 5 2
 mod cartes coords mol 2
   6  -0.31861  -1.40108   0.00000
   6   1.04772  -0.96678   0.00000
   6   1.36008   0.41674   0.00000
   6   0.31861   1.40108   0.00000
   6  -1.04772   0.96678   0.00000
   6  -1.36008  -0.41674   0.00000
   1  -0.56066  -2.45574   0.00000
   1   1.84655  -1.69974   0.00000
   1   2.39713   0.73358   0.00000
   1   0.56066   2.45574   0.00000
   1  -1.84655   1.69974   0.00000
   1  -2.39713  -0.73358   0.00000
 read in order, maxerr=  4.97 for atom   7
 loop 5 3
 mod cartes coords mol 2
   6  -0.31861  -1.40108   0.00000
   6   1.04772  -0.96678   0.00000
   6   1.36008   0.41674   0.00000
   6   0.31861   1.40108   0.00000
   6  -1.04772   0.96678   0.00000
   6  -1.36008  -0.41674   0.00000
   1  -0.56066  -2.45574   0.00000
   1   1.84655  -1.69974   0.00000
   1   2.39713   0.73358   0.00000
   1   0.56066   2.45574   0.00000
   1  -1.84655   1.69974   0.00000
   1  -2.39713  -0.73358   0.00000
 read in order, maxerr=  4.97 for atom   7
 loop 5 4
 mod cartes coords mol 2
   6   0.31861   1.40108   0.00000
   6  -1.04772   0.96678   0.00000
   6  -1.36008  -0.41674   0.00000
   6  -0.31861  -1.40108   0.00000
   6   1.04772  -0.96678   0.00000
   6   1.36008   0.41674   0.00000
   1   0.56066   2.45574   0.00000
   1  -1.84655   1.69974   0.00000
   1  -2.39713  -0.73358   0.00000
   1  -0.56066  -2.45574   0.00000
   1   1.84655  -1.69974   0.00000
   1   2.39713   0.73358   0.00000
 read in order, maxerr=  3.26 for atom   9
 loop 5 5
 mod cartes coords mol 2
   6   0.31861   1.40108   0.00000
   6  -1.04772   0.96678   0.00000
   6  -1.36008  -0.41674   0.00000
   6  -0.31861  -1.40108   0.00000
   6   1.04772  -0.96678   0.00000
   6   1.36008   0.41674   0.00000
   1   0.56066   2.45574   0.00000
   1  -1.84655   1.69974   0.00000
   1  -2.39713  -0.73358   0.00000
   1  -0.56066  -2.45574   0.00000
   1   1.84655  -1.69974   0.00000
   1   2.39713   0.73358   0.00000
 read in order, maxerr=  3.26 for atom   9
 loop 5 6
 mod cartes coords mol 2
   6  -0.31861   1.40108   0.00000
   6   1.04772   0.96678   0.00000
   6   1.36008  -0.41674   0.00000
   6   0.31861  -1.40108   0.00000
   6  -1.04772  -0.96678   0.00000
   6  -1.36008   0.41674   0.00000
   1  -0.56066   2.45574   0.00000
   1   1.84655   1.69974   0.00000
   1   2.39713  -0.73358   0.00000
   1   0.56066  -2.45574   0.00000
   1  -1.84655  -1.69974   0.00000
   1  -2.39713   0.73358   0.00000
 read in order, maxerr=  3.26 for atom   9
 loop 5 7
 mod cartes coords mol 2
   6  -0.31861   1.40108   0.00000
   6   1.04772   0.96678   0.00000
   6   1.36008  -0.41674   0.00000
   6   0.31861  -1.40108   0.00000
   6  -1.04772  -0.96678   0.00000
   6  -1.36008   0.41674   0.00000
   1  -0.56066   2.45574   0.00000
   1   1.84655   1.69974   0.00000
   1   2.39713  -0.73358   0.00000
   1   0.56066  -2.45574   0.00000
   1  -1.84655  -1.69974   0.00000
   1  -2.39713   0.73358   0.00000
 read in order, maxerr=  3.26 for atom   9
 loop 6 0
 mod cartes coords mol 2
   6  -1.40108   0.31861   0.00000
   6  -0.96678  -1.04772   0.00000
   6   0.41674  -1.36008   0.00000
   6   1.40108  -0.31861   0.00000
   6   0.96678   1.04772   0.00000
   6  -0.41674   1.36008   0.00000
   1  -2.45574   0.56066   0.00000
   1  -1.69974  -1.84655   0.00000
   1   0.73358  -2.39713   0.00000
   1   2.45574  -0.56066   0.00000
   1   1.69974   1.84655   0.00000
   1  -0.73358   2.39713   0.00000
 read in order, maxerr=  4.13 for atom   8
 loop 6 1
 mod cartes coords mol 2
   6  -1.40108   0.31861   0.00000
   6  -0.96678  -1.04772   0.00000
   6   0.41674  -1.36008   0.00000
   6   1.40108  -0.31861   0.00000
   6   0.96678   1.04772   0.00000
   6  -0.41674   1.36008   0.00000
   1  -2.45574   0.56066   0.00000
   1  -1.69974  -1.84655   0.00000
   1   0.73358  -2.39713   0.00000
   1   2.45574  -0.56066   0.00000
   1   1.69974   1.84655   0.00000
   1  -0.73358   2.39713   0.00000
 read in order, maxerr=  4.13 for atom   8
 loop 6 2
 mod cartes coords mol 2
   6  -1.40108  -0.31861   0.00000
   6  -0.96678   1.04772   0.00000
   6   0.41674   1.36008   0.00000
   6   1.40108   0.31861   0.00000
   6   0.96678  -1.04772   0.00000
   6  -0.41674  -1.36008   0.00000
   1  -2.45574  -0.56066   0.00000
   1  -1.69974   1.84655   0.00000
   1   0.73358   2.39713   0.00000
   1   2.45574   0.56066   0.00000
   1   1.69974  -1.84655   0.00000
   1  -0.73358  -2.39713   0.00000
 read in order, maxerr=  4.29 for atom   9
 loop 6 3
 mod cartes coords mol 2
   6  -1.40108  -0.31861   0.00000
   6  -0.96678   1.04772   0.00000
   6   0.41674   1.36008   0.00000
   6   1.40108   0.31861   0.00000
   6   0.96678  -1.04772   0.00000
   6  -0.41674  -1.36008   0.00000
   1  -2.45574  -0.56066   0.00000
   1  -1.69974   1.84655   0.00000
   1   0.73358   2.39713   0.00000
   1   2.45574   0.56066   0.00000
   1   1.69974  -1.84655   0.00000
   1  -0.73358  -2.39713   0.00000
 read in order, maxerr=  4.29 for atom   9
 loop 6 4
 mod cartes coords mol 2
   6   1.40108   0.31861   0.00000
   6   0.96678  -1.04772   0.00000
   6  -0.41674  -1.36008   0.00000
   6  -1.40108  -0.31861   0.00000
   6  -0.96678   1.04772   0.00000
   6   0.41674   1.36008   0.00000
   1   2.45574   0.56066   0.00000
   1   1.69974  -1.84655   0.00000
   1  -0.73358  -2.39713   0.00000
   1  -2.45574  -0.56066   0.00000
   1  -1.69974   1.84655   0.00000
   1   0.73358   2.39713   0.00000
 read in order, maxerr=  4.13 for atom   8
 loop 6 5
 mod cartes coords mol 2
   6   1.40108   0.31861   0.00000
   6   0.96678  -1.04772   0.00000
   6  -0.41674  -1.36008   0.00000
   6  -1.40108  -0.31861   0.00000
   6  -0.96678   1.04772   0.00000
   6   0.41674   1.36008   0.00000
   1   2.45574   0.56066   0.00000
   1   1.69974  -1.84655   0.00000
   1  -0.73358  -2.39713   0.00000
   1  -2.45574  -0.56066   0.00000
   1  -1.69974   1.84655   0.00000
   1   0.73358   2.39713   0.00000
 read in order, maxerr=  4.13 for atom   8
 loop 6 6
 mod cartes coords mol 2
   6   1.40108  -0.31861   0.00000
   6   0.96678   1.04772   0.00000
   6  -0.41674   1.36008   0.00000
   6  -1.40108   0.31861   0.00000
   6  -0.96678  -1.04772   0.00000
   6   0.41674  -1.36008   0.00000
   1   2.45574  -0.56066   0.00000
   1   1.69974   1.84655   0.00000
   1  -0.73358   2.39713   0.00000
   1  -2.45574   0.56066   0.00000
   1  -1.69974  -1.84655   0.00000
   1   0.73358  -2.39713   0.00000
 read in order, maxerr=  4.29 for atom   9
 loop 6 7
 mod cartes coords mol 2
   6   1.40108  -0.31861   0.00000
   6   0.96678   1.04772   0.00000
   6  -0.41674   1.36008   0.00000
   6  -1.40108   0.31861   0.00000
   6  -0.96678  -1.04772   0.00000
   6   0.41674  -1.36008   0.00000
   1   2.45574  -0.56066   0.00000
   1   1.69974   1.84655   0.00000
   1  -0.73358   2.39713   0.00000
   1  -2.45574   0.56066   0.00000
   1  -1.69974  -1.84655   0.00000
   1   0.73358  -2.39713   0.00000
 read in order, maxerr=  4.29 for atom   9
 settling for map=           6  swap=           1  maxerr=
  0.564390668012549     
 loop 2 6
 mod cartes coords mol 2
   6   0.00000   1.40108  -0.31861
   6   0.00000   0.96678   1.04772
   6   0.00000  -0.41674   1.36008
   6   0.00000  -1.40108   0.31861
   6   0.00000  -0.96678  -1.04772
   6   0.00000   0.41674  -1.36008
   1   0.00000   2.45574  -0.56066
   1   0.00000   1.69974   1.84655
   1   0.00000  -0.73358   2.39713
   1   0.00000  -2.45574   0.56066
   1   0.00000  -1.69974  -1.84655
   1   0.00000   0.73358  -2.39713
 read in order, maxerr=  0.56 for atom   9
 final axis swaps:           1          -1          -1
 final xyz swap pattern=           2
 reorder list:
   1   2   3   4   5   6   7   8   9  10  11  12
 axis signs=           1          -1          -1
  6     0.000000  1.401082 -0.318610     0.000000  1.393861  0.000000
  6     0.000000  0.966785  1.047723     0.000000  0.696930  1.207119
  6     0.000000 -0.416743  1.360079     0.000000 -0.696930  1.207119
  6     0.000000 -1.401082  0.318610     0.000000 -1.393861  0.000000
  6     0.000000 -0.966785 -1.047723     0.000000 -0.696930 -1.207119
  6     0.000000  0.416743 -1.360079     0.000000  0.696930 -1.207119
  1     0.000000  2.455744 -0.560656     0.000000  2.478330  0.000000
  1     0.000000  1.699740  1.846545     0.000000  1.239165  2.146297
  1     0.000000 -0.733577  2.397132     0.000000 -1.239165  2.146297
  1     0.000000 -2.455744  0.560656     0.000000 -2.478330  0.000000
  1     0.000000 -1.699740 -1.846545     0.000000 -1.239165 -2.146297
  1     0.000000  0.733577 -2.397132     0.000000  1.239165 -2.146297
 generating redundant internal coords
         300        3600          12
 Adding extra bonds for z output only
           6           6           6           6           6           6
           1           1           1           1           1           1
 search for int coords
   1 str   2   1   1.434
   2 str   3   2   1.418
   3 str   4   3   1.433
   4 str   5   4   1.434
   5 str   6   1   1.433
   6 str   6   5   1.418
   7 str   7   1   1.082
   8 str   8   2   1.084
   9 str   9   3   1.084
  10 str  10   4   1.082
  11 str  11   5   1.084
  12 str  12   6   1.084
 nber stretches=          12
  13 ben   1   2   3
  14 prop tor   1   2   3   4
  15 prop tor   1   2   3   9
  16 ben   1   2   8
  17 ben   1   6   5
  18 ben   1   6  12
  19 ben   2   1   6
  20 prop tor   2   1   6   5
  21 prop tor   2   1   6  12
  22 ben   2   1   7
  23 ben   2   3   4
  24 prop tor   2   3   4   5
  25 prop tor   2   3   4  10
  26 ben   2   3   9
  27 ben   3   2   8
  28 ben   3   4   5
  29 prop tor   3   4   5   6
  30 prop tor   3   4   5  11
  31 ben   3   4  10
  32 ben   4   3   9
  33 ben   4   5   6
  34 prop tor   4   5   6   1
  35 prop tor   4   5   6  12
  36 ben   4   5  11
  37 ben   5   4  10
  38 ben   5   6  12
  39 prop tor   6   1   2   3
  40 prop tor   6   1   2   8
  41 ben   6   1   7
  42 ben   6   5  11
  43 prop tor   7   1   2   3
  44 prop tor   7   1   2   8
  45 prop tor   7   1   6   5
  46 prop tor   7   1   6  12
  47 prop tor   8   2   3   4
  48 prop tor   8   2   3   9
  49 prop tor   9   3   4   5
  50 prop tor   9   3   4  10
  51 prop tor  10   4   5   6
  52 prop tor  10   4   5  11
  53 prop tor  11   5   6   1
  54 prop tor  11   5   6  12
 nber bend=              18
 nber lin bend=           0
 nber prop tor=          24
 nber impr tor=           0
 nber tot redund int=          54
 generating redundant internal coords
         300        3600          12
 search for int coords
   1 str   2   1   1.394
   2 str   3   2   1.394
   3 str   4   3   1.394
   4 str   5   4   1.394
   5 str   6   1   1.394
   6 str   6   5   1.394
   7 str   7   1   1.084
   8 str   8   2   1.084
   9 str   9   3   1.084
  10 str  10   4   1.084
  11 str  11   5   1.084
  12 str  12   6   1.084
 nber stretches=          12
  13 ben   1   2   3
  14 prop tor   1   2   3   4
  15 prop tor   1   2   3   9
  16 ben   1   2   8
  17 ben   1   6   5
  18 ben   1   6  12
  19 ben   2   1   6
  20 prop tor   2   1   6   5
  21 prop tor   2   1   6  12
  22 ben   2   1   7
  23 ben   2   3   4
  24 prop tor   2   3   4   5
  25 prop tor   2   3   4  10
  26 ben   2   3   9
  27 ben   3   2   8
  28 ben   3   4   5
  29 prop tor   3   4   5   6
  30 prop tor   3   4   5  11
  31 ben   3   4  10
  32 ben   4   3   9
  33 ben   4   5   6
  34 prop tor   4   5   6   1
  35 prop tor   4   5   6  12
  36 ben   4   5  11
  37 ben   5   4  10
  38 ben   5   6  12
  39 prop tor   6   1   2   3
  40 prop tor   6   1   2   8
  41 ben   6   1   7
  42 ben   6   5  11
  43 prop tor   7   1   2   3
  44 prop tor   7   1   2   8
  45 prop tor   7   1   6   5
  46 prop tor   7   1   6  12
  47 prop tor   8   2   3   4
  48 prop tor   8   2   3   9
  49 prop tor   9   3   4   5
  50 prop tor   9   3   4  10
  51 prop tor  10   4   5   6
  52 prop tor  10   4   5  11
  53 prop tor  11   5   6   1
  54 prop tor  11   5   6  12
 nber bend=              18
 nber lin bend=           0
 nber prop tor=          24
 nber impr tor=           0
 nber tot redund int=          54
 Eigenvalues of G in red int coords
    Gval -0.00000000 -0.00000000 -0.00000000 -0.00000000 -0.00000000 -0.00000000 -0.00000000 -0.00000000
    Gval -0.00000000 -0.00000000 -0.00000000  0.00000000  0.00000000  0.00000000  0.00000000  0.00000000
    Gval  0.00000000  0.00000000  0.00000000  0.00000000  0.00000000  0.00000000  0.00000000  0.00000000
    Gval  0.00004190  0.00005678  0.00005678  0.00009579  0.00009579  0.00012501  0.00025283  0.00025283
    Gval  0.00034465  0.00049567  0.00049567  0.00059156  0.00059156  0.00059386  0.00061194  0.00061194
    Gval  0.00066895  0.00101556  0.00111059  0.00111059  0.00117131  0.00117131  0.00117145  0.00133136
    Gval  0.00133789  0.00234291  0.00234291  0.00374986  0.00374986  0.00418827
  4.190328692529285E-005  4.190328692529285E-005
  5.678248456911212E-005  4.190328692529285E-005
  5.678248711406736E-005  4.190328692529285E-005
  9.578884679035511E-005  4.190328692529285E-005
  9.578889071357633E-005  4.190328692529285E-005
  1.250099391597937E-004  4.190328692529285E-005
  2.528251000898449E-004  4.190328692529285E-005
  2.528253545265640E-004  4.190328692529285E-005
  3.446450293198796E-004  4.190328692529285E-005
  4.956692060019774E-004  4.190328692529285E-005
  4.956703251077475E-004  4.190328692529285E-005
  5.915580954380411E-004  4.190328692529285E-005
  5.915580994594922E-004  4.190328692529285E-005
  5.938597688794236E-004  4.190328692529285E-005
  6.119364471242840E-004  4.190328692529285E-005
  6.119364889541813E-004  4.190328692529285E-005
  6.689500099480617E-004  4.190328692529285E-005
  1.015556634195099E-003  4.190328692529285E-005
  1.110585022710177E-003  4.190328692529285E-005
  1.110585866171008E-003  4.190328692529285E-005
  1.171309754392502E-003  4.190328692529285E-005
  1.171310305427281E-003  4.190328692529285E-005
  1.171453297780129E-003  4.190328692529285E-005
  1.331356590740586E-003  4.190328692529285E-005
  1.337891097808359E-003  4.190328692529285E-005
  2.342905002427358E-003  4.190328692529285E-005
  2.342908188685785E-003  4.190328692529285E-005
  3.749857569447346E-003  4.190328692529285E-005
  3.749859797633687E-003  4.190328692529285E-005
  4.188265384631263E-003  4.190328692529285E-005
 cut=1d-8, nber non-redundant internal coords=          30
 Check on Eigenvals of non-red overlap matrix:
  0.00004190  0.00005678  0.00005678  0.00009579  0.00009579  0.00012501  0.00025283  0.00025283
  0.00034465  0.00049567  0.00049567  0.00059156  0.00059156  0.00059386  0.00061194  0.00061194
  0.00066895  0.00101556  0.00111059  0.00111059  0.00117131  0.00117131  0.00117145  0.00133136
  0.00133789  0.00234291  0.00234291  0.00374986  0.00374986  0.00418827
 generating redundant internal coords
         300        3600          12
 search for int coords
   1 str   2   1   1.434
   2 str   3   2   1.418
   3 str   4   3   1.433
   4 str   5   4   1.434
   5 str   6   1   1.433
   6 str   6   5   1.418
   7 str   7   1   1.082
   8 str   8   2   1.084
   9 str   9   3   1.084
  10 str  10   4   1.082
  11 str  11   5   1.084
  12 str  12   6   1.084
 nber stretches=          12
  13 ben   1   2   3
  14 prop tor   1   2   3   4
  15 prop tor   1   2   3   9
  16 ben   1   2   8
  17 ben   1   6   5
  18 ben   1   6  12
  19 ben   2   1   6
  20 prop tor   2   1   6   5
  21 prop tor   2   1   6  12
  22 ben   2   1   7
  23 ben   2   3   4
  24 prop tor   2   3   4   5
  25 prop tor   2   3   4  10
  26 ben   2   3   9
  27 ben   3   2   8
  28 ben   3   4   5
  29 prop tor   3   4   5   6
  30 prop tor   3   4   5  11
  31 ben   3   4  10
  32 ben   4   3   9
  33 ben   4   5   6
  34 prop tor   4   5   6   1
  35 prop tor   4   5   6  12
  36 ben   4   5  11
  37 ben   5   4  10
  38 ben   5   6  12
  39 prop tor   6   1   2   3
  40 prop tor   6   1   2   8
  41 ben   6   1   7
  42 ben   6   5  11
  43 prop tor   7   1   2   3
  44 prop tor   7   1   2   8
  45 prop tor   7   1   6   5
  46 prop tor   7   1   6  12
  47 prop tor   8   2   3   4
  48 prop tor   8   2   3   9
  49 prop tor   9   3   4   5
  50 prop tor   9   3   4  10
  51 prop tor  10   4   5   6
  52 prop tor  10   4   5  11
  53 prop tor  11   5   6   1
  54 prop tor  11   5   6  12
 nber bend=              18
 nber lin bend=           0
 nber prop tor=          24
 nber impr tor=           0
 nber tot redund int=          54
 Eigenvalues of G in red int coords
    Gval -0.00000000 -0.00000000 -0.00000000 -0.00000000 -0.00000000 -0.00000000 -0.00000000 -0.00000000
    Gval -0.00000000 -0.00000000 -0.00000000 -0.00000000 -0.00000000  0.00000000  0.00000000  0.00000000
    Gval  0.00000000  0.00000000  0.00000000  0.00000000  0.00000000  0.00000000  0.00000000  0.00000000
    Gval  0.00004190  0.00005609  0.00005633  0.00009382  0.00009472  0.00012501  0.00024302  0.00024671
    Gval  0.00033193  0.00046131  0.00048740  0.00059159  0.00059164  0.00059386  0.00061035  0.00061098
    Gval  0.00066148  0.00101726  0.00110475  0.00111001  0.00116548  0.00116822  0.00116928  0.00127220
    Gval  0.00134030  0.00232292  0.00234990  0.00371660  0.00376472  0.00418391
  4.190329616332560E-005  4.190329616332560E-005
  5.608793022384436E-005  4.190329616332560E-005
  5.632788772328851E-005  4.190329616332560E-005
  9.381820677442090E-005  4.190329616332560E-005
  9.471891385404879E-005  4.190329616332560E-005
  1.250130069424912E-004  4.190329616332560E-005
  2.430189907347242E-004  4.190329616332560E-005
  2.467075070738481E-004  4.190329616332560E-005
  3.319268148739630E-004  4.190329616332560E-005
  4.613083470187191E-004  4.190329616332560E-005
  4.874041814810556E-004  4.190329616332560E-005
  5.915881891597909E-004  4.190329616332560E-005
  5.916442421821491E-004  4.190329616332560E-005
  5.938599699584627E-004  4.190329616332560E-005
  6.103492473339312E-004  4.190329616332560E-005
  6.109798913160542E-004  4.190329616332560E-005
  6.614827865709810E-004  4.190329616332560E-005
  1.017261445177395E-003  4.190329616332560E-005
  1.104746384063182E-003  4.190329616332560E-005
  1.110011757627397E-003  4.190329616332560E-005
  1.165479687230305E-003  4.190329616332560E-005
  1.168220260792877E-003  4.190329616332560E-005
  1.169279830245389E-003  4.190329616332560E-005
  1.272204126061927E-003  4.190329616332560E-005
  1.340299589310497E-003  4.190329616332560E-005
  2.322922953640852E-003  4.190329616332560E-005
  2.349901792050880E-003  4.190329616332560E-005
  3.716602837456410E-003  4.190329616332560E-005
  3.764716704084383E-003  4.190329616332560E-005
  4.183911051108009E-003  4.190329616332560E-005
 cut=1d-8, nber non-redundant internal coords=          30
 Check on Eigenvals of non-red overlap matrix:
  0.00004190  0.00005609  0.00005633  0.00009382  0.00009472  0.00012501  0.00024302  0.00024671
  0.00033193  0.00046131  0.00048740  0.00059159  0.00059164  0.00059386  0.00061035  0.00061098
  0.00066148  0.00101726  0.00110475  0.00111001  0.00116548  0.00116822  0.00116928  0.00127220
  0.00134030  0.00232292  0.00234990  0.00371660  0.00376472  0.00418391
 d1=
  13.0   0.3   0.1  -0.0   0.0   0.0  -2.4   0.4   0.0   0.0  -0.0  -0.0  -0.0   0.4  -0.5   0.1   0.0   0.0   0.3  -0.0
   0.0   0.0   0.0   0.0   0.0   0.0  -0.0  -0.0  -0.0  -0.0
 d2=
 -13.0   0.3  -0.1   0.0   0.0   0.0  -2.5  -0.5   0.0  -0.0   0.0   0.0  -0.0   0.4   0.5   0.1   0.0   0.0  -0.3  -0.0
   0.0   0.0  -0.0  -0.0  -0.0   0.0   0.0  -0.0  -0.0  -0.0
 curvilinear- renormalizn of Dush matrix done
  mol 1 sym            1  -> mol 2 sym            1
  mol 1 sym            2  -> mol 2 sym            2
  mol 1 sym            3  -> mol 2 sym            1
  mol 1 sym            4  -> mol 2 sym            2
  mol 1 sym            5  -> mol 2 sym            3
  mol 1 sym            6  -> mol 2 sym            4
  mol 1 sym            7  -> mol 2 sym            3
  mol 1 sym            8  -> mol 2 sym            4

 Dushinsky matrix, ncs 2 in terms of ncs 1

   mode   freq    coeff     %      %tot     of    at

   1 Bg   -848.  0.8385    70.3    98.0  12 B3g   723.
                 0.5244    27.5          18 B3g  1017.
   2 Au   -602. -0.8153    66.5    99.4   8 Au    413.
                -0.5790    33.5          16 Au    981.
   3 Au   -516.  0.8288    68.7    98.5   7 B1u   413.
                -0.5506    30.3          15 B1u   981.
   4 Bg   -359.  0.9997    99.9    99.2  14 B2g   862.
   5 Bg   -251. -0.9817    96.4   100.7  13 B3g   862.
   6 Bg     -0. -0.0000     0.0     0.0  13 B3g   862.
   7 Bu     -0. -0.0000     0.0     0.0  20 B3u  1060.
   8 Au      0. -0.0000     0.0     0.0  11 B1u   689.
   9 Bg      0.  0.0000     0.0     0.0  14 B2g   862.
  10 Bu      0. -0.0000     0.0     0.0  21 B2u  1060.
  11 Ag      0. -0.0000     0.0     0.0  30 B1g  1637.
  12 Au    422. -0.3575    12.8    98.1   7 B1u   413.
                 0.8168    66.7          11 B1u   689.
                -0.4516    20.4          15 B1u   981.
  13 Ag    429. -0.9938    98.8    96.6   9 B1g   623.
  14 Au    531.  0.5730    32.8    98.0   8 Au    413.
                -0.8153    66.5          16 Au    981.
  15 Au    580.  0.3711    13.8    97.2   7 B1u   413.
                 0.5888    34.7          11 B1u   689.
                 0.7135    50.9          15 B1u   981.
  16 Ag    614. -0.9988    99.8    94.8  10 Ag    623.
  17 Bg    737.  0.5203    27.1    97.1  12 B3g   723.
                -0.8470    71.7          18 B3g  1017.
  18 Bu    867.  0.8995    80.9    98.4  20 B3u  1060.
                 0.3256    10.6          25 B3u  1335.
  19 Bu    917.  0.9782    95.7    99.2  21 B2u  1060.
  20 Ag    943.  0.9981    99.6   100.1  17 Ag   1013.
  21 Bu    984.  0.9999   100.0    95.2  19 B2u  1023.
  22 Bu   1152.  0.9835    96.7   100.1  22 B3u  1175.
  23 Ag   1172.  0.9969    99.4   100.4  24 Ag   1198.
  24 Ag   1209. -0.9629    92.7   100.2  23 B1g  1198.
  25 Bu   1231. -0.3918    15.4   100.2  20 B3u  1060.
                 0.8561    73.3          25 B3u  1335.
                -0.3352    11.2          27 B3u  1513.
  26 Ag   1344.  0.9984    99.7    99.7  26 B1g  1382.
  27 Bu   1415. -0.9714    94.4    99.2  28 B2u  1513.
  28 Bu   1439. -0.3955    15.6    99.2  25 B3u  1335.
                -0.9045    81.8          27 B3u  1513.
  29 Ag   1553.  0.9953    99.1    99.5  29 Ag   1637.
  30 Ag   2144.  0.9566    91.5    99.4  30 B1g  1637.
  31 Ag   3153.  0.9995    99.9   100.0  32 B1g  3164.
  32 Bu   3164.  0.9429    88.9   100.0  31 B2u  3154.
                 0.3238    10.5          35 B2u  3179.
  33 Bu   3181.  0.9966    99.3   100.0  34 B3u  3179.
  34 Ag   3182. -0.8500    72.2   100.0  33 Ag   3164.
                 0.5267    27.7          36 Ag   3190.
  35 Bu   3201.  0.3233    10.4   100.0  31 B2u  3154.
                -0.9460    89.5          35 B2u  3179.
  36 Ag   3208. -0.5267    27.7   100.0  33 Ag   3164.
                -0.8497    72.2          36 Ag   3190.
 nber times 1st assigned=           1           0
 nber times 1st assigned=           2           0
 nber times 1st assigned=           3           0
 nber times 1st assigned=           4           0
 nber times 1st assigned=           5           0
 nber times 1st assigned=           6           0
 nber times 1st assigned=           7           0
 nber times 1st assigned=           8           0
 nber times 1st assigned=           9           0
 nber times 1st assigned=          10           0
 nber times 1st assigned=          12           0
 nber times 1st assigned=          15           0
 nber times 1st assigned=          16           0
 nber times 1st assigned=          17           0
 nber times 1st assigned=          18           0
 nber times 1st assigned=          19           0
 nber times 1st assigned=          22           0
 nber times 1st assigned=          23           0
 nber times 1st assigned=          24           0
 nber times 1st assigned=          25           0
 nber times 1st assigned=          26           0
 nber times 1st assigned=          27           0
 nber times 1st assigned=          28           0
 nber times 1st assigned=          29           0
 nber times 1st assigned=          31           0
 nber times 1st assigned=          32           0
 nber times 1st assigned=          33           0
 nber times 1st assigned=          34           0
 nber times 1st assigned=          35           0
 nber times 1st assigned=          36           0
 Dushinsky matrix written to .out file
 modes represented=   29.6829978121939     

 Dushinsky matrix, ncs 1 in terms of ncs 2

   mode   freq    coeff     %      %tot     of    at

   7 B1u   413.  0.8288    68.7    93.7   3 Au   -516.
                -0.3575    12.8          12 Au    422.
                 0.3711    13.8          15 Au    580.
   8 Au    413. -0.8153    66.5    98.5   2 Au   -602.
                 0.5730    32.8          14 Au    531.
   9 B1g   623. -0.9938    98.8    96.8  13 Ag    429.
  10 Ag    623. -0.9988    99.8    94.7  16 Ag    614.
  11 B1u   689.  0.8168    66.7   100.2  12 Au    422.
                 0.5888    34.7          15 Au    580.
  12 B3g   723.  0.8385    70.3    95.8   1 Bg   -848.
                 0.5203    27.1          17 Bg    737.
  13 B3g   862. -0.9817    96.4   100.3   5 Bg   -251.
  14 B2g   862.  0.9997    99.9    99.1   4 Bg   -359.
  15 B1u   981. -0.5506    30.3    99.8   3 Au   -516.
                -0.4516    20.4          12 Au    422.
                 0.7135    50.9          15 Au    580.
  16 Au    981. -0.5790    33.5    99.0   2 Au   -602.
                -0.8153    66.5          14 Au    531.
  17 Ag   1013.  0.9981    99.6   100.0  20 Ag    943.
  18 B3g  1017.  0.5244    27.5    99.7   1 Bg   -848.
                -0.8470    71.7          17 Bg    737.
  19 B2u  1023.  0.9999   100.0    95.2  21 Bu    984.
  20 B3u  1060.  0.8995    80.9    98.9  18 Bu    867.
                -0.3918    15.4          25 Bu   1231.
  21 B2u  1060.  0.9782    95.7    99.5  19 Bu    917.
  22 B3u  1175.  0.9835    96.7   100.1  22 Bu   1152.
  23 B1g  1198. -0.9629    92.7   100.2  24 Ag   1209.
  24 Ag   1198.  0.9969    99.4   100.3  23 Ag   1172.
  25 B3u  1335.  0.3256    10.6   100.0  18 Bu    867.
                 0.8561    73.3          25 Bu   1231.
                -0.3955    15.6          28 Bu   1439.
  26 B1g  1382.  0.9984    99.7    99.7  26 Ag   1344.
  27 B3u  1513. -0.3352    11.2    98.9  25 Bu   1231.
                -0.9045    81.8          28 Bu   1439.
  28 B2u  1513. -0.9714    94.4    98.8  27 Bu   1415.
  29 Ag   1637.  0.9953    99.1    99.6  29 Ag   1553.
  30 B1g  1637.  0.9566    91.5    99.2  30 Ag   2144.
  31 B2u  3154.  0.9429    88.9   100.0  32 Bu   3164.
                 0.3233    10.4          35 Bu   3201.
  32 B1g  3164.  0.9995    99.9   100.0  31 Ag   3153.
  33 Ag   3164. -0.8500    72.2   100.0  34 Ag   3182.
                -0.5267    27.7          36 Ag   3208.
  34 B3u  3179.  0.9966    99.3   100.0  33 Bu   3181.
  35 B2u  3179.  0.3238    10.5   100.0  32 Bu   3164.
                -0.9460    89.5          35 Bu   3201.
  36 Ag   3190.  0.5267    27.7   100.0  34 Ag   3182.
                -0.8497    72.2          36 Ag   3208.
 nber times 1st assigned=           1           0
 nber times 1st assigned=           2           0
 nber times 1st assigned=           3           0
 nber times 1st assigned=           4           0
 nber times 1st assigned=           5           0
 nber times 1st assigned=           6           0
 nber times 1st assigned=           7           0
 nber times 1st assigned=           8           0
 nber times 1st assigned=           9           0
 nber times 1st assigned=          10           0
 nber times 1st assigned=          11           0
 nber times 1st assigned=          12           0
 nber times 1st assigned=          13           0
 nber times 1st assigned=          14           0
 nber times 1st assigned=          15           0
 nber times 1st assigned=          16           0
 nber times 1st assigned=          17           0
 nber times 1st assigned=          18           0
 nber times 1st assigned=          19           0
 nber times 1st assigned=          20           0
 nber times 1st assigned=          21           0
 nber times 1st assigned=          22           0
 nber times 1st assigned=          23           0
 nber times 1st assigned=          24           0
 nber times 1st assigned=          25           0
 nber times 1st assigned=          26           0
 nber times 1st assigned=          27           0
 nber times 1st assigned=          28           0
 nber times 1st assigned=          29           0
 nber times 1st assigned=          30           0
 nber times 1st assigned=          31           0
 nber times 1st assigned=          32           0
 nber times 1st assigned=          33           0
 nber times 1st assigned=          34           0
 nber times 1st assigned=          35           0
 nber times 1st assigned=          36           0
 modes represented=   29.6829978121939     
 p1=
    0.   -0.    0.   -0.    0.    0.    0.   -0.    0.    2.    0.   -0.    0.    0.    0.    0.   13.    0.   -0.   -0.
    0.   -0.    0.    1.   -0.   -0.    0.    0.   -2.   -0.    0.    0.    0.   -0.    0.    0.
 p2=
    0.   -0.   -0.   -0.   -0.    0.   -0.   -0.    0.   -0.   -0.    0.    0.    0.   -0.    1.    0.    0.    0.  -13.
    0.   -0.   -0.    0.    0.    0.    0.   -0.    1.    0.   -0.   -0.   -0.   -0.   -0.    0.

 Displacement: in terms of nc of 1 THEN of nc of 2

   1 B3g freq=    -0. Q=  0.000 lam=    -0.0 Bg  freq=  -848. Q=  0.000 lam=    -0.0
   2 B2u freq=    -0. Q= -0.000 lam=    -0.0 Au  freq=  -602. Q= -0.000 lam=    -0.0
   3 B1u freq=    -0. Q=  0.000 lam=    -0.0 Au  freq=  -516. Q=  0.000 lam=    -0.0
   4 B2g freq=     0. Q= -0.000 lam=     0.0 Bg  freq=  -359. Q= -0.000 lam=    -0.0
   5 B3u freq=     0. Q=  0.000 lam=     0.0 Bg  freq=  -251. Q=  0.000 lam=    -0.0
   6 B1g freq=     0. Q=  0.000 lam=     0.0 Bg  freq=    -0. Q=  0.000 lam=    -0.0
   7 B1u freq=   413. Q=  0.000 lam=     0.0 Bu  freq=    -0. Q=  0.000 lam=    -0.0
   8 Au  freq=   413. Q= -0.000 lam=     0.0 Au  freq=     0. Q= -0.000 lam=     0.0
   9 B1g freq=   623. Q=  0.048 lam=     0.7 Bg  freq=     0. Q=  0.000 lam=     0.0
  10 Ag  freq=   623. Q=  0.171 lam=     9.1 Bu  freq=     0. Q=  0.000 lam=     0.0
  11 B1u freq=   689. Q=  0.000 lam=     0.0 Ag  freq=     0. Q=  0.000 lam=     0.0
  12 B3g freq=   723. Q= -0.000 lam=     0.0 Au  freq=   422. Q= -0.000 lam=     0.0
  13 B3g freq=   862. Q=  0.000 lam=     0.0 Ag  freq=   429. Q=  0.036 lam=     0.3
  14 B2g freq=   862. Q=  0.000 lam=     0.0 Au  freq=   531. Q=  0.000 lam=     0.0
  15 B1u freq=   981. Q=  0.000 lam=     0.0 Au  freq=   580. Q=  0.000 lam=     0.0
  16 Au  freq=   981. Q=  0.000 lam=     0.0 Ag  freq=   614. Q=  0.142 lam=     6.2
  17 Ag  freq=  1013. Q=  1.666 lam=  1406.8 Bg  freq=   737. Q=  0.000 lam=     0.0
  18 B3g freq=  1017. Q=  0.000 lam=     0.0 Bu  freq=   867. Q=  0.000 lam=     0.0
  19 B2u freq=  1023. Q= -0.000 lam=     0.0 Bu  freq=   917. Q= -0.000 lam=     0.0
  20 B3u freq=  1060. Q= -0.000 lam=     0.0 Ag  freq=   943. Q= -1.620 lam=  1237.4
  21 B2u freq=  1060. Q=  0.000 lam=     0.0 Bu  freq=   984. Q=  0.000 lam=     0.0
  22 B3u freq=  1175. Q= -0.000 lam=     0.0 Bu  freq=  1152. Q= -0.000 lam=     0.0
  23 B1g freq=  1198. Q=  0.010 lam=     0.1 Ag  freq=  1172. Q=  0.066 lam=     2.5
  24 Ag  freq=  1198. Q=  0.133 lam=    10.5 Ag  freq=  1209. Q=  0.004 lam=     0.0
  25 B3u freq=  1335. Q= -0.000 lam=     0.0 Bu  freq=  1231. Q= -0.000 lam=     0.0
  26 B1g freq=  1382. Q= -0.000 lam=     0.0 Ag  freq=  1344. Q= -0.001 lam=     0.0
  27 B3u freq=  1513. Q=  0.000 lam=     0.0 Bu  freq=  1415. Q=  0.000 lam=     0.0
  28 B2u freq=  1513. Q=  0.000 lam=     0.0 Bu  freq=  1439. Q=  0.000 lam=     0.0
  29 Ag  freq=  1637. Q= -0.250 lam=    51.3 Ag  freq=  1553. Q= -0.174 lam=    23.6
  30 B1g freq=  1637. Q= -0.013 lam=     0.1 Ag  freq=  2144. Q= -0.029 lam=     0.9
  31 B2u freq=  3154. Q=  0.000 lam=     0.0 Ag  freq=  3153. Q=  0.002 lam=     0.0
  32 B1g freq=  3164. Q=  0.002 lam=     0.0 Bu  freq=  3164. Q=  0.000 lam=     0.0
  33 Ag  freq=  3164. Q=  0.027 lam=     1.2 Bu  freq=  3181. Q=  0.000 lam=     0.0
  34 B3u freq=  3179. Q= -0.000 lam=     0.0 Ag  freq=  3182. Q= -0.018 lam=     0.5
  35 B2u freq=  3179. Q=  0.000 lam=     0.0 Bu  freq=  3201. Q=  0.000 lam=     0.0
  36 Ag  freq=  3190. Q=  0.094 lam=    14.0 Ag  freq=  3208. Q=  0.088 lam=    12.5

 total reorg energy (cm**-1, kcal/mol)=     1494.     1284.      4.27      3.67
 Nber of molecules processed=           2
