 Enter ifcurve (0=recti, 1=orth curvi, 2=apprx curvi, -1 = skip
 And atom ordering flag, 0= never changes, 1= use the first order thenceforth,
  2= deduce it (does read on fail), 3= always read it
 Reading file: 
 ./Benzene_Conj_4_C0S0.log                                                      
                                          
  Entering Gaussian System, Link 0=g16                                          
  
 Gaussian format, type: g94, g98, g03= F F F
  #P Geom=AllCheck Guess=TCheck SCRF=Check GenChk RB3LYP/6-311G(d,p) Fre    
 energy type= B3LYP   
 Original G94 input coords:
  6  4.935313 -1.408448  0.000000
  6  3.672792 -0.726839  0.000000
  6  2.464310 -1.406247  0.000000
  6  1.224548 -0.727625  0.000000
  6  0.000000 -1.406748  0.000000
  6 -1.224548 -0.727625  0.000000
  6 -2.464310 -1.406247  0.000000
  6 -3.672792 -0.726839  0.000000
  6 -4.935313 -1.408448  0.000000
  6 -6.107765 -0.715894  0.000000
  6 -6.107765  0.715894  0.000000
  6 -4.935313  1.408448  0.000000
  6 -3.672792  0.726839  0.000000
  6 -2.464310  1.406247  0.000000
  6 -1.224548  0.727625  0.000000
  6  0.000000  1.406748  0.000000
  6  1.224548  0.727625  0.000000
  6  2.464310  1.406247  0.000000
  6  3.672792  0.726839  0.000000
  6  4.935313  1.408448  0.000000
  6  6.107765  0.715894  0.000000
  6  6.107765 -0.715894  0.000000
  1  4.935281 -2.493748  0.000000
  1  2.464929 -2.491878  0.000000
  1  0.000000 -2.492321  0.000000
  1 -2.464929 -2.491878  0.000000
  1 -4.935281 -2.493748  0.000000
  1 -7.053673 -1.245430  0.000000
  1 -7.053673  1.245430  0.000000
  1 -4.935281  2.493748  0.000000
  1 -2.464929  2.491878  0.000000
  1  0.000000  2.492321  0.000000
  1  2.464929  2.491878  0.000000
  1  4.935281  2.493748  0.000000
  1  7.053673  1.245430  0.000000
  1  7.053673 -1.245430  0.000000
 nber atoms=          36
 Original standard coords:
  6  0.000000  4.935313  1.408448
  6  0.000000  3.672792  0.726839
  6  0.000000  2.464310  1.406247
  6  0.000000  1.224548  0.727625
  6  0.000000  0.000000  1.406748
  6  0.000000 -1.224548  0.727625
  6  0.000000 -2.464310  1.406247
  6  0.000000 -3.672792  0.726839
  6  0.000000 -4.935313  1.408448
  6  0.000000 -6.107765  0.715894
  6  0.000000 -6.107765 -0.715894
  6  0.000000 -4.935313 -1.408448
  6  0.000000 -3.672792 -0.726839
  6  0.000000 -2.464310 -1.406247
  6  0.000000 -1.224548 -0.727625
  6  0.000000  0.000000 -1.406748
  6  0.000000  1.224548 -0.727625
  6  0.000000  2.464310 -1.406247
  6  0.000000  3.672792 -0.726839
  6  0.000000  4.935313 -1.408448
  6  0.000000  6.107765 -0.715894
  6  0.000000  6.107765  0.715894
  1  0.000000  4.935281  2.493748
  1  0.000000  2.464929  2.491878
  1  0.000000  0.000000  2.492321
  1  0.000000 -2.464929  2.491878
  1  0.000000 -4.935281  2.493748
  1  0.000000 -7.053673  1.245430
  1  0.000000 -7.053673 -1.245430
  1  0.000000 -4.935281 -2.493748
  1  0.000000 -2.464929 -2.491878
  1  0.000000  0.000000 -2.492321
  1  0.000000  2.464929 -2.491878
  1  0.000000  4.935281 -2.493748
  1  0.000000  7.053673 -1.245430
  1  0.000000  7.053673  1.245430
  SCF Done:  E(RB3LYP) =  -846.989449393     A.U. after    1 cycles             
  
          23          40 "  -846.989449393"
After scan for Atom:   Atom  AN      X      Y      Z        X      Y      Z        X      Y      Z   
After scan for Atom:   Atom  AN      X      Y      Z        X      Y      Z        X      Y      Z   
After scan for Atom:   Atom  AN      X      Y      Z        X      Y      Z        X      Y      Z   
After scan for Atom:   Atom  AN      X      Y      Z        X      Y      Z        X      Y      Z   
After scan for Atom:   Atom  AN      X      Y      Z        X      Y      Z        X      Y      Z   
After scan for Atom:   Atom  AN      X      Y      Z        X      Y      Z        X      Y      Z   
After scan for Atom:   Atom  AN      X      Y      Z        X      Y      Z        X      Y      Z   
After scan for Atom:   Atom  AN      X      Y      Z        X      Y      Z        X      Y      Z   
After scan for Atom:   Atom  AN      X      Y      Z        X      Y      Z        X      Y      Z   
After scan for Atom:   Atom  AN      X      Y      Z        X      Y      Z        X      Y      Z   
After scan for Atom:   Atom  AN      X      Y      Z        X      Y      Z        X      Y      Z   
After scan for Atom:   Atom  AN      X      Y      Z        X      Y      Z        X      Y      Z   
After scan for Atom:   Atom  AN      X      Y      Z        X      Y      Z        X      Y      Z   
After scan for Atom:   Atom  AN      X      Y      Z        X      Y      Z        X      Y      Z   
After scan for Atom:   Atom  AN      X      Y      Z        X      Y      Z        X      Y      Z   
After scan for Atom:   Atom  AN      X      Y      Z        X      Y      Z        X      Y      Z   
After scan for Atom:   Atom  AN      X      Y      Z        X      Y      Z        X      Y      Z   
After scan for Atom:   Atom  AN      X      Y      Z        X      Y      Z        X      Y      Z   
After scan for Atom:   Atom  AN      X      Y      Z        X      Y      Z        X      Y      Z   
After scan for Atom:   Atom  AN      X      Y      Z        X      Y      Z        X      Y      Z   
After scan for Atom:   Atom  AN      X      Y      Z        X      Y      Z        X      Y      Z   
After scan for Atom:   Atom  AN      X      Y      Z        X      Y      Z        X      Y      Z   
After scan for Atom:   Atom  AN      X      Y      Z        X      Y      Z        X      Y      Z   
After scan for Atom:   Atom  AN      X      Y      Z        X      Y      Z        X      Y      Z   
After scan for Atom:   Atom  AN      X      Y      Z        X      Y      Z        X      Y      Z   
After scan for Atom:   Atom  AN      X      Y      Z        X      Y      Z        X      Y      Z   
After scan for Atom:   Atom  AN      X      Y      Z        X      Y      Z        X      Y      Z   
After scan for Atom:   Atom  AN      X      Y      Z        X      Y      Z        X      Y      Z   
After scan for Atom:   Atom  AN      X      Y      Z        X      Y      Z        X      Y      Z   
After scan for Atom:   Atom  AN      X      Y      Z        X      Y      Z        X      Y      Z   
After scan for Atom:   Atom  AN      X      Y      Z        X      Y      Z        X      Y      Z   
After scan for Atom:   Atom  AN      X      Y      Z        X      Y      Z        X      Y      Z   
After scan for Atom:   Atom  AN      X      Y      Z        X      Y      Z        X      Y      Z   
After scan for Atom:   Atom  AN      X      Y      Z        X      Y      Z        X      Y      Z   
 g94    frequencies=
     0.0    0.0    0.0    0.0    0.0    0.0   36.4   71.3  100.8  118.8
   148.9  192.2  238.2  240.5  263.5  292.9  348.9  362.0  379.0  453.9
   469.4  471.4  476.7  478.3  490.9  512.6  525.9  553.5  579.1  616.3
   639.2  647.1  715.8  724.9  744.0  745.7  751.7  752.5  761.6  770.7
   774.3  795.2  837.4  839.6  840.4  847.4  874.1  887.4  888.8  900.5
   915.5  920.9  922.1  936.3  972.9  973.3  995.4  995.4 1016.2 1019.0
  1134.3 1143.8 1158.3 1184.7 1188.2 1200.2 1207.2 1210.5 1242.4 1251.1
  1294.4 1295.2 1312.2 1318.6 1333.5 1358.7 1376.2 1410.3 1416.4 1419.0
  1426.6 1434.2 1477.6 1477.9 1493.4 1542.2 1557.2 1576.9 1579.1 1593.8
  1633.2 1642.0 1673.4 1674.1 3153.9 3154.7 3155.8 3156.2 3157.2 3157.7
  3159.4 3159.9 3161.0 3163.1 3175.1 3175.1 3187.8 3188.0
 g94    symmetries=
                                                B3     AU     B1     B1
      B2     B3     B3     AU     AG     B1     B2     B1     B3     B3
      B3     B1     B3     B1     B2     B3     AU     B2     B1     AG
      B2     AG     AU     B3     B2     B3     B1     B2     AG     AU
      B2     AG     B1     B3     B2     AU     B2     B1     B2     AU
      B2     B3     B1     B3     B1     B3     AU     B2     B2     AG
      B2     B1     B3     AG     B2     B3     AG     B1     B3     B2
      B1     B3     B3     B1     AG     B2     B1     AG     B2     B3
      B2     AG     B2     B1     AG     B2     AG     AG     B2     B3
      B3     B1     B3     B1     B1     B3     AG     B1     B2     B3
      AG     B1     B2     AG     B3     B1     B2     AG
 atomic masses:
 12.0000 12.0000 12.0000 12.0000 12.0000 12.0000 12.0000 12.0000 12.0000 12.0000
 12.0000 12.0000 12.0000 12.0000 12.0000 12.0000 12.0000 12.0000 12.0000 12.0000
 12.0000 12.0000  1.0078  1.0078  1.0078  1.0078  1.0078  1.0078  1.0078  1.0078
  1.0078  1.0078  1.0078  1.0078  1.0078  1.0078
 looking for force constants in 
 ./Benzene_Conj_4_C0S0.fchk                                                     
  
 Cartesian Force Constants                  R   N=        5886                  
  
 n3=         108        5886
 g94-fc frequencies=
    -2.8   -2.7   -0.0    0.0    0.0    6.4   36.4   71.3  100.8  118.8
   148.9  192.2  238.2  240.5  263.5  292.9  348.9  362.0  379.0  454.0
   469.4  471.4  476.7  478.4  490.9  512.6  525.9  553.5  579.1  616.4
   639.3  647.1  715.8  724.9  744.0  745.7  751.7  752.5  761.7  770.7
   774.3  795.2  837.5  839.6  840.4  847.4  874.1  887.5  888.8  900.5
   915.5  920.9  922.1  936.4  972.9  973.3  995.4  995.5 1016.3 1019.0
  1134.3 1143.8 1158.3 1184.8 1188.2 1200.2 1207.3 1210.5 1242.4 1251.1
  1294.5 1295.3 1312.3 1318.6 1333.6 1358.8 1376.2 1410.3 1416.4 1419.1
  1426.7 1434.2 1477.6 1477.9 1493.4 1542.3 1557.2 1576.9 1579.1 1593.8
  1633.2 1642.0 1673.5 1674.1 3154.0 3154.8 3155.8 3156.2 3157.2 3157.8
  3159.5 3160.0 3161.1 3163.2 3175.2 3175.2 3187.9 3188.0
 at 99999: n3=         108
 symm operator            1 :  T  nop=           1
 symm operator            2 :  T  nop=           2
 symm operator            3 :  T  nop=           3
 symm operator            4 :  T  nop=           4
 symm operator            5 :  T  nop=           5
 symm operator            6 :  T  nop=           6
 symm operator            7 :  T  nop=           7
 The point group of the molecule is D2H
 enforcing symm op           1  jsymt=          -1          -1           1
 enforcing symm op           2  jsymt=          -1           1          -1
 enforcing symm op           3  jsymt=           1          -1          -1
 enforcing symm op           4  jsymt=          -1          -1          -1
 enforcing symm op           5  jsymt=           1           1          -1
 enforcing symm op           6  jsymt=           1          -1           1
 enforcing symm op           7  jsymt=          -1           1           1
 cartesian coord symmetries:
 Ag :   18 Au :    8 B1g:    8 B1u:   18 B2g:   10 B2u:   18 B3g:   18 B3u:   10
 Symmetry rotation matrix:
   1.00000   0.00000   0.00000
   0.00000   1.00000   0.00000
   0.00000   0.00000   1.00000

 Projecting out zero-frequency components
 generating redundant internal coords
         300        3600          36
 search for int coords
   1 str   2   1   1.435
   2 str   3   2   1.386
   3 str   4   3   1.413
   4 str   5   4   1.400
   5 str   6   5   1.400
   6 str   7   6   1.413
   7 str   8   7   1.386
   8 str   9   8   1.435
   9 str  10   9   1.362
  10 str  11  10   1.432
  11 str  12  11   1.362
  12 str  13   8   1.454
  13 str  13  12   1.435
  14 str  14  13   1.386
  15 str  15   6   1.455
  16 str  15  14   1.413
  17 str  16  15   1.400
  18 str  17   4   1.455
  19 str  17  16   1.400
  20 str  18  17   1.413
  21 str  19   2   1.454
  22 str  19  18   1.386
  23 str  20  19   1.435
  24 str  21  20   1.362
  25 str  22   1   1.362
  26 str  22  21   1.432
  27 str  23   1   1.085
  28 str  24   3   1.086
  29 str  25   5   1.086
  30 str  26   7   1.086
  31 str  27   9   1.085
  32 str  28  10   1.084
  33 str  29  11   1.084
  34 str  30  12   1.085
  35 str  31  14   1.086
  36 str  32  16   1.086
  37 str  33  18   1.086
  38 str  34  20   1.085
  39 str  35  21   1.084
  40 str  36  22   1.084
 nber stretches=          40
  41 ben   1   2   3
  42 prop tor   1   2   3   4
  43 prop tor   1   2   3  24
  44 ben   1   2  19
  45 prop tor   1   2  19  18
  46 prop tor   1   2  19  20
  47 ben   1  22  21
  48 ben   1  22  36
  49 ben   2   1  22
  50 prop tor   2   1  22  21
  51 prop tor   2   1  22  36
  52 ben   2   1  23
  53 ben   2   3   4
  54 prop tor   2   3   4   5
  55 prop tor   2   3   4  17
  56 ben   2   3  24
  57 ben   2  19  18
  58 ben   2  19  20
  59 prop tor   2  19  20  21
  60 prop tor   2  19  20  34
  61 ben   3   2  19
  62 prop tor   3   2  19  18
  63 prop tor   3   2  19  20
  64 ben   3   4   5
  65 prop tor   3   4   5   6
  66 prop tor   3   4   5  25
  67 ben   3   4  17
  68 prop tor   3   4  17  16
  69 prop tor   3   4  17  18
  70 ben   4   3  24
  71 ben   4   5   6
  72 prop tor   4   5   6   7
  73 prop tor   4   5   6  15
  74 ben   4   5  25
  75 ben   4  17  16
  76 ben   4  17  18
  77 prop tor   4  17  18  19
  78 prop tor   4  17  18  33
  79 ben   5   4  17
  80 prop tor   5   4  17  16
  81 prop tor   5   4  17  18
  82 ben   5   6   7
  83 prop tor   5   6   7   8
  84 prop tor   5   6   7  26
  85 ben   5   6  15
  86 prop tor   5   6  15  14
  87 prop tor   5   6  15  16
  88 ben   6   5  25
  89 ben   6   7   8
  90 prop tor   6   7   8   9
  91 prop tor   6   7   8  13
  92 ben   6   7  26
  93 ben   6  15  14
  94 ben   6  15  16
  95 prop tor   6  15  16  17
  96 prop tor   6  15  16  32
  97 ben   7   6  15
  98 prop tor   7   6  15  14
  99 prop tor   7   6  15  16
 100 ben   7   8   9
 101 prop tor   7   8   9  10
 102 prop tor   7   8   9  27
 103 ben   7   8  13
 104 prop tor   7   8  13  12
 105 prop tor   7   8  13  14
 106 ben   8   7  26
 107 ben   8   9  10
 108 prop tor   8   9  10  11
 109 prop tor   8   9  10  28
 110 ben   8   9  27
 111 ben   8  13  12
 112 ben   8  13  14
 113 prop tor   8  13  14  15
 114 prop tor   8  13  14  31
 115 ben   9   8  13
 116 prop tor   9   8  13  12
 117 prop tor   9   8  13  14
 118 ben   9  10  11
 119 prop tor   9  10  11  12
 120 prop tor   9  10  11  29
 121 ben   9  10  28
 122 ben  10   9  27
 123 ben  10  11  12
 124 prop tor  10  11  12  13
 125 prop tor  10  11  12  30
 126 ben  10  11  29
 127 ben  11  10  28
 128 ben  11  12  13
 129 prop tor  11  12  13   8
 130 prop tor  11  12  13  14
 131 ben  11  12  30
 132 ben  12  11  29
 133 ben  12  13  14
 134 prop tor  12  13  14  15
 135 prop tor  12  13  14  31
 136 prop tor  13   8   9  10
 137 prop tor  13   8   9  27
 138 ben  13  12  30
 139 ben  13  14  15
 140 prop tor  13  14  15   6
 141 prop tor  13  14  15  16
 142 ben  13  14  31
 143 ben  14  15  16
 144 prop tor  14  15  16  17
 145 prop tor  14  15  16  32
 146 prop tor  15   6   7   8
 147 prop tor  15   6   7  26
 148 ben  15  14  31
 149 ben  15  16  17
 150 prop tor  15  16  17   4
 151 prop tor  15  16  17  18
 152 ben  15  16  32
 153 ben  16  17  18
 154 prop tor  16  17  18  19
 155 prop tor  16  17  18  33
 156 prop tor  17   4   5   6
 157 prop tor  17   4   5  25
 158 ben  17  16  32
 159 ben  17  18  19
 160 prop tor  17  18  19   2
 161 prop tor  17  18  19  20
 162 ben  17  18  33
 163 ben  18  19  20
 164 prop tor  18  19  20  21
 165 prop tor  18  19  20  34
 166 prop tor  19   2   3   4
 167 prop tor  19   2   3  24
 168 ben  19  18  33
 169 ben  19  20  21
 170 prop tor  19  20  21  22
 171 prop tor  19  20  21  35
 172 ben  19  20  34
 173 ben  20  21  22
 174 prop tor  20  21  22   1
 175 prop tor  20  21  22  36
 176 ben  20  21  35
 177 ben  21  20  34
 178 ben  21  22  36
 179 prop tor  22   1   2   3
 180 prop tor  22   1   2  19
 181 ben  22   1  23
 182 ben  22  21  35
 183 prop tor  23   1   2   3
 184 prop tor  23   1   2  19
 185 prop tor  23   1  22  21
 186 prop tor  23   1  22  36
 187 prop tor  24   3   4   5
 188 prop tor  24   3   4  17
 189 prop tor  25   5   6   7
 190 prop tor  25   5   6  15
 191 prop tor  26   7   8   9
 192 prop tor  26   7   8  13
 193 prop tor  27   9  10  11
 194 prop tor  27   9  10  28
 195 prop tor  28  10  11  12
 196 prop tor  28  10  11  29
 197 prop tor  29  11  12  13
 198 prop tor  29  11  12  30
 199 prop tor  30  12  13   8
 200 prop tor  30  12  13  14
 201 prop tor  31  14  15   6
 202 prop tor  31  14  15  16
 203 prop tor  32  16  17   4
 204 prop tor  32  16  17  18
 205 prop tor  33  18  19   2
 206 prop tor  33  18  19  20
 207 prop tor  34  20  21  22
 208 prop tor  34  20  21  35
 209 prop tor  35  21  22   1
 210 prop tor  35  21  22  36
 nber bend=              66
 nber lin bend=           0
 nber prop tor=         104
 nber impr tor=           0
 nber tot redund int=         210
 Eigenvalues of G in red int coords
    Gval -0.00000000 -0.00000000 -0.00000000 -0.00000000 -0.00000000 -0.00000000 -0.00000000 -0.00000000
    Gval -0.00000000 -0.00000000 -0.00000000 -0.00000000 -0.00000000 -0.00000000 -0.00000000 -0.00000000
    Gval -0.00000000 -0.00000000 -0.00000000 -0.00000000 -0.00000000 -0.00000000 -0.00000000 -0.00000000
    Gval -0.00000000 -0.00000000 -0.00000000 -0.00000000 -0.00000000 -0.00000000 -0.00000000 -0.00000000
    Gval -0.00000000 -0.00000000 -0.00000000 -0.00000000 -0.00000000 -0.00000000 -0.00000000 -0.00000000
    Gval -0.00000000 -0.00000000 -0.00000000 -0.00000000 -0.00000000 -0.00000000 -0.00000000 -0.00000000
    Gval -0.00000000 -0.00000000 -0.00000000  0.00000000  0.00000000  0.00000000  0.00000000  0.00000000
    Gval  0.00000000  0.00000000  0.00000000  0.00000000  0.00000000  0.00000000  0.00000000  0.00000000
    Gval  0.00000000  0.00000000  0.00000000  0.00000000  0.00000000  0.00000000  0.00000000  0.00000000
    Gval  0.00000000  0.00000000  0.00000000  0.00000000  0.00000000  0.00000000  0.00000000  0.00000000
    Gval  0.00000000  0.00000000  0.00000000  0.00000000  0.00000000  0.00000000  0.00000000  0.00000000
    Gval  0.00000000  0.00000000  0.00000000  0.00000000  0.00000000  0.00000000  0.00000000  0.00000000
    Gval  0.00000000  0.00000000  0.00000000  0.00000000  0.00000000  0.00000000  0.00000000  0.00000000
    Gval  0.00000000  0.00000000  0.00000000  0.00000000  0.00000190  0.00000410  0.00000605  0.00001000
    Gval  0.00001573  0.00002689  0.00002816  0.00003139  0.00003281  0.00004093  0.00004326  0.00004469
    Gval  0.00004591  0.00005009  0.00005336  0.00005710  0.00006880  0.00006929  0.00007632  0.00007693
    Gval  0.00008354  0.00009929  0.00010277  0.00010992  0.00011267  0.00011707  0.00012683  0.00013721
    Gval  0.00014031  0.00014780  0.00016339  0.00016457  0.00019924  0.00021442  0.00025756  0.00026082
    Gval  0.00027568  0.00030229  0.00033464  0.00033951  0.00034486  0.00038205  0.00038513  0.00040308
    Gval  0.00041143  0.00041494  0.00041511  0.00043977  0.00046922  0.00048115  0.00059310  0.00059310
    Gval  0.00059684  0.00059685  0.00060815  0.00061144  0.00061946  0.00061998  0.00062897  0.00063496
    Gval  0.00064147  0.00065230  0.00065666  0.00065773  0.00072480  0.00073886  0.00080622  0.00081723
    Gval  0.00091687  0.00098122  0.00105046  0.00105056  0.00110820  0.00111167  0.00111203  0.00111901
    Gval  0.00111972  0.00112397  0.00112763  0.00112935  0.00116180  0.00116180  0.00117005  0.00117005
    Gval  0.00158898  0.00176955  0.00177064  0.00180348  0.00193641  0.00201581  0.00256455  0.00257819
    Gval  0.00278391  0.00286211  0.00304501  0.00313002  0.00331842  0.00335287  0.00356246  0.00358409
    Gval  0.00400142  0.00400179
  1.903076857727943E-006  1.903076857727943E-006
  4.099311292814575E-006  1.903076857727943E-006
  6.045824902603491E-006  1.903076857727943E-006
  9.996892858469858E-006  1.903076857727943E-006
  1.572516989190469E-005  1.903076857727943E-006
  2.689324161748647E-005  1.903076857727943E-006
  2.816270892880401E-005  1.903076857727943E-006
  3.138580256682814E-005  1.903076857727943E-006
  3.280616931988445E-005  1.903076857727943E-006
  4.093168535974941E-005  1.903076857727943E-006
  4.326413092610033E-005  1.903076857727943E-006
  4.468564142678838E-005  1.903076857727943E-006
  4.590565969537275E-005  1.903076857727943E-006
  5.008941072719332E-005  1.903076857727943E-006
  5.336496900669337E-005  1.903076857727943E-006
  5.709864423225551E-005  1.903076857727943E-006
  6.880310805415636E-005  1.903076857727943E-006
  6.929247357569645E-005  1.903076857727943E-006
  7.632332717992589E-005  1.903076857727943E-006
  7.692877143480778E-005  1.903076857727943E-006
  8.353783474409859E-005  1.903076857727943E-006
  9.928733064886475E-005  1.903076857727943E-006
  1.027669661905765E-004  1.903076857727943E-006
  1.099215830212338E-004  1.903076857727943E-006
  1.126682745476876E-004  1.903076857727943E-006
  1.170706351430755E-004  1.903076857727943E-006
  1.268317152539007E-004  1.903076857727943E-006
  1.372113660867725E-004  1.903076857727943E-006
  1.403141421611121E-004  1.903076857727943E-006
  1.478043430848590E-004  1.903076857727943E-006
  1.633854498852286E-004  1.903076857727943E-006
  1.645667671932820E-004  1.903076857727943E-006
  1.992407655250861E-004  1.903076857727943E-006
  2.144220588902692E-004  1.903076857727943E-006
  2.575608836566120E-004  1.903076857727943E-006
  2.608244660643913E-004  1.903076857727943E-006
  2.756761032516456E-004  1.903076857727943E-006
  3.022949550472380E-004  1.903076857727943E-006
  3.346371043323688E-004  1.903076857727943E-006
  3.395073344149568E-004  1.903076857727943E-006
  3.448621306339978E-004  1.903076857727943E-006
  3.820451280059156E-004  1.903076857727943E-006
  3.851322193235266E-004  1.903076857727943E-006
  4.030776894762677E-004  1.903076857727943E-006
  4.114303449398209E-004  1.903076857727943E-006
  4.149411437633428E-004  1.903076857727943E-006
  4.151097668049027E-004  1.903076857727943E-006
  4.397679104503893E-004  1.903076857727943E-006
  4.692187617282741E-004  1.903076857727943E-006
  4.811506570563618E-004  1.903076857727943E-006
  5.930958930449434E-004  1.903076857727943E-006
  5.930980519289615E-004  1.903076857727943E-006
  5.968417132103950E-004  1.903076857727943E-006
  5.968523658199073E-004  1.903076857727943E-006
  6.081467067878023E-004  1.903076857727943E-006
  6.114360787961178E-004  1.903076857727943E-006
  6.194590687801486E-004  1.903076857727943E-006
  6.199831129456734E-004  1.903076857727943E-006
  6.289748527194566E-004  1.903076857727943E-006
  6.349597093470034E-004  1.903076857727943E-006
  6.414732828472175E-004  1.903076857727943E-006
  6.522978958545971E-004  1.903076857727943E-006
  6.566641060898764E-004  1.903076857727943E-006
  6.577329911801343E-004  1.903076857727943E-006
  7.248035938666141E-004  1.903076857727943E-006
  7.388636031105867E-004  1.903076857727943E-006
  8.062195558796834E-004  1.903076857727943E-006
  8.172256802338477E-004  1.903076857727943E-006
  9.168716894790622E-004  1.903076857727943E-006
  9.812155791752749E-004  1.903076857727943E-006
  1.050461234491920E-003  1.903076857727943E-006
  1.050562947243557E-003  1.903076857727943E-006
  1.108202769127809E-003  1.903076857727943E-006
  1.111669430267970E-003  1.903076857727943E-006
  1.112027147214048E-003  1.903076857727943E-006
  1.119005553103314E-003  1.903076857727943E-006
  1.119721682786851E-003  1.903076857727943E-006
  1.123968068001657E-003  1.903076857727943E-006
  1.127631267450999E-003  1.903076857727943E-006
  1.129354895978042E-003  1.903076857727943E-006
  1.161797946529238E-003  1.903076857727943E-006
  1.161803970110272E-003  1.903076857727943E-006
  1.170050739981172E-003  1.903076857727943E-006
  1.170050741073605E-003  1.903076857727943E-006
  1.588981976432682E-003  1.903076857727943E-006
  1.769553896603537E-003  1.903076857727943E-006
  1.770640867686238E-003  1.903076857727943E-006
  1.803479877638737E-003  1.903076857727943E-006
  1.936412974891832E-003  1.903076857727943E-006
  2.015808652584563E-003  1.903076857727943E-006
  2.564549119532833E-003  1.903076857727943E-006
  2.578188213084208E-003  1.903076857727943E-006
  2.783907292501938E-003  1.903076857727943E-006
  2.862108954988906E-003  1.903076857727943E-006
  3.045007687826323E-003  1.903076857727943E-006
  3.130019807772690E-003  1.903076857727943E-006
  3.318418371538805E-003  1.903076857727943E-006
  3.352871153815655E-003  1.903076857727943E-006
  3.562456788005295E-003  1.903076857727943E-006
  3.584087495050813E-003  1.903076857727943E-006
  4.001419423892792E-003  1.903076857727943E-006
  4.001787736094492E-003  1.903076857727943E-006
 cut=1d-8, nber non-redundant internal coords=         102
 Check on Eigenvals of non-red overlap matrix:
  0.00000190  0.00000410  0.00000605  0.00001000  0.00001573  0.00002689  0.00002816  0.00003139
  0.00003281  0.00004093  0.00004326  0.00004469  0.00004591  0.00005009  0.00005336  0.00005710
  0.00006880  0.00006929  0.00007632  0.00007693  0.00008354  0.00009929  0.00010277  0.00010992
  0.00011267  0.00011707  0.00012683  0.00013721  0.00014031  0.00014780  0.00016339  0.00016457
  0.00019924  0.00021442  0.00025756  0.00026082  0.00027568  0.00030229  0.00033464  0.00033951
  0.00034486  0.00038205  0.00038513  0.00040308  0.00041143  0.00041494  0.00041511  0.00043977
  0.00046922  0.00048115  0.00059310  0.00059310  0.00059684  0.00059685  0.00060815  0.00061144
  0.00061946  0.00061998  0.00062897  0.00063496  0.00064147  0.00065230  0.00065666  0.00065773
  0.00072480  0.00073886  0.00080622  0.00081723  0.00091687  0.00098122  0.00105046  0.00105056
  0.00110820  0.00111167  0.00111203  0.00111901  0.00111972  0.00112397  0.00112763  0.00112935
  0.00116180  0.00116180  0.00117005  0.00117005  0.00158898  0.00176955  0.00177064  0.00180348
  0.00193641  0.00201581  0.00256455  0.00257819  0.00278391  0.00286211  0.00304501  0.00313002
  0.00331842  0.00335287  0.00356246  0.00358409  0.00400142  0.00400179
 Checking for correct frequencies
 recalc frequencies=
    -0.0   -0.0   -0.0   -0.0    0.0    0.0   36.4   71.3  100.8  118.8
   148.9  192.2  238.2  240.5  263.5  292.9  348.9  362.0  379.0  454.0
   469.4  471.4  476.7  478.4  490.9  512.6  525.9  553.5  579.1  616.4
   639.3  647.1  715.8  724.9  744.0  745.7  751.7  752.5  761.7  770.7
   774.3  795.2  837.5  839.6  840.4  847.4  874.1  887.5  888.8  900.5
   915.5  920.9  922.1  936.4  972.9  973.3  995.4  995.5 1016.3 1019.0
  1134.3 1143.8 1158.3 1184.8 1188.2 1200.2 1207.3 1210.5 1242.4 1251.1
  1294.5 1295.3 1312.3 1318.6 1333.6 1358.8 1376.2 1410.3 1416.4 1419.1
  1426.7 1434.2 1477.6 1477.9 1493.4 1542.3 1557.2 1576.9 1579.1 1593.8
  1633.2 1642.0 1673.5 1674.1 3154.0 3154.8 3155.8 3156.2 3157.2 3157.8
  3159.5 3160.0 3161.1 3163.2 3175.2 3175.2 3187.9 3188.0
 recalc symmetries=
     B1u    B2u    B3g    B1g    B3u    B2g    B3u    Au     B1g    B1u
     B2g    B3u    B3g    Au     Ag     B1g    B2g    B1u    B3u    B3g
     B3u    B1g    B3u    B1g    B2u    B3g    Au     B2g    B1u    Ag 
     B2u    Ag     Au     B3g    B2u    B3u    B1g    B2g    Ag     Au 
     B2g    Ag     B1u    B3u    B2g    Au     B2g    B1g    B2u    Au 
     B2g    B3u    B1u    B3g    B1g    B3u    Au     B2g    B2u    Ag 
     B2u    B1u    B3g    Ag     B2u    B3g    Ag     B1u    B3g    B2u
     B1u    B3g    B3g    B1u    Ag     B2u    B1u    Ag     B2u    B3g
     B2u    Ag     B2u    B1u    Ag     B2u    Ag     Ag     B2u    B3g
     B3g    B1u    B3g    B1u    B1u    B3g    Ag     B1u    B2u    B3g
     Ag     B1u    B2u    Ag     B3g    B1u    B2u    Ag 
 recalc freqs check OK
 Zero-point lengths:
 10.0000 10.0000 10.0000 10.0000 10.0000 10.0000 41.1010 29.3641 24.6892 22.7411
 20.3184 17.8822 16.0625 15.9863 15.2716 14.4846 13.2718 13.0291 12.7337 11.6356
 11.4426 11.4184 11.3541 11.3350 11.1893 10.9500 10.8100 10.5370 10.3020  9.9858
  9.8052  9.7454  9.2659  9.2078  9.0887  9.0784  9.0419  9.0374  8.9828  8.9298
  8.9094  8.7914  8.5667  8.5559  8.5516  8.5162  8.3852  8.3219  8.3154  8.2614
  8.1935  8.1693  8.1640  8.1017  7.9480  7.9463  7.8576  7.8575  7.7767  7.7660
  7.3610  7.3302  7.2842  7.2025  7.1920  7.1559  7.1350  7.1255  7.0334  7.0088
  6.8905  6.8884  6.8436  6.8271  6.7887  6.7255  6.6827  6.6014  6.5872  6.5810
  6.5635  6.5462  6.4493  6.4486  6.4151  6.3127  6.2824  6.2429  6.2387  6.2097
  6.1344  6.1179  6.0602  6.0590  4.4143  4.4138  4.4130  4.4128  4.4121  4.4117
  4.4105  4.4101  4.4094  4.4079  4.3996  4.3996  4.3908  4.3907
 highest evec of mol 1
  0.0000  0.0068 -0.0573
  0.0000  0.0024  0.0004
  0.0000 -0.0001 -0.0051
  0.0000 -0.0001  0.0001
  0.0000  0.0000 -0.0029
  0.0000  0.0001  0.0001
  0.0000  0.0001 -0.0051
  0.0000 -0.0024  0.0004
  0.0000 -0.0068 -0.0573
  0.0000  0.1202 -0.0664
  0.0000  0.1202  0.0664
  0.0000 -0.0068  0.0573
  0.0000 -0.0024 -0.0004
  0.0000  0.0001  0.0051
  0.0000  0.0001 -0.0001
  0.0000  0.0000  0.0029
  0.0000 -0.0001 -0.0001
  0.0000 -0.0001  0.0051
  0.0000  0.0024 -0.0004
  0.0000  0.0068  0.0573
  0.0000 -0.1202  0.0664
  0.0000 -0.1202 -0.0664
  0.0000 -0.0017  0.1769
  0.0000 -0.0005  0.0170
  0.0000  0.0000  0.0092
  0.0000  0.0005  0.0170
  0.0000  0.0017  0.1769
  0.0000 -0.3859  0.2173
  0.0000 -0.3859 -0.2173
  0.0000  0.0017 -0.1769
  0.0000  0.0005 -0.0170
  0.0000  0.0000 -0.0092
  0.0000 -0.0005 -0.0170
  0.0000 -0.0017 -0.1769
  0.0000  0.3859 -0.2173
  0.0000  0.3859  0.2173
 generating redundant internal coords
         300        3600          36
 Adding extra bonds for z output only
           6           6           6           6           6           6
           6           6           6           6           6           6
           6           6           6           6           6           6
           6           6           6           6           1           1
           1           1           1           1           1           1
           1           1           1           1           1           1
 search for int coords
   1 str   2   1   1.435
   2 str   3   2   1.386
   3 str   4   3   1.413
   4 str   5   4   1.400
   5 str   6   5   1.400
   6 str   7   6   1.413
   7 str   8   7   1.386
   8 str   9   8   1.435
   9 str  10   9   1.362
  10 str  11  10   1.432
  11 str  12  11   1.362
  12 str  13   8   1.454
  13 str  13  12   1.435
  14 str  14  13   1.386
  15 str  15   6   1.455
  16 str  15  14   1.413
  17 str  16  15   1.400
  18 str  17   4   1.455
  19 str  17  16   1.400
  20 str  18  17   1.413
  21 str  19   2   1.454
  22 str  19  18   1.386
  23 str  20  19   1.435
  24 str  21  20   1.362
  25 str  22   1   1.362
  26 str  22  21   1.432
  27 str  23   1   1.085
  28 str  24   3   1.086
  29 str  25   5   1.086
  30 str  26   7   1.086
  31 str  27   9   1.085
  32 str  28  10   1.084
  33 str  29  11   1.084
  34 str  30  12   1.085
  35 str  31  14   1.086
  36 str  32  16   1.086
  37 str  33  18   1.086
  38 str  34  20   1.085
  39 str  35  21   1.084
  40 str  36  22   1.084
 nber stretches=          40
  41 ben   1   2   3
  42 prop tor   1   2   3   4
  43 prop tor   1   2   3  24
  44 ben   1   2  19
  45 prop tor   1   2  19  18
  46 prop tor   1   2  19  20
  47 ben   1  22  21
  48 ben   1  22  36
  49 ben   2   1  22
  50 prop tor   2   1  22  21
  51 prop tor   2   1  22  36
  52 ben   2   1  23
  53 ben   2   3   4
  54 prop tor   2   3   4   5
  55 prop tor   2   3   4  17
  56 ben   2   3  24
  57 ben   2  19  18
  58 ben   2  19  20
  59 prop tor   2  19  20  21
  60 prop tor   2  19  20  34
  61 ben   3   2  19
  62 prop tor   3   2  19  18
  63 prop tor   3   2  19  20
  64 ben   3   4   5
  65 prop tor   3   4   5   6
  66 prop tor   3   4   5  25
  67 ben   3   4  17
  68 prop tor   3   4  17  16
  69 prop tor   3   4  17  18
  70 ben   4   3  24
  71 ben   4   5   6
  72 prop tor   4   5   6   7
  73 prop tor   4   5   6  15
  74 ben   4   5  25
  75 ben   4  17  16
  76 ben   4  17  18
  77 prop tor   4  17  18  19
  78 prop tor   4  17  18  33
  79 ben   5   4  17
  80 prop tor   5   4  17  16
  81 prop tor   5   4  17  18
  82 ben   5   6   7
  83 prop tor   5   6   7   8
  84 prop tor   5   6   7  26
  85 ben   5   6  15
  86 prop tor   5   6  15  14
  87 prop tor   5   6  15  16
  88 ben   6   5  25
  89 ben   6   7   8
  90 prop tor   6   7   8   9
  91 prop tor   6   7   8  13
  92 ben   6   7  26
  93 ben   6  15  14
  94 ben   6  15  16
  95 prop tor   6  15  16  17
  96 prop tor   6  15  16  32
  97 ben   7   6  15
  98 prop tor   7   6  15  14
  99 prop tor   7   6  15  16
 100 ben   7   8   9
 101 prop tor   7   8   9  10
 102 prop tor   7   8   9  27
 103 ben   7   8  13
 104 prop tor   7   8  13  12
 105 prop tor   7   8  13  14
 106 ben   8   7  26
 107 ben   8   9  10
 108 prop tor   8   9  10  11
 109 prop tor   8   9  10  28
 110 ben   8   9  27
 111 ben   8  13  12
 112 ben   8  13  14
 113 prop tor   8  13  14  15
 114 prop tor   8  13  14  31
 115 ben   9   8  13
 116 prop tor   9   8  13  12
 117 prop tor   9   8  13  14
 118 ben   9  10  11
 119 prop tor   9  10  11  12
 120 prop tor   9  10  11  29
 121 ben   9  10  28
 122 ben  10   9  27
 123 ben  10  11  12
 124 prop tor  10  11  12  13
 125 prop tor  10  11  12  30
 126 ben  10  11  29
 127 ben  11  10  28
 128 ben  11  12  13
 129 prop tor  11  12  13   8
 130 prop tor  11  12  13  14
 131 ben  11  12  30
 132 ben  12  11  29
 133 ben  12  13  14
 134 prop tor  12  13  14  15
 135 prop tor  12  13  14  31
 136 prop tor  13   8   9  10
 137 prop tor  13   8   9  27
 138 ben  13  12  30
 139 ben  13  14  15
 140 prop tor  13  14  15   6
 141 prop tor  13  14  15  16
 142 ben  13  14  31
 143 ben  14  15  16
 144 prop tor  14  15  16  17
 145 prop tor  14  15  16  32
 146 prop tor  15   6   7   8
 147 prop tor  15   6   7  26
 148 ben  15  14  31
 149 ben  15  16  17
 150 prop tor  15  16  17   4
 151 prop tor  15  16  17  18
 152 ben  15  16  32
 153 ben  16  17  18
 154 prop tor  16  17  18  19
 155 prop tor  16  17  18  33
 156 prop tor  17   4   5   6
 157 prop tor  17   4   5  25
 158 ben  17  16  32
 159 ben  17  18  19
 160 prop tor  17  18  19   2
 161 prop tor  17  18  19  20
 162 ben  17  18  33
 163 ben  18  19  20
 164 prop tor  18  19  20  21
 165 prop tor  18  19  20  34
 166 prop tor  19   2   3   4
 167 prop tor  19   2   3  24
 168 ben  19  18  33
 169 ben  19  20  21
 170 prop tor  19  20  21  22
 171 prop tor  19  20  21  35
 172 ben  19  20  34
 173 ben  20  21  22
 174 prop tor  20  21  22   1
 175 prop tor  20  21  22  36
 176 ben  20  21  35
 177 ben  21  20  34
 178 ben  21  22  36
 179 prop tor  22   1   2   3
 180 prop tor  22   1   2  19
 181 ben  22   1  23
 182 ben  22  21  35
 183 prop tor  23   1   2   3
 184 prop tor  23   1   2  19
 185 prop tor  23   1  22  21
 186 prop tor  23   1  22  36
 187 prop tor  24   3   4   5
 188 prop tor  24   3   4  17
 189 prop tor  25   5   6   7
 190 prop tor  25   5   6  15
 191 prop tor  26   7   8   9
 192 prop tor  26   7   8  13
 193 prop tor  27   9  10  11
 194 prop tor  27   9  10  28
 195 prop tor  28  10  11  12
 196 prop tor  28  10  11  29
 197 prop tor  29  11  12  13
 198 prop tor  29  11  12  30
 199 prop tor  30  12  13   8
 200 prop tor  30  12  13  14
 201 prop tor  31  14  15   6
 202 prop tor  31  14  15  16
 203 prop tor  32  16  17   4
 204 prop tor  32  16  17  18
 205 prop tor  33  18  19   2
 206 prop tor  33  18  19  20
 207 prop tor  34  20  21  22
 208 prop tor  34  20  21  35
 209 prop tor  35  21  22   1
 210 prop tor  35  21  22  36
 nber bend=              66
 nber lin bend=           0
 nber prop tor=         104
 nber impr tor=           0
 nber tot redund int=         210
 Reading file: 
 ./Benzene_Conj_4_C0S1.log                                                      
                                          
  Entering Gaussian System, Link 0=g16                                          
  
 Gaussian format, type: g94, g98, g03= F F F
  #P Geom=AllCheck Guess=TCheck SCRF=Check GenChk RB3LYP TD(FC,Read)/6-3    
 energy type= TD      
 Original G94 input coords:
  6  4.939948 -1.399889  0.000000
  6  3.700656 -0.721093  0.000000
  6  2.462245 -1.400991  0.000000
  6  1.235772 -0.727125  0.000000
  6  0.000000 -1.401032  0.000000
  6 -1.235772 -0.727125  0.000000
  6 -2.462245 -1.400991  0.000000
  6 -3.700656 -0.721093  0.000000
  6 -4.939948 -1.399889  0.000000
  6 -6.137244 -0.702831  0.000000
  6 -6.137244  0.702831  0.000000
  6 -4.939948  1.399889  0.000000
  6 -3.700656  0.721093  0.000000
  6 -2.462245  1.400991  0.000000
  6 -1.235772  0.727125  0.000000
  6  0.000000  1.401032  0.000000
  6  1.235772  0.727125  0.000000
  6  2.462245  1.400991  0.000000
  6  3.700656  0.721093  0.000000
  6  4.939948  1.399889  0.000000
  6  6.137244  0.702831  0.000000
  6  6.137244 -0.702831  0.000000
  1  4.941686 -2.485168  0.000000
  1  2.464318 -2.486758  0.000000
  1  0.000000 -2.486897  0.000000
  1 -2.464318 -2.486758  0.000000
  1 -4.941686 -2.485168  0.000000
  1 -7.077205 -1.242364  0.000000
  1 -7.077205  1.242364  0.000000
  1 -4.941686  2.485168  0.000000
  1 -2.464318  2.486758  0.000000
  1  0.000000  2.486897  0.000000
  1  2.464318  2.486758  0.000000
  1  4.941686  2.485168  0.000000
  1  7.077205  1.242364  0.000000
  1  7.077205 -1.242364  0.000000
 nber atoms=          36
 Original standard coords:
  6  0.000000  4.939948  1.399889
  6  0.000000  3.700656  0.721093
  6  0.000000  2.462245  1.400991
  6  0.000000  1.235772  0.727125
  6  0.000000  0.000000  1.401032
  6  0.000000 -1.235772  0.727125
  6  0.000000 -2.462245  1.400991
  6  0.000000 -3.700656  0.721093
  6  0.000000 -4.939948  1.399889
  6  0.000000 -6.137244  0.702831
  6  0.000000 -6.137244 -0.702831
  6  0.000000 -4.939948 -1.399889
  6  0.000000 -3.700656 -0.721093
  6  0.000000 -2.462245 -1.400991
  6  0.000000 -1.235772 -0.727125
  6  0.000000  0.000000 -1.401032
  6  0.000000  1.235772 -0.727125
  6  0.000000  2.462245 -1.400991
  6  0.000000  3.700656 -0.721093
  6  0.000000  4.939948 -1.399889
  6  0.000000  6.137244 -0.702831
  6  0.000000  6.137244  0.702831
  1  0.000000  4.941686  2.485168
  1  0.000000  2.464318  2.486758
  1  0.000000  0.000000  2.486897
  1  0.000000 -2.464318  2.486758
  1  0.000000 -4.941686  2.485168
  1  0.000000 -7.077205  1.242364
  1  0.000000 -7.077205 -1.242364
  1  0.000000 -4.941686 -2.485168
  1  0.000000 -2.464318 -2.486758
  1  0.000000  0.000000 -2.486897
  1  0.000000  2.464318 -2.486758
  1  0.000000  4.941686 -2.485168
  1  0.000000  7.077205 -1.242364
  1  0.000000  7.077205  1.242364
  Total Energy, E(TD-HF/TD-DFT) =  -846.924489382                               
  
          32          49 "  -846.924489382"
After scan for Atom:   Atom  AN      X      Y      Z        X      Y      Z        X      Y      Z   
After scan for Atom:   Atom  AN      X      Y      Z        X      Y      Z        X      Y      Z   
After scan for Atom:   Atom  AN      X      Y      Z        X      Y      Z        X      Y      Z   
After scan for Atom:   Atom  AN      X      Y      Z        X      Y      Z        X      Y      Z   
After scan for Atom:   Atom  AN      X      Y      Z        X      Y      Z        X      Y      Z   
After scan for Atom:   Atom  AN      X      Y      Z        X      Y      Z        X      Y      Z   
After scan for Atom:   Atom  AN      X      Y      Z        X      Y      Z        X      Y      Z   
After scan for Atom:   Atom  AN      X      Y      Z        X      Y      Z        X      Y      Z   
After scan for Atom:   Atom  AN      X      Y      Z        X      Y      Z        X      Y      Z   
After scan for Atom:   Atom  AN      X      Y      Z        X      Y      Z        X      Y      Z   
After scan for Atom:   Atom  AN      X      Y      Z        X      Y      Z        X      Y      Z   
After scan for Atom:   Atom  AN      X      Y      Z        X      Y      Z        X      Y      Z   
After scan for Atom:   Atom  AN      X      Y      Z        X      Y      Z        X      Y      Z   
After scan for Atom:   Atom  AN      X      Y      Z        X      Y      Z        X      Y      Z   
After scan for Atom:   Atom  AN      X      Y      Z        X      Y      Z        X      Y      Z   
After scan for Atom:   Atom  AN      X      Y      Z        X      Y      Z        X      Y      Z   
After scan for Atom:   Atom  AN      X      Y      Z        X      Y      Z        X      Y      Z   
After scan for Atom:   Atom  AN      X      Y      Z        X      Y      Z        X      Y      Z   
After scan for Atom:   Atom  AN      X      Y      Z        X      Y      Z        X      Y      Z   
After scan for Atom:   Atom  AN      X      Y      Z        X      Y      Z        X      Y      Z   
After scan for Atom:   Atom  AN      X      Y      Z        X      Y      Z        X      Y      Z   
After scan for Atom:   Atom  AN      X      Y      Z        X      Y      Z        X      Y      Z   
After scan for Atom:   Atom  AN      X      Y      Z        X      Y      Z        X      Y      Z   
After scan for Atom:   Atom  AN      X      Y      Z        X      Y      Z        X      Y      Z   
After scan for Atom:   Atom  AN      X      Y      Z        X      Y      Z        X      Y      Z   
After scan for Atom:   Atom  AN      X      Y      Z        X      Y      Z        X      Y      Z   
After scan for Atom:   Atom  AN      X      Y      Z        X      Y      Z        X      Y      Z   
After scan for Atom:   Atom  AN      X      Y      Z        X      Y      Z        X      Y      Z   
After scan for Atom:   Atom  AN      X      Y      Z        X      Y      Z        X      Y      Z   
After scan for Atom:   Atom  AN      X      Y      Z        X      Y      Z        X      Y      Z   
After scan for Atom:   Atom  AN      X      Y      Z        X      Y      Z        X      Y      Z   
After scan for Atom:   Atom  AN      X      Y      Z        X      Y      Z        X      Y      Z   
After scan for Atom:   Atom  AN      X      Y      Z        X      Y      Z        X      Y      Z   
After scan for Atom:   Atom  AN      X      Y      Z        X      Y      Z        X      Y      Z   
 g94    frequencies=
     0.0    0.0    0.0    0.0    0.0    0.0   36.0   67.1   99.2  117.7
   147.3  187.4  237.7  239.2  261.9  301.1  332.1  358.3  361.5  426.2
   442.2  450.8  461.3  468.9  485.3  509.2  538.0  547.5  585.7  611.6
   626.6  631.5  683.3  690.0  728.4  740.5  743.2  744.2  745.3  750.7
   755.0  802.1  802.7  828.2  832.5  841.0  857.6  864.9  879.6  888.9
   889.3  896.3  915.5  932.0  941.0  941.4  973.6  973.6 1046.6 1047.3
  1130.2 1140.7 1175.0 1181.7 1197.9 1205.3 1211.9 1218.3 1255.9 1258.8
  1288.7 1290.6 1300.8 1312.6 1314.5 1346.0 1353.1 1383.2 1417.2 1425.7
  1427.9 1433.6 1470.8 1475.2 1507.3 1522.8 1534.4 1542.5 1571.1 1577.6
  1597.3 1611.7 1637.1 1639.1 3152.6 3153.8 3154.8 3156.4 3156.5 3158.1
  3158.8 3158.8 3161.6 3162.4 3176.0 3176.1 3190.2 3190.5
 g94    symmetries=
                                                B3     AU     B1     B1
      B2     B3     B3     AU     AG     B1     B2     B3     B1     B3
      B1     B3     B1     B3     B2     B3     AU     B2     B1     AG
      AG     B2     AU     B2     B3     B2     B3     B1     AU     B2
      AG     B2     AG     B3     AU     B1     B2     B1     AU     B3
      B2     B2     B1     B3     B1     B3     AU     B2     B2     AG
      B1     B3     B2     AG     B2     B3     B1     AG     B2     B3
      B1     B3     B3     AG     B1     B2     B1     AG     B2     AG
      B3     B2     B2     B1     AG     B2     AG     B3     B2     AG
      B3     B1     B1     B3     B1     AG     B3     B2     B1     B3
      B1     AG     B2     AG     B3     B1     B2     AG
 atomic masses:
 12.0000 12.0000 12.0000 12.0000 12.0000 12.0000 12.0000 12.0000 12.0000 12.0000
 12.0000 12.0000 12.0000 12.0000 12.0000 12.0000 12.0000 12.0000 12.0000 12.0000
 12.0000 12.0000  1.0078  1.0078  1.0078  1.0078  1.0078  1.0078  1.0078  1.0078
  1.0078  1.0078  1.0078  1.0078  1.0078  1.0078
 looking for force constants in 
 ./Benzene_Conj_4_C0S1.fchk                                                     
  
 Cartesian Force Constants                  R   N=        5886                  
  
 n3=         108        5886
 g94-fc frequencies=
    -2.8   -2.7   -0.0    0.0    0.0    4.6   36.0   67.1   99.2  117.7
   147.3  187.4  237.7  239.2  261.9  301.1  332.1  358.3  361.5  426.2
   442.2  450.8  461.3  468.9  485.3  509.2  538.0  547.6  585.7  611.6
   626.6  631.5  683.3  690.0  728.4  740.5  743.2  744.2  745.3  750.7
   755.1  802.1  802.7  828.3  832.5  841.0  857.6  864.9  879.6  888.9
   889.3  896.3  915.5  932.0  941.1  941.5  973.6  973.6 1046.6 1047.3
  1130.2 1140.7 1175.0 1181.7 1197.9 1205.4 1211.9 1218.4 1256.0 1258.8
  1288.7 1290.6 1300.8 1312.6 1314.6 1346.0 1353.1 1383.3 1417.3 1425.7
  1427.9 1433.7 1470.8 1475.2 1507.4 1522.8 1534.4 1542.5 1571.1 1577.7
  1597.4 1611.7 1637.2 1639.1 3152.7 3153.9 3154.8 3156.5 3156.5 3158.2
  3158.9 3158.9 3161.7 3162.5 3176.1 3176.1 3190.2 3190.6
 at 99999: n3=         108
 symm operator            1 :  T  nop=           1
 symm operator            2 :  T  nop=           2
 symm operator            3 :  T  nop=           3
 symm operator            4 :  T  nop=           4
 symm operator            5 :  T  nop=           5
 symm operator            6 :  T  nop=           6
 symm operator            7 :  T  nop=           7
 The point group of the molecule is D2H
 enforcing symm op           1  jsymt=          -1          -1           1
 enforcing symm op           2  jsymt=          -1           1          -1
 enforcing symm op           3  jsymt=           1          -1          -1
 enforcing symm op           4  jsymt=          -1          -1          -1
 enforcing symm op           5  jsymt=           1           1          -1
 enforcing symm op           6  jsymt=           1          -1           1
 enforcing symm op           7  jsymt=          -1           1           1
 cartesian coord symmetries:
 Ag :   18 Au :    8 B1g:    8 B1u:   18 B2g:   10 B2u:   18 B3g:   18 B3u:   10
 Symmetry rotation matrix:
   1.00000   0.00000   0.00000
   0.00000   1.00000   0.00000
   0.00000   0.00000   1.00000

 Projecting out zero-frequency components
 generating redundant internal coords
         300        3600          36
 search for int coords
   1 str   2   1   1.413
   2 str   3   2   1.413
   3 str   4   3   1.399
   4 str   5   4   1.408
   5 str   6   5   1.408
   6 str   7   6   1.399
   7 str   8   7   1.413
   8 str   9   8   1.413
   9 str  10   9   1.385
  10 str  11  10   1.406
  11 str  12  11   1.385
  12 str  13   8   1.442
  13 str  13  12   1.413
  14 str  14  13   1.413
  15 str  15   6   1.454
  16 str  15  14   1.399
  17 str  16  15   1.408
  18 str  17   4   1.454
  19 str  17  16   1.408
  20 str  18  17   1.399
  21 str  19   2   1.442
  22 str  19  18   1.413
  23 str  20  19   1.413
  24 str  21  20   1.385
  25 str  22   1   1.385
  26 str  22  21   1.406
  27 str  23   1   1.085
  28 str  24   3   1.086
  29 str  25   5   1.086
  30 str  26   7   1.086
  31 str  27   9   1.085
  32 str  28  10   1.084
  33 str  29  11   1.084
  34 str  30  12   1.085
  35 str  31  14   1.086
  36 str  32  16   1.086
  37 str  33  18   1.086
  38 str  34  20   1.085
  39 str  35  21   1.084
  40 str  36  22   1.084
 nber stretches=          40
  41 ben   1   2   3
  42 prop tor   1   2   3   4
  43 prop tor   1   2   3  24
  44 ben   1   2  19
  45 prop tor   1   2  19  18
  46 prop tor   1   2  19  20
  47 ben   1  22  21
  48 ben   1  22  36
  49 ben   2   1  22
  50 prop tor   2   1  22  21
  51 prop tor   2   1  22  36
  52 ben   2   1  23
  53 ben   2   3   4
  54 prop tor   2   3   4   5
  55 prop tor   2   3   4  17
  56 ben   2   3  24
  57 ben   2  19  18
  58 ben   2  19  20
  59 prop tor   2  19  20  21
  60 prop tor   2  19  20  34
  61 ben   3   2  19
  62 prop tor   3   2  19  18
  63 prop tor   3   2  19  20
  64 ben   3   4   5
  65 prop tor   3   4   5   6
  66 prop tor   3   4   5  25
  67 ben   3   4  17
  68 prop tor   3   4  17  16
  69 prop tor   3   4  17  18
  70 ben   4   3  24
  71 ben   4   5   6
  72 prop tor   4   5   6   7
  73 prop tor   4   5   6  15
  74 ben   4   5  25
  75 ben   4  17  16
  76 ben   4  17  18
  77 prop tor   4  17  18  19
  78 prop tor   4  17  18  33
  79 ben   5   4  17
  80 prop tor   5   4  17  16
  81 prop tor   5   4  17  18
  82 ben   5   6   7
  83 prop tor   5   6   7   8
  84 prop tor   5   6   7  26
  85 ben   5   6  15
  86 prop tor   5   6  15  14
  87 prop tor   5   6  15  16
  88 ben   6   5  25
  89 ben   6   7   8
  90 prop tor   6   7   8   9
  91 prop tor   6   7   8  13
  92 ben   6   7  26
  93 ben   6  15  14
  94 ben   6  15  16
  95 prop tor   6  15  16  17
  96 prop tor   6  15  16  32
  97 ben   7   6  15
  98 prop tor   7   6  15  14
  99 prop tor   7   6  15  16
 100 ben   7   8   9
 101 prop tor   7   8   9  10
 102 prop tor   7   8   9  27
 103 ben   7   8  13
 104 prop tor   7   8  13  12
 105 prop tor   7   8  13  14
 106 ben   8   7  26
 107 ben   8   9  10
 108 prop tor   8   9  10  11
 109 prop tor   8   9  10  28
 110 ben   8   9  27
 111 ben   8  13  12
 112 ben   8  13  14
 113 prop tor   8  13  14  15
 114 prop tor   8  13  14  31
 115 ben   9   8  13
 116 prop tor   9   8  13  12
 117 prop tor   9   8  13  14
 118 ben   9  10  11
 119 prop tor   9  10  11  12
 120 prop tor   9  10  11  29
 121 ben   9  10  28
 122 ben  10   9  27
 123 ben  10  11  12
 124 prop tor  10  11  12  13
 125 prop tor  10  11  12  30
 126 ben  10  11  29
 127 ben  11  10  28
 128 ben  11  12  13
 129 prop tor  11  12  13   8
 130 prop tor  11  12  13  14
 131 ben  11  12  30
 132 ben  12  11  29
 133 ben  12  13  14
 134 prop tor  12  13  14  15
 135 prop tor  12  13  14  31
 136 prop tor  13   8   9  10
 137 prop tor  13   8   9  27
 138 ben  13  12  30
 139 ben  13  14  15
 140 prop tor  13  14  15   6
 141 prop tor  13  14  15  16
 142 ben  13  14  31
 143 ben  14  15  16
 144 prop tor  14  15  16  17
 145 prop tor  14  15  16  32
 146 prop tor  15   6   7   8
 147 prop tor  15   6   7  26
 148 ben  15  14  31
 149 ben  15  16  17
 150 prop tor  15  16  17   4
 151 prop tor  15  16  17  18
 152 ben  15  16  32
 153 ben  16  17  18
 154 prop tor  16  17  18  19
 155 prop tor  16  17  18  33
 156 prop tor  17   4   5   6
 157 prop tor  17   4   5  25
 158 ben  17  16  32
 159 ben  17  18  19
 160 prop tor  17  18  19   2
 161 prop tor  17  18  19  20
 162 ben  17  18  33
 163 ben  18  19  20
 164 prop tor  18  19  20  21
 165 prop tor  18  19  20  34
 166 prop tor  19   2   3   4
 167 prop tor  19   2   3  24
 168 ben  19  18  33
 169 ben  19  20  21
 170 prop tor  19  20  21  22
 171 prop tor  19  20  21  35
 172 ben  19  20  34
 173 ben  20  21  22
 174 prop tor  20  21  22   1
 175 prop tor  20  21  22  36
 176 ben  20  21  35
 177 ben  21  20  34
 178 ben  21  22  36
 179 prop tor  22   1   2   3
 180 prop tor  22   1   2  19
 181 ben  22   1  23
 182 ben  22  21  35
 183 prop tor  23   1   2   3
 184 prop tor  23   1   2  19
 185 prop tor  23   1  22  21
 186 prop tor  23   1  22  36
 187 prop tor  24   3   4   5
 188 prop tor  24   3   4  17
 189 prop tor  25   5   6   7
 190 prop tor  25   5   6  15
 191 prop tor  26   7   8   9
 192 prop tor  26   7   8  13
 193 prop tor  27   9  10  11
 194 prop tor  27   9  10  28
 195 prop tor  28  10  11  12
 196 prop tor  28  10  11  29
 197 prop tor  29  11  12  13
 198 prop tor  29  11  12  30
 199 prop tor  30  12  13   8
 200 prop tor  30  12  13  14
 201 prop tor  31  14  15   6
 202 prop tor  31  14  15  16
 203 prop tor  32  16  17   4
 204 prop tor  32  16  17  18
 205 prop tor  33  18  19   2
 206 prop tor  33  18  19  20
 207 prop tor  34  20  21  22
 208 prop tor  34  20  21  35
 209 prop tor  35  21  22   1
 210 prop tor  35  21  22  36
 nber bend=              66
 nber lin bend=           0
 nber prop tor=         104
 nber impr tor=           0
 nber tot redund int=         210
 Eigenvalues of G in red int coords
    Gval -0.00000000 -0.00000000 -0.00000000 -0.00000000 -0.00000000 -0.00000000 -0.00000000 -0.00000000
    Gval -0.00000000 -0.00000000 -0.00000000 -0.00000000 -0.00000000 -0.00000000 -0.00000000 -0.00000000
    Gval -0.00000000 -0.00000000 -0.00000000 -0.00000000 -0.00000000 -0.00000000 -0.00000000 -0.00000000
    Gval -0.00000000 -0.00000000 -0.00000000 -0.00000000 -0.00000000 -0.00000000 -0.00000000 -0.00000000
    Gval -0.00000000 -0.00000000 -0.00000000 -0.00000000 -0.00000000 -0.00000000 -0.00000000 -0.00000000
    Gval -0.00000000 -0.00000000 -0.00000000 -0.00000000 -0.00000000 -0.00000000 -0.00000000 -0.00000000
    Gval -0.00000000 -0.00000000 -0.00000000 -0.00000000 -0.00000000 -0.00000000 -0.00000000  0.00000000
    Gval  0.00000000  0.00000000  0.00000000  0.00000000  0.00000000  0.00000000  0.00000000  0.00000000
    Gval  0.00000000  0.00000000  0.00000000  0.00000000  0.00000000  0.00000000  0.00000000  0.00000000
    Gval  0.00000000  0.00000000  0.00000000  0.00000000  0.00000000  0.00000000  0.00000000  0.00000000
    Gval  0.00000000  0.00000000  0.00000000  0.00000000  0.00000000  0.00000000  0.00000000  0.00000000
    Gval  0.00000000  0.00000000  0.00000000  0.00000000  0.00000000  0.00000000  0.00000000  0.00000000
    Gval  0.00000000  0.00000000  0.00000000  0.00000000  0.00000000  0.00000000  0.00000000  0.00000000
    Gval  0.00000000  0.00000000  0.00000000  0.00000000  0.00000189  0.00000409  0.00000608  0.00000997
    Gval  0.00001570  0.00002686  0.00002831  0.00003165  0.00003276  0.00004081  0.00004332  0.00004490
    Gval  0.00004598  0.00005014  0.00005322  0.00005724  0.00006843  0.00006946  0.00007614  0.00007733
    Gval  0.00008343  0.00009850  0.00010282  0.00010969  0.00011318  0.00011682  0.00012650  0.00013745
    Gval  0.00014055  0.00014765  0.00016270  0.00016493  0.00019699  0.00021503  0.00025886  0.00026160
    Gval  0.00027707  0.00030277  0.00032588  0.00033788  0.00034475  0.00038594  0.00038930  0.00040248
    Gval  0.00041046  0.00041332  0.00041437  0.00043942  0.00047629  0.00048022  0.00059313  0.00059313
    Gval  0.00059697  0.00059698  0.00060801  0.00061147  0.00061897  0.00061993  0.00062855  0.00063467
    Gval  0.00064104  0.00065189  0.00065685  0.00065783  0.00072913  0.00073786  0.00081145  0.00081985
    Gval  0.00089849  0.00096386  0.00105175  0.00105187  0.00110568  0.00111283  0.00111418  0.00111778
    Gval  0.00111799  0.00112278  0.00112588  0.00112756  0.00115829  0.00115830  0.00117093  0.00117093
    Gval  0.00160201  0.00177721  0.00177818  0.00181093  0.00194263  0.00201673  0.00257458  0.00259345
    Gval  0.00276318  0.00284925  0.00303183  0.00312258  0.00330401  0.00334323  0.00354885  0.00357083
    Gval  0.00401248  0.00401280
  1.893697083171678E-006  1.893697083171678E-006
  4.089210775424053E-006  1.893697083171678E-006
  6.083617997083245E-006  1.893697083171678E-006
  9.966499237779108E-006  1.893697083171678E-006
  1.570129482005318E-005  1.893697083171678E-006
  2.686261081122707E-005  1.893697083171678E-006
  2.831443470767692E-005  1.893697083171678E-006
  3.164847702958385E-005  1.893697083171678E-006
  3.276498610356110E-005  1.893697083171678E-006
  4.081160459859799E-005  1.893697083171678E-006
  4.331664709279350E-005  1.893697083171678E-006
  4.490392986692456E-005  1.893697083171678E-006
  4.598388713769969E-005  1.893697083171678E-006
  5.013989941415422E-005  1.893697083171678E-006
  5.322217298481765E-005  1.893697083171678E-006
  5.724151642587279E-005  1.893697083171678E-006
  6.842779794186436E-005  1.893697083171678E-006
  6.946264345778589E-005  1.893697083171678E-006
  7.613517639656550E-005  1.893697083171678E-006
  7.732597834078642E-005  1.893697083171678E-006
  8.343241351051050E-005  1.893697083171678E-006
  9.850339930610706E-005  1.893697083171678E-006
  1.028222105407298E-004  1.893697083171678E-006
  1.096864064158487E-004  1.893697083171678E-006
  1.131787106212599E-004  1.893697083171678E-006
  1.168202554232617E-004  1.893697083171678E-006
  1.265023895834152E-004  1.893697083171678E-006
  1.374536165100620E-004  1.893697083171678E-006
  1.405479419985139E-004  1.893697083171678E-006
  1.476475152305022E-004  1.893697083171678E-006
  1.626986009148709E-004  1.893697083171678E-006
  1.649297300208182E-004  1.893697083171678E-006
  1.969864858561848E-004  1.893697083171678E-006
  2.150326732342048E-004  1.893697083171678E-006
  2.588597570627528E-004  1.893697083171678E-006
  2.616044612329437E-004  1.893697083171678E-006
  2.770701288406559E-004  1.893697083171678E-006
  3.027712542108587E-004  1.893697083171678E-006
  3.258799588483683E-004  1.893697083171678E-006
  3.378763129667236E-004  1.893697083171678E-006
  3.447526389414926E-004  1.893697083171678E-006
  3.859433786234915E-004  1.893697083171678E-006
  3.892969756360443E-004  1.893697083171678E-006
  4.024758711404588E-004  1.893697083171678E-006
  4.104578603086021E-004  1.893697083171678E-006
  4.133170152728912E-004  1.893697083171678E-006
  4.143693911416479E-004  1.893697083171678E-006
  4.394175035225054E-004  1.893697083171678E-006
  4.762886946451168E-004  1.893697083171678E-006
  4.802175656391165E-004  1.893697083171678E-006
  5.931273750036629E-004  1.893697083171678E-006
  5.931295771414576E-004  1.893697083171678E-006
  5.969706180689076E-004  1.893697083171678E-006
  5.969818295434212E-004  1.893697083171678E-006
  6.080099670691327E-004  1.893697083171678E-006
  6.114689154507487E-004  1.893697083171678E-006
  6.189731957777380E-004  1.893697083171678E-006
  6.199277089952003E-004  1.893697083171678E-006
  6.285520085674203E-004  1.893697083171678E-006
  6.346733138803042E-004  1.893697083171678E-006
  6.410369503658494E-004  1.893697083171678E-006
  6.518889395455950E-004  1.893697083171678E-006
  6.568501085027758E-004  1.893697083171678E-006
  6.578250888734436E-004  1.893697083171678E-006
  7.291279257559841E-004  1.893697083171678E-006
  7.378591825618547E-004  1.893697083171678E-006
  8.114549683197731E-004  1.893697083171678E-006
  8.198534557318815E-004  1.893697083171678E-006
  8.984940611012980E-004  1.893697083171678E-006
  9.638572217268178E-004  1.893697083171678E-006
  1.051752976375632E-003  1.893697083171678E-006
  1.051865711153749E-003  1.893697083171678E-006
  1.105675498643256E-003  1.893697083171678E-006
  1.112831254378151E-003  1.893697083171678E-006
  1.114183558440774E-003  1.893697083171678E-006
  1.117779311960353E-003  1.893697083171678E-006
  1.117991592000058E-003  1.893697083171678E-006
  1.122783622263911E-003  1.893697083171678E-006
  1.125880559080377E-003  1.893697083171678E-006
  1.127556837646932E-003  1.893697083171678E-006
  1.158292600329974E-003  1.893697083171678E-006
  1.158301234475772E-003  1.893697083171678E-006
  1.170934207020749E-003  1.893697083171678E-006
  1.170934207671427E-003  1.893697083171678E-006
  1.602012767994003E-003  1.893697083171678E-006
  1.777208272468491E-003  1.893697083171678E-006
  1.778176229695109E-003  1.893697083171678E-006
  1.810927616022603E-003  1.893697083171678E-006
  1.942633530517502E-003  1.893697083171678E-006
  2.016727035087207E-003  1.893697083171678E-006
  2.574584123079080E-003  1.893697083171678E-006
  2.593453263323881E-003  1.893697083171678E-006
  2.763176694072526E-003  1.893697083171678E-006
  2.849248045318556E-003  1.893697083171678E-006
  3.031825173047383E-003  1.893697083171678E-006
  3.122579027740522E-003  1.893697083171678E-006
  3.304007177919570E-003  1.893697083171678E-006
  3.343225451829651E-003  1.893697083171678E-006
  3.548848732964021E-003  1.893697083171678E-006
  3.570826015316181E-003  1.893697083171678E-006
  4.012482883612672E-003  1.893697083171678E-006
  4.012802695610392E-003  1.893697083171678E-006
 cut=1d-8, nber non-redundant internal coords=         102
 Check on Eigenvals of non-red overlap matrix:
  0.00000189  0.00000409  0.00000608  0.00000997  0.00001570  0.00002686  0.00002831  0.00003165
  0.00003276  0.00004081  0.00004332  0.00004490  0.00004598  0.00005014  0.00005322  0.00005724
  0.00006843  0.00006946  0.00007614  0.00007733  0.00008343  0.00009850  0.00010282  0.00010969
  0.00011318  0.00011682  0.00012650  0.00013745  0.00014055  0.00014765  0.00016270  0.00016493
  0.00019699  0.00021503  0.00025886  0.00026160  0.00027707  0.00030277  0.00032588  0.00033788
  0.00034475  0.00038594  0.00038930  0.00040248  0.00041046  0.00041332  0.00041437  0.00043942
  0.00047629  0.00048022  0.00059313  0.00059313  0.00059697  0.00059698  0.00060801  0.00061147
  0.00061897  0.00061993  0.00062855  0.00063467  0.00064104  0.00065189  0.00065685  0.00065783
  0.00072913  0.00073786  0.00081145  0.00081985  0.00089849  0.00096386  0.00105175  0.00105187
  0.00110568  0.00111283  0.00111418  0.00111778  0.00111799  0.00112278  0.00112588  0.00112756
  0.00115829  0.00115830  0.00117093  0.00117093  0.00160201  0.00177721  0.00177818  0.00181093
  0.00194263  0.00201673  0.00257458  0.00259345  0.00276318  0.00284925  0.00303183  0.00312258
  0.00330401  0.00334323  0.00354885  0.00357083  0.00401248  0.00401280
 Checking for correct frequencies
 recalc frequencies=
    -0.0   -0.0   -0.0    0.0    0.0    0.0   36.0   67.1   99.2  117.7
   147.3  187.4  237.7  239.2  261.9  301.1  332.1  358.3  361.5  426.2
   442.2  450.8  461.3  468.9  485.3  509.2  538.0  547.6  585.7  611.6
   626.6  631.5  683.3  690.0  728.4  740.5  743.2  744.2  745.3  750.7
   755.1  802.1  802.7  828.3  832.5  841.0  857.6  864.9  879.6  888.9
   889.3  896.3  915.5  932.0  941.1  941.5  973.6  973.6 1046.6 1047.3
  1130.2 1140.7 1175.0 1181.7 1197.9 1205.4 1211.9 1218.4 1256.0 1258.8
  1288.7 1290.6 1300.8 1312.6 1314.6 1346.0 1353.1 1383.3 1417.3 1425.7
  1427.9 1433.7 1470.8 1475.2 1507.4 1522.8 1534.4 1542.5 1571.1 1577.7
  1597.4 1611.7 1637.2 1639.1 3152.7 3153.9 3154.8 3156.5 3156.5 3158.2
  3158.9 3158.9 3161.7 3162.5 3176.1 3176.1 3190.2 3190.6
 recalc symmetries=
     B3g    B1g    B2u    B3u    B1u    B2g    B3u    Au     B1g    B1u
     B2g    B3u    B3g    Au     Ag     B1g    B2g    B3u    B1u    B3u
     B1g    B3g    B1g    B3u    B2u    B3g    Au     B2g    B1u    Ag 
     Ag     B2u    Au     B2g    B3g    B2g    B3u    B1g    Au     B2u
     Ag     B2g    Ag     B3u    Au     B1u    B2g    B1g    Au     B3u
     B2g    B2u    B1u    B3g    B1g    B3u    Au     B2g    B2u    Ag 
     B1u    B3g    B2u    Ag     B2u    B3g    B1u    Ag     B2u    B3g
     B1u    B3g    B3g    Ag     B1u    B2u    B1u    Ag     B2u    Ag 
     B3g    B2u    B2u    B1u    Ag     B2u    Ag     B3g    B2u    Ag 
     B3g    B1u    B1u    B3g    B1u    Ag     B3g    B2u    B1u    B3g
     B1u    Ag     B2u    Ag     B3g    B1u    B2u    Ag 
 recalc freqs check OK
 Zero-point lengths:
 10.0000 10.0000 10.0000 10.0000 10.0000 10.0000 41.3453 30.2565 24.8846 22.8482
 20.4296 18.1077 16.0789 16.0280 15.3190 14.2867 13.6046 13.0975 13.0381 12.0078
 11.7896 11.6763 11.5430 11.4485 11.2532 10.9864 10.6882 10.5945 10.2436 10.0247
  9.9038  9.8653  9.4841  9.4375  9.1857  9.1104  9.0939  9.0875  9.0808  9.0480
  9.0221  8.7534  8.7504  8.6141  8.5922  8.5487  8.4654  8.4299  8.3590  8.3150
  8.3134  8.2807  8.1933  8.1206  8.0814  8.0797  7.9452  7.9451  7.6630  7.6605
  7.3742  7.3403  7.2323  7.2116  7.1629  7.1406  7.1213  7.1024  6.9954  6.9874
  6.9058  6.9007  6.8737  6.8427  6.8377  6.7573  6.7396  6.6657  6.5852  6.5657
  6.5606  6.5474  6.4642  6.4545  6.3854  6.3529  6.3288  6.3123  6.2545  6.2415
  6.2029  6.1752  6.1270  6.1233  4.4152  4.4144  4.4138  4.4126  4.4126  4.4114
  4.4109  4.4109  4.4090  4.4084  4.3989  4.3989  4.3892  4.3889
 highest evec of mol 2
  0.0000  0.0056 -0.0491
  0.0000  0.0021  0.0007
  0.0000  0.0002 -0.0043
  0.0000 -0.0002  0.0001
  0.0000  0.0000 -0.0022
  0.0000  0.0002  0.0001
  0.0000 -0.0002 -0.0043
  0.0000 -0.0021  0.0007
  0.0000 -0.0056 -0.0491
  0.0000  0.1206 -0.0717
  0.0000  0.1206  0.0717
  0.0000 -0.0056  0.0491
  0.0000 -0.0021 -0.0007
  0.0000 -0.0002  0.0043
  0.0000  0.0002 -0.0001
  0.0000  0.0000  0.0022
  0.0000 -0.0002 -0.0001
  0.0000  0.0002  0.0043
  0.0000  0.0021 -0.0007
  0.0000  0.0056  0.0491
  0.0000 -0.1206  0.0717
  0.0000 -0.1206 -0.0717
  0.0000 -0.0017  0.1520
  0.0000 -0.0004  0.0140
  0.0000  0.0000  0.0067
  0.0000  0.0004  0.0140
  0.0000  0.0017  0.1520
  0.0000 -0.3916  0.2262
  0.0000 -0.3916 -0.2262
  0.0000  0.0017 -0.1520
  0.0000  0.0004 -0.0140
  0.0000  0.0000 -0.0067
  0.0000 -0.0004 -0.0140
  0.0000 -0.0017 -0.1520
  0.0000  0.3916 -0.2262
  0.0000  0.3916  0.2262
 Enter nber and list of atoms to keep of mol #2
 keep list:          36           1           2           3           4
           5           6           7           8           9          10
          11          12          13          14          15          16
          17          18          19          20          21          22
          23          24          25          26          27          28
          29          30          31          32          33          34
          35          36
 reordering atoms
           1   4.93994800000000     
           2   3.70065600000000     
           3   2.46224500000000     
           4   1.23577200000000     
           5  0.000000000000000E+000
           6  -1.23577200000000     
           7  -2.46224500000000     
           8  -3.70065600000000     
           9  -4.93994800000000     
          10  -6.13724400000000     
          11  -6.13724400000000     
          12  -4.93994800000000     
          13  -3.70065600000000     
          14  -2.46224500000000     
          15  -1.23577200000000     
          16  0.000000000000000E+000
          17   1.23577200000000     
          18   2.46224500000000     
          19   3.70065600000000     
          20   4.93994800000000     
          21   6.13724400000000     
          22   6.13724400000000     
          23   4.94168600000000     
          24   2.46431800000000     
          25  0.000000000000000E+000
          26  -2.46431800000000     
          27  -4.94168600000000     
          28  -7.07720500000000     
          29  -7.07720500000000     
          30  -4.94168600000000     
          31  -2.46431800000000     
          32  0.000000000000000E+000
          33   2.46431800000000     
          34   4.94168600000000     
          35   7.07720500000000     
          36   7.07720500000000     
           1           1
           2           2
           3           3
           4           4
           5           5
           6           6
           7           7
           8           8
           9           9
          10          10
          11          11
          12          12
          13          13
          14          14
          15          15
          16          16
          17          17
          18          18
          19          19
          20          20
          21          21
          22          22
          23          23
          24          24
          25          25
          26          26
          27          27
          28          28
          29          29
          30          30
          31          31
          32          32
          33          33
          34          34
          35          35
          36          36
 initial cartes coords mol 1
   6   0.00000   1.40845   4.93531
   6   0.00000   0.72684   3.67279
   6   0.00000   1.40625   2.46431
   6   0.00000   0.72762   1.22455
   6   0.00000   1.40675   0.00000
   6   0.00000   0.72762  -1.22455
   6   0.00000   1.40625  -2.46431
   6   0.00000   0.72684  -3.67279
   6   0.00000   1.40845  -4.93531
   6   0.00000   0.71589  -6.10776
   6   0.00000  -0.71589  -6.10776
   6   0.00000  -1.40845  -4.93531
   6   0.00000  -0.72684  -3.67279
   6   0.00000  -1.40625  -2.46431
   6   0.00000  -0.72762  -1.22455
   6   0.00000  -1.40675   0.00000
   6   0.00000  -0.72762   1.22455
   6   0.00000  -1.40625   2.46431
   6   0.00000  -0.72684   3.67279
   6   0.00000  -1.40845   4.93531
   6   0.00000  -0.71589   6.10776
   6   0.00000   0.71589   6.10776
   1   0.00000   2.49375   4.93528
   1   0.00000   2.49188   2.46493
   1   0.00000   2.49232   0.00000
   1   0.00000   2.49188  -2.46493
   1   0.00000   2.49375  -4.93528
   1   0.00000   1.24543  -7.05367
   1   0.00000  -1.24543  -7.05367
   1   0.00000  -2.49375  -4.93528
   1   0.00000  -2.49188  -2.46493
   1   0.00000  -2.49232   0.00000
   1   0.00000  -2.49188   2.46493
   1   0.00000  -2.49375   4.93528
   1   0.00000  -1.24543   7.05367
   1   0.00000   1.24543   7.05367
 initial cartes coords mol 2
   6   0.00000   1.39989   4.93995
   6   0.00000   0.72109   3.70066
   6   0.00000   1.40099   2.46224
   6   0.00000   0.72713   1.23577
   6   0.00000   1.40103   0.00000
   6   0.00000   0.72713  -1.23577
   6   0.00000   1.40099  -2.46224
   6   0.00000   0.72109  -3.70066
   6   0.00000   1.39989  -4.93995
   6   0.00000   0.70283  -6.13724
   6   0.00000  -0.70283  -6.13724
   6   0.00000  -1.39989  -4.93995
   6   0.00000  -0.72109  -3.70066
   6   0.00000  -1.40099  -2.46224
   6   0.00000  -0.72713  -1.23577
   6   0.00000  -1.40103   0.00000
   6   0.00000  -0.72713   1.23577
   6   0.00000  -1.40099   2.46224
   6   0.00000  -0.72109   3.70066
   6   0.00000  -1.39989   4.93995
   6   0.00000  -0.70283   6.13724
   6   0.00000   0.70283   6.13724
   1   0.00000   2.48517   4.94169
   1   0.00000   2.48676   2.46432
   1   0.00000   2.48690   0.00000
   1   0.00000   2.48676  -2.46432
   1   0.00000   2.48517  -4.94169
   1   0.00000   1.24236  -7.07721
   1   0.00000  -1.24236  -7.07721
   1   0.00000  -2.48517  -4.94169
   1   0.00000  -2.48676  -2.46432
   1   0.00000  -2.48690   0.00000
   1   0.00000  -2.48676   2.46432
   1   0.00000  -2.48517   4.94169
   1   0.00000  -1.24236   7.07721
   1   0.00000   1.24236   7.07721
 loop 1 0
 mod cartes coords mol 2
   6   0.00000   1.39989   4.93995
   6   0.00000   0.72109   3.70066
   6   0.00000   1.40099   2.46224
   6   0.00000   0.72713   1.23577
   6   0.00000   1.40103   0.00000
   6   0.00000   0.72713  -1.23577
   6   0.00000   1.40099  -2.46224
   6   0.00000   0.72109  -3.70066
   6   0.00000   1.39989  -4.93995
   6   0.00000   0.70283  -6.13724
   6   0.00000  -0.70283  -6.13724
   6   0.00000  -1.39989  -4.93995
   6   0.00000  -0.72109  -3.70066
   6   0.00000  -1.40099  -2.46224
   6   0.00000  -0.72713  -1.23577
   6   0.00000  -1.40103   0.00000
   6   0.00000  -0.72713   1.23577
   6   0.00000  -1.40099   2.46224
   6   0.00000  -0.72109   3.70066
   6   0.00000  -1.39989   4.93995
   6   0.00000  -0.70283   6.13724
   6   0.00000   0.70283   6.13724
   1   0.00000   2.48517   4.94169
   1   0.00000   2.48676   2.46432
   1   0.00000   2.48690   0.00000
   1   0.00000   2.48676  -2.46432
   1   0.00000   2.48517  -4.94169
   1   0.00000   1.24236  -7.07721
   1   0.00000  -1.24236  -7.07721
   1   0.00000  -2.48517  -4.94169
   1   0.00000  -2.48676  -2.46432
   1   0.00000  -2.48690   0.00000
   1   0.00000  -2.48676   2.46432
   1   0.00000  -2.48517   4.94169
   1   0.00000  -1.24236   7.07721
   1   0.00000   1.24236   7.07721
 read in order, maxerr=  0.03 for atom  10
 final axis swaps:           1           1           1
 final xyz swap pattern=           1
 reorder list:
   1   2   3   4   5   6   7   8   9  10  11  12  13  14  15  16  17  18  19  20
  21  22  23  24  25  26  27  28  29  30  31  32  33  34  35  36
 axis signs=           1           1           1
  6     0.000000  1.399889  4.939948     0.000000  1.408448  4.935313
  6     0.000000  0.721093  3.700656     0.000000  0.726839  3.672792
  6     0.000000  1.400991  2.462245     0.000000  1.406247  2.464310
  6     0.000000  0.727125  1.235772     0.000000  0.727625  1.224548
  6     0.000000  1.401032  0.000000     0.000000  1.406748  0.000000
  6     0.000000  0.727125 -1.235772     0.000000  0.727625 -1.224548
  6     0.000000  1.400991 -2.462245     0.000000  1.406247 -2.464310
  6     0.000000  0.721093 -3.700656     0.000000  0.726839 -3.672792
  6     0.000000  1.399889 -4.939948     0.000000  1.408448 -4.935313
  6     0.000000  0.702831 -6.137244     0.000000  0.715894 -6.107765
  6     0.000000 -0.702831 -6.137244     0.000000 -0.715894 -6.107765
  6     0.000000 -1.399889 -4.939948     0.000000 -1.408448 -4.935313
  6     0.000000 -0.721093 -3.700656     0.000000 -0.726839 -3.672792
  6     0.000000 -1.400991 -2.462245     0.000000 -1.406247 -2.464310
  6     0.000000 -0.727125 -1.235772     0.000000 -0.727625 -1.224548
  6     0.000000 -1.401032  0.000000     0.000000 -1.406748  0.000000
  6     0.000000 -0.727125  1.235772     0.000000 -0.727625  1.224548
  6     0.000000 -1.400991  2.462245     0.000000 -1.406247  2.464310
  6     0.000000 -0.721093  3.700656     0.000000 -0.726839  3.672792
  6     0.000000 -1.399889  4.939948     0.000000 -1.408448  4.935313
  6     0.000000 -0.702831  6.137244     0.000000 -0.715894  6.107765
  6     0.000000  0.702831  6.137244     0.000000  0.715894  6.107765
  1     0.000000  2.485168  4.941686     0.000000  2.493748  4.935281
  1     0.000000  2.486758  2.464318     0.000000  2.491878  2.464929
  1     0.000000  2.486897  0.000000     0.000000  2.492321  0.000000
  1     0.000000  2.486758 -2.464318     0.000000  2.491878 -2.464929
  1     0.000000  2.485168 -4.941686     0.000000  2.493748 -4.935281
  1     0.000000  1.242364 -7.077205     0.000000  1.245430 -7.053673
  1     0.000000 -1.242364 -7.077205     0.000000 -1.245430 -7.053673
  1     0.000000 -2.485168 -4.941686     0.000000 -2.493748 -4.935281
  1     0.000000 -2.486758 -2.464318     0.000000 -2.491878 -2.464929
  1     0.000000 -2.486897  0.000000     0.000000 -2.492321  0.000000
  1     0.000000 -2.486758  2.464318     0.000000 -2.491878  2.464929
  1     0.000000 -2.485168  4.941686     0.000000 -2.493748  4.935281
  1     0.000000 -1.242364  7.077205     0.000000 -1.245430  7.053673
  1     0.000000  1.242364  7.077205     0.000000  1.245430  7.053673
 generating redundant internal coords
         300        3600          36
 Adding extra bonds for z output only
           6           6           6           6           6           6
           6           6           6           6           6           6
           6           6           6           6           6           6
           6           6           6           6           1           1
           1           1           1           1           1           1
           1           1           1           1           1           1
 search for int coords
   1 str   2   1   1.413
   2 str   3   2   1.413
   3 str   4   3   1.399
   4 str   5   4   1.408
   5 str   6   5   1.408
   6 str   7   6   1.399
   7 str   8   7   1.413
   8 str   9   8   1.413
   9 str  10   9   1.385
  10 str  11  10   1.406
  11 str  12  11   1.385
  12 str  13   8   1.442
  13 str  13  12   1.413
  14 str  14  13   1.413
  15 str  15   6   1.454
  16 str  15  14   1.399
  17 str  16  15   1.408
  18 str  17   4   1.454
  19 str  17  16   1.408
  20 str  18  17   1.399
  21 str  19   2   1.442
  22 str  19  18   1.413
  23 str  20  19   1.413
  24 str  21  20   1.385
  25 str  22   1   1.385
  26 str  22  21   1.406
  27 str  23   1   1.085
  28 str  24   3   1.086
  29 str  25   5   1.086
  30 str  26   7   1.086
  31 str  27   9   1.085
  32 str  28  10   1.084
  33 str  29  11   1.084
  34 str  30  12   1.085
  35 str  31  14   1.086
  36 str  32  16   1.086
  37 str  33  18   1.086
  38 str  34  20   1.085
  39 str  35  21   1.084
  40 str  36  22   1.084
 nber stretches=          40
  41 ben   1   2   3
  42 prop tor   1   2   3   4
  43 prop tor   1   2   3  24
  44 ben   1   2  19
  45 prop tor   1   2  19  18
  46 prop tor   1   2  19  20
  47 ben   1  22  21
  48 ben   1  22  36
  49 ben   2   1  22
  50 prop tor   2   1  22  21
  51 prop tor   2   1  22  36
  52 ben   2   1  23
  53 ben   2   3   4
  54 prop tor   2   3   4   5
  55 prop tor   2   3   4  17
  56 ben   2   3  24
  57 ben   2  19  18
  58 ben   2  19  20
  59 prop tor   2  19  20  21
  60 prop tor   2  19  20  34
  61 ben   3   2  19
  62 prop tor   3   2  19  18
  63 prop tor   3   2  19  20
  64 ben   3   4   5
  65 prop tor   3   4   5   6
  66 prop tor   3   4   5  25
  67 ben   3   4  17
  68 prop tor   3   4  17  16
  69 prop tor   3   4  17  18
  70 ben   4   3  24
  71 ben   4   5   6
  72 prop tor   4   5   6   7
  73 prop tor   4   5   6  15
  74 ben   4   5  25
  75 ben   4  17  16
  76 ben   4  17  18
  77 prop tor   4  17  18  19
  78 prop tor   4  17  18  33
  79 ben   5   4  17
  80 prop tor   5   4  17  16
  81 prop tor   5   4  17  18
  82 ben   5   6   7
  83 prop tor   5   6   7   8
  84 prop tor   5   6   7  26
  85 ben   5   6  15
  86 prop tor   5   6  15  14
  87 prop tor   5   6  15  16
  88 ben   6   5  25
  89 ben   6   7   8
  90 prop tor   6   7   8   9
  91 prop tor   6   7   8  13
  92 ben   6   7  26
  93 ben   6  15  14
  94 ben   6  15  16
  95 prop tor   6  15  16  17
  96 prop tor   6  15  16  32
  97 ben   7   6  15
  98 prop tor   7   6  15  14
  99 prop tor   7   6  15  16
 100 ben   7   8   9
 101 prop tor   7   8   9  10
 102 prop tor   7   8   9  27
 103 ben   7   8  13
 104 prop tor   7   8  13  12
 105 prop tor   7   8  13  14
 106 ben   8   7  26
 107 ben   8   9  10
 108 prop tor   8   9  10  11
 109 prop tor   8   9  10  28
 110 ben   8   9  27
 111 ben   8  13  12
 112 ben   8  13  14
 113 prop tor   8  13  14  15
 114 prop tor   8  13  14  31
 115 ben   9   8  13
 116 prop tor   9   8  13  12
 117 prop tor   9   8  13  14
 118 ben   9  10  11
 119 prop tor   9  10  11  12
 120 prop tor   9  10  11  29
 121 ben   9  10  28
 122 ben  10   9  27
 123 ben  10  11  12
 124 prop tor  10  11  12  13
 125 prop tor  10  11  12  30
 126 ben  10  11  29
 127 ben  11  10  28
 128 ben  11  12  13
 129 prop tor  11  12  13   8
 130 prop tor  11  12  13  14
 131 ben  11  12  30
 132 ben  12  11  29
 133 ben  12  13  14
 134 prop tor  12  13  14  15
 135 prop tor  12  13  14  31
 136 prop tor  13   8   9  10
 137 prop tor  13   8   9  27
 138 ben  13  12  30
 139 ben  13  14  15
 140 prop tor  13  14  15   6
 141 prop tor  13  14  15  16
 142 ben  13  14  31
 143 ben  14  15  16
 144 prop tor  14  15  16  17
 145 prop tor  14  15  16  32
 146 prop tor  15   6   7   8
 147 prop tor  15   6   7  26
 148 ben  15  14  31
 149 ben  15  16  17
 150 prop tor  15  16  17   4
 151 prop tor  15  16  17  18
 152 ben  15  16  32
 153 ben  16  17  18
 154 prop tor  16  17  18  19
 155 prop tor  16  17  18  33
 156 prop tor  17   4   5   6
 157 prop tor  17   4   5  25
 158 ben  17  16  32
 159 ben  17  18  19
 160 prop tor  17  18  19   2
 161 prop tor  17  18  19  20
 162 ben  17  18  33
 163 ben  18  19  20
 164 prop tor  18  19  20  21
 165 prop tor  18  19  20  34
 166 prop tor  19   2   3   4
 167 prop tor  19   2   3  24
 168 ben  19  18  33
 169 ben  19  20  21
 170 prop tor  19  20  21  22
 171 prop tor  19  20  21  35
 172 ben  19  20  34
 173 ben  20  21  22
 174 prop tor  20  21  22   1
 175 prop tor  20  21  22  36
 176 ben  20  21  35
 177 ben  21  20  34
 178 ben  21  22  36
 179 prop tor  22   1   2   3
 180 prop tor  22   1   2  19
 181 ben  22   1  23
 182 ben  22  21  35
 183 prop tor  23   1   2   3
 184 prop tor  23   1   2  19
 185 prop tor  23   1  22  21
 186 prop tor  23   1  22  36
 187 prop tor  24   3   4   5
 188 prop tor  24   3   4  17
 189 prop tor  25   5   6   7
 190 prop tor  25   5   6  15
 191 prop tor  26   7   8   9
 192 prop tor  26   7   8  13
 193 prop tor  27   9  10  11
 194 prop tor  27   9  10  28
 195 prop tor  28  10  11  12
 196 prop tor  28  10  11  29
 197 prop tor  29  11  12  13
 198 prop tor  29  11  12  30
 199 prop tor  30  12  13   8
 200 prop tor  30  12  13  14
 201 prop tor  31  14  15   6
 202 prop tor  31  14  15  16
 203 prop tor  32  16  17   4
 204 prop tor  32  16  17  18
 205 prop tor  33  18  19   2
[...]
  64 Ag   1185.  0.9902    98.1    99.9  64 Ag   1182.
  65 B2u  1188. -0.8199    67.2   100.0  63 B2u  1175.
                 0.5235    27.4          65 B2u  1198.
  66 B3g  1200. -0.9739    94.9   100.1  66 B3g  1205.
  67 Ag   1207.  0.9920    98.4   100.1  68 Ag   1218.
  68 B1u  1210. -0.9713    94.3   100.0  67 B1u  1212.
  69 B3g  1242. -0.9196    84.6   100.1  70 B3g  1259.
                -0.3476    12.1          72 B3g  1291.
  70 B2u  1251.  0.9670    93.5   100.1  69 B2u  1256.
  71 B1u  1294. -0.9373    87.9    99.9  71 B1u  1289.
  72 B3g  1295.  0.5886    34.6    99.9  72 B3g  1291.
                 0.7799    60.8          73 B3g  1301.
  73 B3g  1312. -0.7108    50.5    99.8  72 B3g  1291.
                 0.6171    38.1          73 B3g  1301.
  74 B1u  1319.  0.9698    94.1    99.7  75 B1u  1315.
  75 Ag   1334. -0.8761    76.8   100.0  74 Ag   1313.
                 0.3760    14.1          78 Ag   1383.
  76 B2u  1359. -0.9062    82.1   100.2  82 B2u  1434.
  77 B1u  1376. -0.9438    89.1    99.8  77 B1u  1353.
  78 Ag   1410.  0.9275    86.0    99.9  80 Ag   1426.
  79 B2u  1416. -0.8852    78.4   100.0  79 B2u  1417.
  80 B3g  1419. -0.9875    97.5    99.8  81 B3g  1428.
  81 B2u  1427.  0.7773    60.4    99.5  76 B2u  1346.
                -0.4294    18.4          83 B2u  1471.
  82 Ag   1434. -0.3527    12.4    99.4  74 Ag   1313.
                -0.8494    72.1          78 Ag   1383.
  83 B2u  1478. -0.8107    65.7    99.6  83 B2u  1471.
                -0.4072    16.6          89 B2u  1571.
  84 B1u  1478. -0.9514    90.5   100.4  84 B1u  1475.
  85 Ag   1493. -0.8757    76.7    99.5  85 Ag   1507.
                 0.3325    11.1          90 Ag   1578.
  86 B2u  1542. -0.3456    11.9    99.7  83 B2u  1471.
                 0.7915    62.6          86 B2u  1523.
                 0.3751    14.1          89 B2u  1571.
  87 Ag   1557. -0.9463    89.5   100.2  87 Ag   1534.
  88 Ag   1577.  0.8866    78.6    99.8  90 Ag   1578.
  89 B2u  1579. -0.3697    13.7    99.9  76 B2u  1346.
                -0.4497    20.2          86 B2u  1523.
                 0.7839    61.5          89 B2u  1571.
  90 B3g  1594.  0.9773    95.5   100.5  88 B3g  1542.
  91 B3g  1633.  0.8963    80.3   100.2  91 B3g  1597.
                 0.4205    17.7          94 B3g  1639.
  92 B1u  1642.  0.8590    73.8   100.4  92 B1u  1612.
                 0.4487    20.1          93 B1u  1637.
  93 B3g  1673.  0.4244    18.0   100.6  91 B3g  1597.
                -0.8873    78.7          94 B3g  1639.
  94 B1u  1674.  0.4520    20.4   100.6  92 B1u  1612.
                -0.8809    77.6          93 B1u  1637.
  95 B1u  3154. -0.9276    86.0   100.0  95 B1u  3153.
                -0.3666    13.4          99 B1u  3156.
  96 B3g  3155.  0.9342    87.3   100.0  97 B3g  3155.
                -0.3538    12.5         100 B3g  3158.
  97 Ag   3156.  0.9745    95.0   100.0  96 Ag   3154.
  98 B1u  3156. -0.3582    12.8   100.0  95 B1u  3153.
                 0.8239    67.9          99 B1u  3156.
                 0.4359    19.0         101 B1u  3159.
  99 B2u  3157. -0.9813    96.3   100.0  98 B2u  3156.
 100 B3g  3158.  0.3557    12.7   100.0  97 B3g  3155.
                 0.9334    87.1         100 B3g  3158.
 101 Ag   3159.  0.8918    79.5   100.0 102 Ag   3159.
                 0.3958    15.7         104 Ag   3162.
 102 B1u  3160. -0.4301    18.5   100.0  99 B1u  3156.
                 0.8962    80.3         101 B1u  3159.
 103 B2u  3161.  0.9805    96.1   100.0 103 B2u  3162.
 104 Ag   3163. -0.3928    15.4   100.0 102 Ag   3159.
                 0.9167    84.0         104 Ag   3162.
 105 B3g  3175.  0.9979    99.6   100.0 105 B3g  3176.
 106 B1u  3175.  0.9978    99.6   100.0 106 B1u  3176.
 107 B2u  3188.  0.9984    99.7   100.0 107 B2u  3190.
 108 Ag   3188.  0.9984    99.7   100.0 108 Ag   3191.
 nber times 1st assigned=           1           0
 nber times 1st assigned=           2           0
 nber times 1st assigned=           3           0
 nber times 1st assigned=           4           0
 nber times 1st assigned=           5           0
 nber times 1st assigned=           6           0
 nber times 1st assigned=           7           0
 nber times 1st assigned=           8           0
 nber times 1st assigned=           9           0
 nber times 1st assigned=          10           0
 nber times 1st assigned=          11           0
 nber times 1st assigned=          12           0
 nber times 1st assigned=          13           0
 nber times 1st assigned=          14           0
 nber times 1st assigned=          15           0
 nber times 1st assigned=          16           0
 nber times 1st assigned=          17           0
 nber times 1st assigned=          18           0
 nber times 1st assigned=          19           0
 nber times 1st assigned=          20           0
 nber times 1st assigned=          21           0
 nber times 1st assigned=          22           0
 nber times 1st assigned=          23           0
 nber times 1st assigned=          24           0
 nber times 1st assigned=          25           0
 nber times 1st assigned=          26           0
 nber times 1st assigned=          27           0
 nber times 1st assigned=          28           0
 nber times 1st assigned=          29           0
 nber times 1st assigned=          30           0
 nber times 1st assigned=          31           0
 nber times 1st assigned=          32           0
 nber times 1st assigned=          33           0
 nber times 1st assigned=          34           0
 nber times 1st assigned=          35           0
 nber times 1st assigned=          36           0
 nber times 1st assigned=          37           0
 nber times 1st assigned=          38           0
 nber times 1st assigned=          39           0
 nber times 1st assigned=          40           0
 nber times 1st assigned=          41           0
 nber times 1st assigned=          42           0
 nber times 1st assigned=          43           0
 nber times 1st assigned=          44           0
 nber times 1st assigned=          45           0
 nber times 1st assigned=          46           0
 nber times 1st assigned=          47           0
 nber times 1st assigned=          48           0
 nber times 1st assigned=          49           0
 nber times 1st assigned=          50           0
 nber times 1st assigned=          51           0
 nber times 1st assigned=          52           0
 nber times 1st assigned=          53           0
 nber times 1st assigned=          54           0
 nber times 1st assigned=          55           0
 nber times 1st assigned=          56           0
 nber times 1st assigned=          57           0
 nber times 1st assigned=          58           0
 nber times 1st assigned=          59           0
 nber times 1st assigned=          60           0
 nber times 1st assigned=          61           0
 nber times 1st assigned=          62           0
 nber times 1st assigned=          63           0
 nber times 1st assigned=          64           0
 nber times 1st assigned=          65           0
 nber times 1st assigned=          66           0
 nber times 1st assigned=          67           0
 nber times 1st assigned=          68           0
 nber times 1st assigned=          69           0
 nber times 1st assigned=          70           0
 nber times 1st assigned=          71           0
 nber times 1st assigned=          72           0
 nber times 1st assigned=          73           0
 nber times 1st assigned=          74           0
 nber times 1st assigned=          75           0
 nber times 1st assigned=          76           0
 nber times 1st assigned=          77           0
 nber times 1st assigned=          78           0
 nber times 1st assigned=          79           0
 nber times 1st assigned=          80           0
 nber times 1st assigned=          81           0
 nber times 1st assigned=          82           0
 nber times 1st assigned=          83           0
 nber times 1st assigned=          84           0
 nber times 1st assigned=          85           0
 nber times 1st assigned=          86           0
 nber times 1st assigned=          87           0
 nber times 1st assigned=          88           0
 nber times 1st assigned=          89           0
 nber times 1st assigned=          90           0
 nber times 1st assigned=          91           0
 nber times 1st assigned=          92           0
 nber times 1st assigned=          93           0
 nber times 1st assigned=          94           0
 nber times 1st assigned=          95           0
 nber times 1st assigned=          96           0
 nber times 1st assigned=          97           0
 nber times 1st assigned=          98           0
 nber times 1st assigned=          99           0
 nber times 1st assigned=         100           0
 nber times 1st assigned=         101           0
 nber times 1st assigned=         102           0
 nber times 1st assigned=         103           0
 nber times 1st assigned=         104           0
 nber times 1st assigned=         105           0
 nber times 1st assigned=         106           0
 nber times 1st assigned=         107           0
 nber times 1st assigned=         108           0
 modes represented=   101.999967747953     
 p1=
    0.   -0.   -0.    0.   -0.    0.   -0.   -0.   -0.   -0.   -0.   -0.    0.    0.   10.    0.   -0.    0.    0.   -0.
   -0.    0.   -0.    0.   -0.    0.    0.    0.    0.    2.   -0.   -0.   -0.    0.   -0.    0.    0.    0.   -3.   -0.
    0.   -1.    0.   -0.    0.    0.    0.   -0.    0.   -0.   -0.   -0.    0.   -0.    0.   -0.    0.    0.    0.   -1.
   -0.   -0.    0.   -2.   -0.   -0.    4.    0.   -0.   -0.    0.   -0.    0.   -0.    1.    0.   -0.   -5.    0.    0.
    0.   -2.   -0.   -0.    1.   -0.   -3.   -2.    0.   -0.    0.   -0.   -0.   -0.   -0.    0.    0.    0.    0.    0.
   -0.   -0.   -0.   -0.   -0.    0.    0.   -0.
 p2=
    0.   -0.   -0.   -0.    0.   -0.    0.    0.    0.    0.    0.    0.   -0.   -0.  -10.   -0.    0.    0.   -0.   -0.
    0.   -0.   -0.    0.   -0.    0.   -0.   -0.   -0.    2.   -1.    0.    0.   -0.    0.   -0.    0.   -0.    0.   -0.
   -3.   -0.   -1.   -0.   -0.    0.    0.   -0.    0.    0.    0.    0.    0.    0.   -0.    0.    0.    0.   -0.    1.
    0.    0.   -0.    3.   -0.   -0.   -0.   -4.   -0.    0.    0.   -0.    0.    1.    0.   -0.   -0.   -3.   -0.    5.
   -0.    0.    0.    0.   -1.    0.   -3.   -0.   -0.    1.   -0.   -0.    0.   -0.    0.    0.   -0.    0.    0.    0.
   -0.    0.   -0.    0.   -0.   -0.    0.    0.

 Displacement: in terms of nc of 1 THEN of nc of 2

   1 B1u freq=    -0. Q=  0.000 lam=    -0.0 B3g freq=    -0. Q=  0.000 lam=    -0.0
   2 B2u freq=    -0. Q= -0.000 lam=    -0.0 B1g freq=    -0. Q= -0.000 lam=    -0.0
   3 B3g freq=    -0. Q= -0.000 lam=    -0.0 B2u freq=    -0. Q= -0.000 lam=    -0.0
   4 B1g freq=    -0. Q=  0.000 lam=    -0.0 B3u freq=     0. Q=  0.000 lam=     0.0
   5 B3u freq=     0. Q= -0.000 lam=     0.0 B1u freq=     0. Q= -0.000 lam=     0.0
   6 B2g freq=     0. Q=  0.000 lam=     0.0 B2g freq=     0. Q=  0.000 lam=     0.0
   7 B3u freq=    36. Q= -0.000 lam=     0.0 B3u freq=    36. Q= -0.000 lam=     0.0
   8 Au  freq=    71. Q= -0.000 lam=     0.0 Au  freq=    67. Q= -0.000 lam=     0.0
   9 B1g freq=   101. Q= -0.000 lam=     0.0 B1g freq=    99. Q= -0.000 lam=     0.0
  10 B1u freq=   119. Q= -0.000 lam=     0.0 B1u freq=   118. Q= -0.000 lam=     0.0
  11 B2g freq=   149. Q= -0.000 lam=     0.0 B2g freq=   147. Q= -0.000 lam=     0.0
  12 B3u freq=   192. Q= -0.000 lam=     0.0 B3u freq=   187. Q= -0.000 lam=     0.0
  13 B3g freq=   238. Q=  0.000 lam=     0.0 B3g freq=   238. Q=  0.000 lam=     0.0
  14 Au  freq=   240. Q=  0.000 lam=     0.0 Au  freq=   239. Q=  0.000 lam=     0.0
  15 Ag  freq=   264. Q=  0.671 lam=    59.3 Ag  freq=   262. Q=  0.682 lam=    60.9
  16 B1g freq=   293. Q=  0.000 lam=     0.0 B1g freq=   301. Q=  0.000 lam=     0.0
  17 B2g freq=   349. Q= -0.000 lam=     0.0 B2g freq=   332. Q= -0.000 lam=     0.0
  18 B1u freq=   362. Q=  0.000 lam=     0.0 B3u freq=   358. Q=  0.000 lam=     0.0
  19 B3u freq=   379. Q=  0.000 lam=     0.0 B1u freq=   362. Q=  0.000 lam=     0.0
  20 B3g freq=   454. Q= -0.000 lam=     0.0 B3u freq=   426. Q= -0.000 lam=     0.0
  21 B3u freq=   469. Q= -0.000 lam=     0.0 B1g freq=   442. Q= -0.000 lam=     0.0
  22 B1g freq=   471. Q=  0.000 lam=     0.0 B3g freq=   451. Q=  0.000 lam=     0.0
  23 B3u freq=   477. Q= -0.000 lam=     0.0 B1g freq=   461. Q= -0.000 lam=     0.0
  24 B1g freq=   478. Q=  0.000 lam=     0.0 B3u freq=   469. Q=  0.000 lam=     0.0
  25 B2u freq=   491. Q= -0.000 lam=     0.0 B2u freq=   485. Q= -0.000 lam=     0.0
  26 B3g freq=   513. Q=  0.000 lam=     0.0 B3g freq=   509. Q=  0.000 lam=     0.0
  27 Au  freq=   526. Q=  0.000 lam=     0.0 Au  freq=   538. Q=  0.000 lam=     0.0
  28 B2g freq=   554. Q=  0.000 lam=     0.0 B2g freq=   548. Q=  0.000 lam=     0.0
  29 B1u freq=   579. Q=  0.000 lam=     0.0 B1u freq=   586. Q=  0.000 lam=     0.0
  30 Ag  freq=   616. Q=  0.223 lam=    15.4 Ag  freq=   612. Q=  0.199 lam=    12.1
  31 B2u freq=   639. Q= -0.000 lam=     0.0 Ag  freq=   627. Q= -0.104 lam=     3.4
  32 Ag  freq=   647. Q= -0.049 lam=     0.8 B2u freq=   631. Q= -0.000 lam=     0.0
  33 Au  freq=   716. Q= -0.000 lam=     0.0 Au  freq=   683. Q= -0.000 lam=     0.0
  34 B3g freq=   725. Q=  0.000 lam=     0.0 B2g freq=   690. Q=  0.000 lam=     0.0
  35 B2u freq=   744. Q= -0.000 lam=     0.0 B3g freq=   728. Q= -0.000 lam=     0.0
  36 B3u freq=   746. Q=  0.000 lam=     0.0 B2g freq=   740. Q=  0.000 lam=     0.0
  37 B1g freq=   752. Q=  0.000 lam=     0.0 B3u freq=   743. Q=  0.000 lam=     0.0
  38 B2g freq=   752. Q=  0.000 lam=     0.0 B1g freq=   744. Q=  0.000 lam=     0.0
  39 Ag  freq=   762. Q= -0.335 lam=    42.7 Au  freq=   745. Q= -0.000 lam=     0.0
  40 Au  freq=   771. Q= -0.000 lam=     0.0 B2u freq=   751. Q= -0.000 lam=     0.0
  41 B2g freq=   774. Q=  0.000 lam=     0.0 Ag  freq=   755. Q=  0.321 lam=    38.8
  42 Ag  freq=   795. Q= -0.130 lam=     6.8 B2g freq=   802. Q= -0.000 lam=     0.0
  43 B1u freq=   837. Q=  0.000 lam=     0.0 Ag  freq=   803. Q=  0.109 lam=     4.8
  44 B3u freq=   840. Q= -0.000 lam=     0.0 B3u freq=   828. Q= -0.000 lam=     0.0
  45 B2g freq=   840. Q=  0.000 lam=     0.0 Au  freq=   832. Q=  0.000 lam=     0.0
  46 Au  freq=   847. Q=  0.000 lam=     0.0 B1u freq=   841. Q=  0.000 lam=     0.0
  47 B2g freq=   874. Q=  0.000 lam=     0.0 B2g freq=   858. Q=  0.000 lam=     0.0
  48 B1g freq=   887. Q= -0.000 lam=     0.0 B1g freq=   865. Q= -0.000 lam=     0.0
  49 B2u freq=   889. Q=  0.000 lam=     0.0 Au  freq=   880. Q=  0.000 lam=     0.0
  50 Au  freq=   900. Q= -0.000 lam=     0.0 B3u freq=   889. Q= -0.000 lam=     0.0
  51 B2g freq=   915. Q= -0.000 lam=     0.0 B2g freq=   889. Q= -0.000 lam=     0.0
  52 B3u freq=   921. Q= -0.000 lam=     0.0 B2u freq=   896. Q= -0.000 lam=     0.0
  53 B1u freq=   922. Q=  0.000 lam=     0.0 B1u freq=   916. Q=  0.000 lam=     0.0
  54 B3g freq=   936. Q= -0.000 lam=     0.0 B3g freq=   932. Q= -0.000 lam=     0.0
  55 B1g freq=   973. Q=  0.000 lam=     0.0 B1g freq=   941. Q=  0.000 lam=     0.0
  56 B3u freq=   973. Q= -0.000 lam=     0.0 B3u freq=   941. Q= -0.000 lam=     0.0
  57 Au  freq=   995. Q=  0.000 lam=     0.0 Au  freq=   974. Q=  0.000 lam=     0.0
  58 B2g freq=   995. Q=  0.000 lam=     0.0 B2g freq=   974. Q=  0.000 lam=     0.0
  59 B2u freq=  1016. Q=  0.000 lam=     0.0 B2u freq=  1047. Q=  0.000 lam=     0.0
  60 Ag  freq=  1019. Q= -0.168 lam=    14.4 Ag  freq=  1047. Q= -0.066 lam=     2.3
  61 B2u freq=  1134. Q= -0.000 lam=     0.0 B1u freq=  1130. Q= -0.000 lam=     0.0
  62 B1u freq=  1144. Q= -0.000 lam=     0.0 B3g freq=  1141. Q= -0.000 lam=     0.0
  63 B3g freq=  1158. Q=  0.000 lam=     0.0 B2u freq=  1175. Q=  0.000 lam=     0.0
  64 Ag  freq=  1185. Q= -0.331 lam=    64.7 Ag  freq=  1182. Q= -0.395 lam=    92.1
  65 B2u freq=  1188. Q= -0.000 lam=     0.0 B2u freq=  1198. Q= -0.000 lam=     0.0
  66 B3g freq=  1200. Q= -0.000 lam=     0.0 B3g freq=  1205. Q= -0.000 lam=     0.0
  67 Ag  freq=  1207. Q=  0.560 lam=   189.2 B1u freq=  1212. Q=  0.000 lam=     0.0
  68 B1u freq=  1210. Q=  0.000 lam=     0.0 Ag  freq=  1218. Q=  0.510 lam=   158.3
  69 B3g freq=  1242. Q= -0.000 lam=     0.0 B2u freq=  1256. Q= -0.000 lam=     0.0
  70 B2u freq=  1251. Q= -0.000 lam=     0.0 B3g freq=  1259. Q= -0.000 lam=     0.0
  71 B1u freq=  1294. Q=  0.000 lam=     0.0 B1u freq=  1289. Q=  0.000 lam=     0.0
  72 B3g freq=  1295. Q= -0.000 lam=     0.0 B3g freq=  1291. Q= -0.000 lam=     0.0
  73 B3g freq=  1312. Q=  0.000 lam=     0.0 B3g freq=  1301. Q=  0.000 lam=     0.0
  74 B1u freq=  1319. Q= -0.000 lam=     0.0 Ag  freq=  1313. Q= -0.175 lam=    20.2
  75 Ag  freq=  1334. Q=  0.100 lam=     6.6 B1u freq=  1315. Q=  0.000 lam=     0.0
  76 B2u freq=  1359. Q=  0.000 lam=     0.0 B2u freq=  1346. Q=  0.000 lam=     0.0
  77 B1u freq=  1376. Q= -0.000 lam=     0.0 B1u freq=  1353. Q= -0.000 lam=     0.0
  78 Ag  freq=  1410. Q= -0.734 lam=   380.0 Ag  freq=  1383. Q= -0.465 lam=   149.5
  79 B2u freq=  1416. Q=  0.000 lam=     0.0 B2u freq=  1417. Q=  0.000 lam=     0.0
  80 B3g freq=  1419. Q=  0.000 lam=     0.0 Ag  freq=  1426. Q=  0.750 lam=   401.1
  81 B2u freq=  1427. Q=  0.000 lam=     0.0 B3g freq=  1428. Q=  0.000 lam=     0.0
  82 Ag  freq=  1434. Q= -0.378 lam=   102.4 B2u freq=  1434. Q= -0.000 lam=     0.0
  83 B2u freq=  1478. Q= -0.000 lam=     0.0 B2u freq=  1471. Q= -0.000 lam=     0.0
  84 B1u freq=  1478. Q= -0.000 lam=     0.0 B1u freq=  1475. Q= -0.000 lam=     0.0
  85 Ag  freq=  1493. Q=  0.140 lam=    14.7 Ag  freq=  1507. Q=  0.135 lam=    13.8
  86 B2u freq=  1542. Q= -0.000 lam=     0.0 B2u freq=  1523. Q= -0.000 lam=     0.0
  87 Ag  freq=  1557. Q= -0.534 lam=   222.2 Ag  freq=  1534. Q= -0.498 lam=   190.5
  88 Ag  freq=  1577. Q= -0.283 lam=    63.1 B3g freq=  1542. Q= -0.000 lam=     0.0
  89 B2u freq=  1579. Q=  0.000 lam=     0.0 B2u freq=  1571. Q=  0.000 lam=     0.0
  90 B3g freq=  1594. Q= -0.000 lam=     0.0 Ag  freq=  1578. Q= -0.185 lam=    26.9
  91 B3g freq=  1633. Q=  0.000 lam=     0.0 B3g freq=  1597. Q=  0.000 lam=     0.0
  92 B1u freq=  1642. Q= -0.000 lam=     0.0 B1u freq=  1612. Q= -0.000 lam=     0.0
  93 B3g freq=  1673. Q= -0.000 lam=     0.0 B1u freq=  1637. Q= -0.000 lam=     0.0
  94 B1u freq=  1674. Q= -0.000 lam=     0.0 B3g freq=  1639. Q= -0.000 lam=     0.0
  95 B1u freq=  3154. Q= -0.000 lam=     0.0 B1u freq=  3153. Q= -0.000 lam=     0.0
  96 B3g freq=  3155. Q=  0.000 lam=     0.0 Ag  freq=  3154. Q=  0.000 lam=     0.0
  97 Ag  freq=  3156. Q=  0.002 lam=     0.0 B3g freq=  3155. Q=  0.000 lam=     0.0
  98 B1u freq=  3156. Q=  0.000 lam=     0.0 B2u freq=  3156. Q=  0.000 lam=     0.0
  99 B2u freq=  3157. Q=  0.000 lam=     0.0 B1u freq=  3156. Q=  0.000 lam=     0.0
 100 B3g freq=  3158. Q=  0.000 lam=     0.0 B3g freq=  3158. Q=  0.000 lam=     0.0
 101 Ag  freq=  3159. Q= -0.000 lam=     0.0 B1u freq=  3159. Q= -0.000 lam=     0.0
 102 B1u freq=  3160. Q= -0.000 lam=     0.0 Ag  freq=  3159. Q= -0.003 lam=     0.0
 103 B2u freq=  3161. Q= -0.000 lam=     0.0 B2u freq=  3162. Q= -0.000 lam=     0.0
 104 Ag  freq=  3163. Q= -0.001 lam=     0.0 Ag  freq=  3162. Q= -0.003 lam=     0.0
 105 B3g freq=  3175. Q= -0.000 lam=     0.0 B3g freq=  3176. Q= -0.000 lam=     0.0
 106 B1u freq=  3175. Q=  0.000 lam=     0.0 B1u freq=  3176. Q=  0.000 lam=     0.0
 107 B2u freq=  3188. Q=  0.000 lam=     0.0 B2u freq=  3190. Q=  0.000 lam=     0.0
 108 Ag  freq=  3188. Q= -0.011 lam=     0.2 Ag  freq=  3191. Q= -0.005 lam=     0.0

 total reorg energy (cm**-1, kcal/mol)=     1182.     1175.      3.38      3.36
 Nber of molecules processed=           2
