 Enter ifcurve (0=recti, 1=orth curvi, 2=apprx curvi, -1 = skip
 And atom ordering flag, 0= never changes, 1= use the first order thenceforth,
  2= deduce it (does read on fail), 3= always read it
 Reading file: 
 ./Common_Moeties_16_C0S0.log                                                   
                                          
  Entering Gaussian System, Link 0=g16                                          
  
 Gaussian format, type: g94, g98, g03= F F F
  #P Geom=AllCheck Guess=TCheck SCRF=Check GenChk RB3LYP/6-311G(d,p) Fre    
 energy type= B3LYP   
 Original G94 input coords:
  6 -0.264569  1.017569  0.000000
  6 -0.129782 -0.365333  0.000000
  6  1.238788 -0.781637  0.000000
  6  2.087326  0.279781  0.000000
 16  1.259351  1.831965  0.000000
  7 -1.309619 -1.073470  0.000000
  6 -2.316703 -0.266269  0.000000
 16 -1.933826  1.468516  0.000000
  1  1.556671 -1.814659  0.000000
  1  3.166197  0.277688  0.000000
  1 -3.353835 -0.574151  0.000000
 nber atoms=          11
 Original standard coords:
  6  0.000000 -0.431340  0.000000
  6 -0.051190  0.957172  0.000000
  6  1.249489  1.552596  0.000000
  6  2.232233  0.614067  0.000000
 16  1.619067 -1.034825  0.000000
  7 -1.315062  1.501324  0.000000
  6 -2.205267  0.566805  0.000000
 16 -1.594040 -1.101271  0.000000
  1  1.426501  2.618828  0.000000
  1  3.301151  0.760288  0.000000
  1 -3.274236  0.733357  0.000000
  SCF Done:  E(RB3LYP) =  -1043.55189671     A.U. after    1 cycles             
  
          23          40 "  -1043.55189671"
After scan for Atom:   Atom  AN      X      Y      Z        X      Y      Z        X      Y      Z   
After scan for Atom:   Atom  AN      X      Y      Z        X      Y      Z        X      Y      Z   
After scan for Atom:   Atom  AN      X      Y      Z        X      Y      Z        X      Y      Z   
After scan for Atom:   Atom  AN      X      Y      Z        X      Y      Z        X      Y      Z   
After scan for Atom:   Atom  AN      X      Y      Z        X      Y      Z        X      Y      Z   
After scan for Atom:   Atom  AN      X      Y      Z        X      Y      Z        X      Y      Z   
After scan for Atom:   Atom  AN      X      Y      Z        X      Y      Z        X      Y      Z   
After scan for Atom:   Atom  AN      X      Y      Z        X      Y      Z        X      Y      Z   
After scan for Atom:   Atom  AN      X      Y      Z        X      Y      Z        X      Y      Z   
 g94    frequencies=
     0.0    0.0    0.0    0.0    0.0    0.0  194.8  214.4  333.6  466.6
   494.5  524.5  565.5  642.0  662.4  681.3  739.5  782.5  790.2  845.0
   890.8 1025.6 1101.0 1118.4 1240.7 1298.5 1385.0 1459.9 1487.7 1547.9
  3213.8 3218.1 3247.6
 g94    symmetries=
                                                A"     A"     A'     A"
      A'     A"     A'     A'     A"     A'     A"     A'     A"     A'
      A"     A'     A'     A'     A'     A'     A'     A'     A'     A'
      A'     A'     A'
 atomic masses:
 12.0000 12.0000 12.0000 12.0000 31.9721 14.0031 12.0000 31.9721  1.0078  1.0078
  1.0078
 looking for force constants in 
 ./Common_Moeties_16_C0S0.fchk                                                  
  
 Cartesian Force Constants                  R   N=         561                  
  
 n3=          33         561
 g94-fc frequencies=
    -4.3   -0.0   -0.0    0.0    3.1    6.9  194.8  214.4  333.6  466.6
   494.5  524.5  565.5  642.0  662.4  681.3  739.5  782.5  790.2  845.0
   890.8 1025.6 1101.0 1118.4 1240.8 1298.5 1385.0 1460.0 1487.7 1547.9
  3213.8 3218.1 3247.7
 at 99999: n3=          33
 symm operator            1 :  F  nop=           0
 symm operator            2 :  F  nop=           0
 symm operator            3 :  F  nop=           0
 symm operator            4 :  F  nop=           0
 symm operator            5 :  T  nop=           1
 symm operator            6 :  F  nop=           1
 symm operator            7 :  F  nop=           1
 The point group of the molecule is  CS
 enforcing symm op           5  jsymt=           1           1          -1
 cartesian coord symmetries:
 A' :   22 A" :   11
 Symmetry rotation matrix:
   1.00000   0.00000   0.00000
   0.00000   1.00000   0.00000
   0.00000   0.00000   1.00000

 Projecting out zero-frequency components
 generating redundant internal coords
         300        3600          11
 search for int coords
   1 str   2   1   1.389
   2 str   3   2   1.430
   3 str   4   3   1.359
   4 str   5   1   1.728
   5 str   5   4   1.759
   6 str   6   2   1.376
   7 str   7   6   1.291
   8 str   8   1   1.729
   9 str   8   7   1.777
  10 str   9   3   1.081
  11 str  10   4   1.079
  12 str  11   7   1.082
 nber stretches=          12
  13 ben   1   2   3
  14 prop tor   1   2   3   4
  15 prop tor   1   2   3   9
  16 ben   1   2   6
  17 prop tor   1   2   6   7
  18 ben   1   5   4
  19 ben   1   8   7
  20 ben   2   1   5
  21 prop tor   2   1   5   4
  22 ben   2   1   8
  23 prop tor   2   1   8   7
  24 ben   2   3   4
  25 prop tor   2   3   4   5
  26 prop tor   2   3   4  10
  27 ben   2   3   9
  28 ben   2   6   7
  29 prop tor   2   6   7   8
  30 prop tor   2   6   7  11
  31 ben   3   2   6
  32 prop tor   3   2   6   7
  33 ben   3   4   5
  34 prop tor   3   4   5   1
  35 ben   3   4  10
  36 ben   4   3   9
  37 prop tor   5   1   2   3
  38 prop tor   5   1   2   6
  39 ben   5   1   8
  40 prop tor   5   1   8   7
  41 ben   5   4  10
  42 prop tor   6   2   3   4
  43 prop tor   6   2   3   9
  44 ben   6   7   8
  45 prop tor   6   7   8   1
  46 ben   6   7  11
  47 prop tor   8   1   2   3
  48 prop tor   8   1   2   6
  49 prop tor   8   1   5   4
  50 ben   8   7  11
  51 prop tor   9   3   4   5
  52 prop tor   9   3   4  10
  53 prop tor  10   4   5   1
  54 prop tor  11   7   8   1
 nber bend=              18
 nber lin bend=           0
 nber prop tor=          24
 nber impr tor=           0
 nber tot redund int=          54
 Eigenvalues of G in red int coords
    Gval -0.00000000 -0.00000000 -0.00000000 -0.00000000 -0.00000000 -0.00000000 -0.00000000 -0.00000000
    Gval -0.00000000 -0.00000000 -0.00000000 -0.00000000 -0.00000000 -0.00000000 -0.00000000  0.00000000
    Gval  0.00000000  0.00000000  0.00000000  0.00000000  0.00000000  0.00000000  0.00000000  0.00000000
    Gval  0.00000000  0.00000000  0.00000000  0.00001693  0.00002937  0.00003143  0.00004224  0.00005470
    Gval  0.00008309  0.00009288  0.00009324  0.00012492  0.00015991  0.00018936  0.00021082  0.00021912
    Gval  0.00035956  0.00036923  0.00046457  0.00049245  0.00059673  0.00060629  0.00062381  0.00108049
    Gval  0.00111306  0.00118812  0.00120986  0.00152840  0.00210915  0.00398570
  1.692723578511614E-005  1.692723578511614E-005
  2.936890345876302E-005  1.692723578511614E-005
  3.143027102193118E-005  1.692723578511614E-005
  4.223502201361238E-005  1.692723578511614E-005
  5.469638057232332E-005  1.692723578511614E-005
  8.308744669727787E-005  1.692723578511614E-005
  9.287939819558209E-005  1.692723578511614E-005
  9.324282041051518E-005  1.692723578511614E-005
  1.249185035259940E-004  1.692723578511614E-005
  1.599101796701645E-004  1.692723578511614E-005
  1.893562247769068E-004  1.692723578511614E-005
  2.108218696463968E-004  1.692723578511614E-005
  2.191240618418533E-004  1.692723578511614E-005
  3.595617820190855E-004  1.692723578511614E-005
  3.692288898371518E-004  1.692723578511614E-005
  4.645703600860310E-004  1.692723578511614E-005
  4.924492053319257E-004  1.692723578511614E-005
  5.967291202452064E-004  1.692723578511614E-005
  6.062902770862839E-004  1.692723578511614E-005
  6.238132339531121E-004  1.692723578511614E-005
  1.080489484009329E-003  1.692723578511614E-005
  1.113057787144615E-003  1.692723578511614E-005
  1.188120804695394E-003  1.692723578511614E-005
  1.209856086304006E-003  1.692723578511614E-005
  1.528402810762791E-003  1.692723578511614E-005
  2.109152208512052E-003  1.692723578511614E-005
  3.985703149189154E-003  1.692723578511614E-005
 cut=1d-8, nber non-redundant internal coords=          27
 Check on Eigenvals of non-red overlap matrix:
  0.00001693  0.00002937  0.00003143  0.00004224  0.00005470  0.00008309  0.00009288  0.00009324
  0.00012492  0.00015991  0.00018936  0.00021082  0.00021912  0.00035956  0.00036923  0.00046457
  0.00049245  0.00059673  0.00060629  0.00062381  0.00108049  0.00111306  0.00118812  0.00120986
  0.00152840  0.00210915  0.00398570
 Checking for correct frequencies
 recalc frequencies=
    -0.0   -0.0    0.0    0.0    0.0    0.0  194.8  214.4  333.6  466.6
   494.5  524.5  565.5  642.0  662.4  681.3  739.5  782.5  790.2  845.0
   890.8 1025.6 1101.0 1118.4 1240.8 1298.5 1385.0 1460.0 1487.7 1547.9
  3213.8 3218.1 3247.7
 recalc symmetries=
     A"     A'     A'     A"     A"     A'     A"     A"     A'     A" 
     A'     A"     A'     A'     A"     A'     A"     A'     A"     A' 
     A"     A'     A'     A'     A'     A'     A'     A'     A'     A' 
     A'     A'     A' 
 recalc freqs check OK
 Zero-point lengths:
 10.0000 10.0000 10.0000 10.0000 10.0000 10.0000 17.7625 16.9292 13.5725 11.4770
 11.1481 10.8252 10.4249  9.7844  9.6326  9.4977  9.1163  8.8622  8.8191  8.5284
  8.3063  7.7411  7.4712  7.4130  7.0380  6.8798  6.6615  6.4882  6.4274  6.3012
  4.3731  4.3701  4.3502
 highest evec of mol 1
 -0.0035 -0.0005  0.0000
 -0.0069 -0.0038  0.0000
  0.0020  0.1049  0.0000
  0.2815  0.0218  0.0000
 -0.0002 -0.0019  0.0000
  0.0011  0.0005  0.0000
 -0.0002 -0.0008  0.0000
 -0.0001  0.0003  0.0000
 -0.0468 -0.2941  0.0000
 -0.8980 -0.1187  0.0000
  0.0007  0.0002  0.0000
 generating redundant internal coords
         300        3600          11
 Adding extra bonds for z output only
           6           6           6           6          16           7
           6          16           1           1           1
 search for int coords
   1 str   2   1   1.389
   2 str   3   2   1.430
   3 str   4   3   1.359
   4 str   5   1   1.728
   5 str   5   4   1.759
   6 str   6   2   1.376
   7 str   7   6   1.291
   8 str   8   1   1.729
   9 str   8   7   1.777
  10 str   9   3   1.081
  11 str  10   4   1.079
  12 str  11   7   1.082
 nber stretches=          12
  13 ben   1   2   3
  14 prop tor   1   2   3   4
  15 prop tor   1   2   3   9
  16 ben   1   2   6
  17 prop tor   1   2   6   7
  18 ben   1   5   4
  19 ben   1   8   7
  20 ben   2   1   5
  21 prop tor   2   1   5   4
  22 ben   2   1   8
  23 prop tor   2   1   8   7
  24 ben   2   3   4
  25 prop tor   2   3   4   5
  26 prop tor   2   3   4  10
  27 ben   2   3   9
  28 ben   2   6   7
  29 prop tor   2   6   7   8
  30 prop tor   2   6   7  11
  31 ben   3   2   6
  32 prop tor   3   2   6   7
  33 ben   3   4   5
  34 prop tor   3   4   5   1
  35 ben   3   4  10
  36 ben   4   3   9
  37 prop tor   5   1   2   3
  38 prop tor   5   1   2   6
  39 ben   5   1   8
  40 prop tor   5   1   8   7
  41 ben   5   4  10
  42 prop tor   6   2   3   4
  43 prop tor   6   2   3   9
  44 ben   6   7   8
  45 prop tor   6   7   8   1
  46 ben   6   7  11
  47 prop tor   8   1   2   3
  48 prop tor   8   1   2   6
  49 prop tor   8   1   5   4
  50 ben   8   7  11
  51 prop tor   9   3   4   5
  52 prop tor   9   3   4  10
  53 prop tor  10   4   5   1
  54 prop tor  11   7   8   1
 nber bend=              18
 nber lin bend=           0
 nber prop tor=          24
 nber impr tor=           0
 nber tot redund int=          54
 Reading file: 
 ./Common_Moeties_16_C1S0.log                                                   
                                          
  Entering Gaussian System, Link 0=g16                                          
  
 Gaussian format, type: g94, g98, g03= F F F
  #P Geom=AllCheck Guess=TCheck SCRF=Check GenChk UB3LYP/6-311G(d,p) Fre    
 energy type= B3LYP   
 Original G94 input coords:
  6 -0.264174  1.041376  0.000000
  6 -0.120584 -0.399598  0.000000
  6  1.205935 -0.801092  0.000000
  6  2.060585  0.305744  0.000000
 16  1.263069  1.860142  0.000000
  7 -1.306255 -1.093458  0.000000
  6 -2.300863 -0.301723  0.000000
 16 -1.879510  1.511142  0.000000
  1  1.547138 -1.826831  0.000000
  1  3.142952  0.284482  0.000000
  1 -3.348294 -0.580184  0.000000
 nber atoms=          11
 Original standard coords:
  6  0.000000 -0.446028  0.000000
  6 -0.075264  1.000126  0.000000
  6  1.175576  1.596992  0.000000
  6  2.187305  0.631634  0.000000
 16  1.633213 -1.025220  0.000000
  7 -1.351979  1.507328  0.000000
  6 -2.215876  0.574713  0.000000
 16 -1.526065 -1.153922  0.000000
  1  1.358260  2.662444  0.000000
  1  3.254100  0.815809  0.000000
  1 -3.293314  0.692102  0.000000
  SCF Done:  E(UB3LYP) =  -1043.24700351     A.U. after    1 cycles             
  
          23          40 "  -1043.24700351"
After scan for Atom:   Atom  AN      X      Y      Z        X      Y      Z        X      Y      Z   
After scan for Atom:   Atom  AN      X      Y      Z        X      Y      Z        X      Y      Z   
After scan for Atom:   Atom  AN      X      Y      Z        X      Y      Z        X      Y      Z   
After scan for Atom:   Atom  AN      X      Y      Z        X      Y      Z        X      Y      Z   
After scan for Atom:   Atom  AN      X      Y      Z        X      Y      Z        X      Y      Z   
After scan for Atom:   Atom  AN      X      Y      Z        X      Y      Z        X      Y      Z   
After scan for Atom:   Atom  AN      X      Y      Z        X      Y      Z        X      Y      Z   
After scan for Atom:   Atom  AN      X      Y      Z        X      Y      Z        X      Y      Z   
After scan for Atom:   Atom  AN      X      Y      Z        X      Y      Z        X      Y      Z   
 g94    frequencies=
     0.0    0.0    0.0    0.0    0.0    0.0  172.5  228.0  340.6  426.3
   456.0  472.9  516.3  562.8  634.7  679.0  734.4  771.7  815.6  828.4
   912.0  982.7 1056.4 1140.1 1210.3 1287.8 1295.9 1331.9 1526.3 1578.8
  3216.0 3221.9 3237.3
 g94    symmetries=
                                                A"     A"     A'     A"
      A'     A"     A'     A'     A'     A"     A'     A"     A'     A"
      A"     A'     A'     A'     A'     A'     A'     A'     A'     A'
      A'     A'     A'
 atomic masses:
 12.0000 12.0000 12.0000 12.0000 31.9721 14.0031 12.0000 31.9721  1.0078  1.0078
  1.0078
 looking for force constants in 
 ./Common_Moeties_16_C1S0.fchk                                                  
  
 Cartesian Force Constants                  R   N=         561                  
  
 n3=          33         561
 g94-fc frequencies=
    -4.9   -1.3   -0.0    0.0    0.0    5.7  172.5  228.0  340.6  426.3
   456.0  472.9  516.3  562.8  634.7  679.0  734.5  771.7  815.6  828.4
   912.1  982.8 1056.4 1140.1 1210.3 1287.8 1295.9 1331.9 1526.3 1578.8
  3216.1 3221.9 3237.4
 at 99999: n3=          33
 symm operator            1 :  F  nop=           0
 symm operator            2 :  F  nop=           0
 symm operator            3 :  F  nop=           0
 symm operator            4 :  F  nop=           0
 symm operator            5 :  T  nop=           1
 symm operator            6 :  F  nop=           1
 symm operator            7 :  F  nop=           1
 The point group of the molecule is  CS
 enforcing symm op           5  jsymt=           1           1          -1
 cartesian coord symmetries:
 A' :   22 A" :   11
 Symmetry rotation matrix:
   1.00000   0.00000   0.00000
   0.00000   1.00000   0.00000
   0.00000   0.00000   1.00000

 Projecting out zero-frequency components
 generating redundant internal coords
         300        3600          11
 search for int coords
   1 str   2   1   1.448
   2 str   3   2   1.386
   3 str   4   3   1.398
   4 str   5   1   1.733
   5 str   5   4   1.747
   6 str   6   2   1.374
   7 str   7   6   1.271
   8 str   8   1   1.682
   9 str   8   7   1.861
  10 str   9   3   1.081
  11 str  10   4   1.083
  12 str  11   7   1.084
 nber stretches=          12
  13 ben   1   2   3
  14 prop tor   1   2   3   4
  15 prop tor   1   2   3   9
  16 ben   1   2   6
  17 prop tor   1   2   6   7
  18 ben   1   5   4
  19 ben   1   8   7
  20 ben   2   1   5
  21 prop tor   2   1   5   4
  22 ben   2   1   8
  23 prop tor   2   1   8   7
  24 ben   2   3   4
  25 prop tor   2   3   4   5
  26 prop tor   2   3   4  10
  27 ben   2   3   9
  28 ben   2   6   7
  29 prop tor   2   6   7   8
  30 prop tor   2   6   7  11
  31 ben   3   2   6
  32 prop tor   3   2   6   7
  33 ben   3   4   5
  34 prop tor   3   4   5   1
  35 ben   3   4  10
  36 ben   4   3   9
  37 prop tor   5   1   2   3
  38 prop tor   5   1   2   6
  39 ben   5   1   8
  40 prop tor   5   1   8   7
  41 ben   5   4  10
  42 prop tor   6   2   3   4
  43 prop tor   6   2   3   9
  44 ben   6   7   8
  45 prop tor   6   7   8   1
  46 ben   6   7  11
  47 prop tor   8   1   2   3
  48 prop tor   8   1   2   6
  49 prop tor   8   1   5   4
  50 ben   8   7  11
  51 prop tor   9   3   4   5
  52 prop tor   9   3   4  10
  53 prop tor  10   4   5   1
  54 prop tor  11   7   8   1
 nber bend=              18
 nber lin bend=           0
 nber prop tor=          24
 nber impr tor=           0
 nber tot redund int=          54
 Eigenvalues of G in red int coords
    Gval -0.00000000 -0.00000000 -0.00000000 -0.00000000 -0.00000000 -0.00000000 -0.00000000 -0.00000000
    Gval -0.00000000 -0.00000000 -0.00000000 -0.00000000 -0.00000000 -0.00000000  0.00000000  0.00000000
    Gval  0.00000000  0.00000000  0.00000000  0.00000000  0.00000000  0.00000000  0.00000000  0.00000000
    Gval  0.00000000  0.00000000  0.00000000  0.00001695  0.00002904  0.00003131  0.00004214  0.00005500
    Gval  0.00008333  0.00009297  0.00009312  0.00012497  0.00015811  0.00019219  0.00020912  0.00021700
    Gval  0.00035348  0.00036560  0.00047004  0.00049190  0.00059666  0.00060570  0.00062438  0.00107847
    Gval  0.00111140  0.00117922  0.00119227  0.00154626  0.00208548  0.00394199
  1.695366476966788E-005  1.695366476966788E-005
  2.904402943129476E-005  1.695366476966788E-005
  3.130684747051788E-005  1.695366476966788E-005
  4.214414782418908E-005  1.695366476966788E-005
  5.500048402769703E-005  1.695366476966788E-005
  8.332705543991382E-005  1.695366476966788E-005
  9.296657034418348E-005  1.695366476966788E-005
  9.311986559065880E-005  1.695366476966788E-005
  1.249695522222916E-004  1.695366476966788E-005
  1.581110313184900E-004  1.695366476966788E-005
  1.921910239916906E-004  1.695366476966788E-005
  2.091163040478563E-004  1.695366476966788E-005
  2.170009751666481E-004  1.695366476966788E-005
  3.534754517306551E-004  1.695366476966788E-005
  3.656043182018320E-004  1.695366476966788E-005
  4.700354966508546E-004  1.695366476966788E-005
  4.918983851180057E-004  1.695366476966788E-005
  5.966594484402557E-004  1.695366476966788E-005
  6.056952678480342E-004  1.695366476966788E-005
  6.243780643909812E-004  1.695366476966788E-005
  1.078465108294378E-003  1.695366476966788E-005
  1.111400172534701E-003  1.695366476966788E-005
  1.179224500478913E-003  1.695366476966788E-005
  1.192267836400621E-003  1.695366476966788E-005
  1.546263964549945E-003  1.695366476966788E-005
  2.085481009162681E-003  1.695366476966788E-005
  3.941994043308037E-003  1.695366476966788E-005
 cut=1d-8, nber non-redundant internal coords=          27
 Check on Eigenvals of non-red overlap matrix:
  0.00001695  0.00002904  0.00003131  0.00004214  0.00005500  0.00008333  0.00009297  0.00009312
  0.00012497  0.00015811  0.00019219  0.00020912  0.00021700  0.00035348  0.00036560  0.00047004
  0.00049190  0.00059666  0.00060570  0.00062438  0.00107847  0.00111140  0.00117922  0.00119227
  0.00154626  0.00208548  0.00394199
 Checking for correct frequencies
 recalc frequencies=
    -0.0   -0.0   -0.0    0.0    0.0    0.0  172.5  228.0  340.6  426.3
   456.0  472.9  516.3  562.8  634.7  679.0  734.5  771.7  815.6  828.4
   912.1  982.8 1056.4 1140.1 1210.3 1287.8 1295.9 1331.9 1526.3 1578.8
  3216.1 3221.9 3237.4
 recalc symmetries=
     A'     A"     A"     A"     A'     A'     A"     A"     A'     A" 
     A'     A"     A'     A'     A'     A"     A'     A"     A'     A" 
     A"     A'     A'     A'     A'     A'     A'     A'     A'     A' 
     A'     A'     A' 
 recalc freqs check OK
 Zero-point lengths:
 10.0000 10.0000 10.0000 10.0000 10.0000 10.0000 18.8775 16.4176 13.4335 12.0070
 11.6091 11.3998 10.9100 10.4504  9.8403  9.5138  9.1477  8.9241  8.6808  8.6134
  8.2089  7.9080  7.6273  7.3421  7.1260  6.9083  6.8867  6.7930  6.3455  6.2393
  4.3715  4.3675  4.3571
 highest evec of mol 2
 -0.0020 -0.0021  0.0000
 -0.0140 -0.0072  0.0000
  0.0441  0.2701  0.0000
  0.1273  0.0088  0.0000
 -0.0004 -0.0026  0.0000
  0.0003  0.0006  0.0000
  0.0022 -0.0002  0.0000
 -0.0000  0.0001  0.0000
 -0.1484 -0.8548  0.0000
 -0.3896 -0.0634  0.0000
 -0.0044  0.0009  0.0000
 Enter nber and list of atoms to keep of mol #2
 keep list:          11           1           2           3           4
           5           6           7           8           9          10
          11
 reordering atoms
           1  1.651973567111201E-002
           2 -4.879495765621847E-002
           3   1.20612105717549     
           4   2.21118580278816     
           5   1.64571006270918     
           6  -1.32199090965958     
           7  -2.19228256441788     
           8  -1.51437848597365     
           9   1.39612956161932     
          10   3.27922243223541     
          11  -3.26888760161234     
           1           1
           2           2
           3           3
           4           4
           5           5
           6           6
           7           7
           8           8
           9           9
          10          10
          11          11
 initial cartes coords mol 1
   6   0.00000  -0.37247   0.01526
   6   0.00000   1.01668  -0.01414
   6   0.00000   1.59162   1.29572
   6   0.00000   0.63779   2.26362
  16   0.00000  -1.00128   1.62466
   7   0.00000   1.58059  -1.26931
   6   0.00000   0.66015  -2.17407
  16   0.00000  -1.01731  -1.58909
   1   0.00000   2.65495   1.48944
   1   0.00000   0.76722   3.33470
   1   0.00000   0.84345  -3.24030
 initial cartes coords mol 2
   6   0.00000  -0.38616   0.01652
   6   0.00000   1.06048  -0.04879
   6   0.00000   1.64872   1.20612
   6   0.00000   0.67643   2.21119
  16   0.00000  -0.97658   1.64571
   7   0.00000   1.57645  -1.32199
   6   0.00000   0.64980  -2.19228
  16   0.00000  -1.08354  -1.51438
   1   0.00000   2.71289   1.39613
   1   0.00000   0.85326   3.27922
   1   0.00000   0.77459  -3.26889
 loop 1 0
 mod cartes coords mol 2
   6   0.00000  -0.38616   0.01652
   6   0.00000   1.06048  -0.04879
   6   0.00000   1.64872   1.20612
   6   0.00000   0.67643   2.21119
  16   0.00000  -0.97658   1.64571
   7   0.00000   1.57645  -1.32199
   6   0.00000   0.64980  -2.19228
  16   0.00000  -1.08354  -1.51438
   1   0.00000   2.71289   1.39613
   1   0.00000   0.85326   3.27922
   1   0.00000   0.77459  -3.26889
 read in order, maxerr=  0.11 for atom   9
 final axis swaps:           1           1           1
 final xyz swap pattern=           1
 reorder list:
   1   2   3   4   5   6   7   8   9  10  11
 axis signs=           1           1           1
  6     0.000000 -0.386162  0.016520     0.000000 -0.372467  0.015265
  6     0.000000  1.060475 -0.048795     0.000000  1.016677 -0.014135
  6     0.000000  1.648723  1.206121     0.000000  1.591622  1.295725
  6     0.000000  0.676428  2.211186     0.000000  0.637791  2.263624
 16     0.000000 -0.976575  1.645710     0.000000 -1.001279  1.624665
  7     0.000000  1.576447 -1.321991     0.000000  1.580590 -1.269315
  6     0.000000  0.649797 -2.192283     0.000000  0.660152 -2.174071
 16     0.000000 -1.083543 -1.514378     0.000000 -1.017308 -1.589089
  1     0.000000  2.712893  1.396130     0.000000  2.654946  1.489443
  1     0.000000  0.853261  3.279222     0.000000  0.767224  3.334704
  1     0.000000  0.774594 -3.268888     0.000000  0.843454 -3.240296
 generating redundant internal coords
         300        3600          11
 Adding extra bonds for z output only
           6           6           6           6          16           7
           6          16           1           1           1
 search for int coords
   1 str   2   1   1.448
   2 str   3   2   1.386
   3 str   4   3   1.398
   4 str   5   1   1.733
   5 str   5   4   1.747
   6 str   6   2   1.374
   7 str   7   6   1.271
   8 str   8   1   1.682
   9 str   8   7   1.861
  10 str   9   3   1.081
  11 str  10   4   1.083
  12 str  11   7   1.084
 nber stretches=          12
  13 ben   1   2   3
  14 prop tor   1   2   3   4
  15 prop tor   1   2   3   9
  16 ben   1   2   6
  17 prop tor   1   2   6   7
  18 ben   1   5   4
  19 ben   1   8   7
  20 ben   2   1   5
  21 prop tor   2   1   5   4
  22 ben   2   1   8
  23 prop tor   2   1   8   7
  24 ben   2   3   4
  25 prop tor   2   3   4   5
  26 prop tor   2   3   4  10
  27 ben   2   3   9
  28 ben   2   6   7
  29 prop tor   2   6   7   8
  30 prop tor   2   6   7  11
  31 ben   3   2   6
  32 prop tor   3   2   6   7
  33 ben   3   4   5
  34 prop tor   3   4   5   1
  35 ben   3   4  10
  36 ben   4   3   9
  37 prop tor   5   1   2   3
  38 prop tor   5   1   2   6
  39 ben   5   1   8
  40 prop tor   5   1   8   7
  41 ben   5   4  10
  42 prop tor   6   2   3   4
  43 prop tor   6   2   3   9
  44 ben   6   7   8
  45 prop tor   6   7   8   1
  46 ben   6   7  11
  47 prop tor   8   1   2   3
  48 prop tor   8   1   2   6
  49 prop tor   8   1   5   4
  50 ben   8   7  11
  51 prop tor   9   3   4   5
  52 prop tor   9   3   4  10
  53 prop tor  10   4   5   1
  54 prop tor  11   7   8   1
 nber bend=              18
 nber lin bend=           0
 nber prop tor=          24
 nber impr tor=           0
 nber tot redund int=          54
 generating redundant internal coords
         300        3600          11
 search for int coords
   1 str   2   1   1.389
   2 str   3   2   1.430
   3 str   4   3   1.359
   4 str   5   1   1.728
   5 str   5   4   1.759
   6 str   6   2   1.376
   7 str   7   6   1.291
   8 str   8   1   1.729
   9 str   8   7   1.777
  10 str   9   3   1.081
  11 str  10   4   1.079
  12 str  11   7   1.082
 nber stretches=          12
  13 ben   1   2   3
  14 prop tor   1   2   3   4
  15 prop tor   1   2   3   9
  16 ben   1   2   6
  17 prop tor   1   2   6   7
  18 ben   1   5   4
  19 ben   1   8   7
  20 ben   2   1   5
  21 prop tor   2   1   5   4
  22 ben   2   1   8
  23 prop tor   2   1   8   7
  24 ben   2   3   4
  25 prop tor   2   3   4   5
  26 prop tor   2   3   4  10
  27 ben   2   3   9
  28 ben   2   6   7
  29 prop tor   2   6   7   8
  30 prop tor   2   6   7  11
  31 ben   3   2   6
  32 prop tor   3   2   6   7
  33 ben   3   4   5
  34 prop tor   3   4   5   1
  35 ben   3   4  10
  36 ben   4   3   9
  37 prop tor   5   1   2   3
  38 prop tor   5   1   2   6
  39 ben   5   1   8
  40 prop tor   5   1   8   7
  41 ben   5   4  10
  42 prop tor   6   2   3   4
  43 prop tor   6   2   3   9
  44 ben   6   7   8
  45 prop tor   6   7   8   1
  46 ben   6   7  11
  47 prop tor   8   1   2   3
  48 prop tor   8   1   2   6
  49 prop tor   8   1   5   4
  50 ben   8   7  11
  51 prop tor   9   3   4   5
  52 prop tor   9   3   4  10
  53 prop tor  10   4   5   1
  54 prop tor  11   7   8   1
 nber bend=              18
 nber lin bend=           0
 nber prop tor=          24
 nber impr tor=           0
 nber tot redund int=          54
 Eigenvalues of G in red int coords
    Gval -0.00000000 -0.00000000 -0.00000000 -0.00000000 -0.00000000 -0.00000000 -0.00000000 -0.00000000
    Gval -0.00000000 -0.00000000 -0.00000000 -0.00000000 -0.00000000  0.00000000  0.00000000  0.00000000
    Gval  0.00000000  0.00000000  0.00000000  0.00000000  0.00000000  0.00000000  0.00000000  0.00000000
    Gval  0.00000000  0.00000000  0.00000000  0.00001693  0.00002937  0.00003143  0.00004224  0.00005470
    Gval  0.00008309  0.00009288  0.00009324  0.00012492  0.00015991  0.00018936  0.00021082  0.00021912
    Gval  0.00035956  0.00036923  0.00046457  0.00049245  0.00059673  0.00060629  0.00062381  0.00108049
    Gval  0.00111306  0.00118812  0.00120986  0.00152840  0.00210915  0.00398570
  1.692723578511612E-005  1.692723578511612E-005
  2.936890345876296E-005  1.692723578511612E-005
  3.143027102193117E-005  1.692723578511612E-005
  4.223502201361238E-005  1.692723578511612E-005
  5.469638057232329E-005  1.692723578511612E-005
  8.308744669727779E-005  1.692723578511612E-005
  9.287939819558218E-005  1.692723578511612E-005
  9.324282041051521E-005  1.692723578511612E-005
  1.249185035259940E-004  1.692723578511612E-005
  1.599101796701645E-004  1.692723578511612E-005
  1.893562247769069E-004  1.692723578511612E-005
  2.108218696463970E-004  1.692723578511612E-005
  2.191240618418529E-004  1.692723578511612E-005
  3.595617820190850E-004  1.692723578511612E-005
  3.692288898371514E-004  1.692723578511612E-005
  4.645703600860314E-004  1.692723578511612E-005
  4.924492053319271E-004  1.692723578511612E-005
  5.967291202452066E-004  1.692723578511612E-005
  6.062902770862841E-004  1.692723578511612E-005
  6.238132339531115E-004  1.692723578511612E-005
  1.080489484009328E-003  1.692723578511612E-005
  1.113057787144615E-003  1.692723578511612E-005
  1.188120804695395E-003  1.692723578511612E-005
  1.209856086304007E-003  1.692723578511612E-005
  1.528402810762793E-003  1.692723578511612E-005
  2.109152208512053E-003  1.692723578511612E-005
  3.985703149189159E-003  1.692723578511612E-005
 cut=1d-8, nber non-redundant internal coords=          27
 Check on Eigenvals of non-red overlap matrix:
  0.00001693  0.00002937  0.00003143  0.00004224  0.00005470  0.00008309  0.00009288  0.00009324
  0.00012492  0.00015991  0.00018936  0.00021082  0.00021912  0.00035956  0.00036923  0.00046457
  0.00049245  0.00059673  0.00060629  0.00062381  0.00108049  0.00111306  0.00118812  0.00120986
  0.00152840  0.00210915  0.00398570
 generating redundant internal coords
         300        3600          11
 search for int coords
   1 str   2   1   1.448
   2 str   3   2   1.386
   3 str   4   3   1.398
   4 str   5   1   1.733
   5 str   5   4   1.747
   6 str   6   2   1.374
   7 str   7   6   1.271
   8 str   8   1   1.682
   9 str   8   7   1.861
  10 str   9   3   1.081
  11 str  10   4   1.083
  12 str  11   7   1.084
 nber stretches=          12
  13 ben   1   2   3
  14 prop tor   1   2   3   4
  15 prop tor   1   2   3   9
  16 ben   1   2   6
  17 prop tor   1   2   6   7
  18 ben   1   5   4
  19 ben   1   8   7
  20 ben   2   1   5
  21 prop tor   2   1   5   4
  22 ben   2   1   8
  23 prop tor   2   1   8   7
  24 ben   2   3   4
  25 prop tor   2   3   4   5
  26 prop tor   2   3   4  10
  27 ben   2   3   9
  28 ben   2   6   7
  29 prop tor   2   6   7   8
  30 prop tor   2   6   7  11
  31 ben   3   2   6
  32 prop tor   3   2   6   7
  33 ben   3   4   5
  34 prop tor   3   4   5   1
  35 ben   3   4  10
  36 ben   4   3   9
  37 prop tor   5   1   2   3
  38 prop tor   5   1   2   6
  39 ben   5   1   8
  40 prop tor   5   1   8   7
  41 ben   5   4  10
  42 prop tor   6   2   3   4
  43 prop tor   6   2   3   9
  44 ben   6   7   8
  45 prop tor   6   7   8   1
  46 ben   6   7  11
  47 prop tor   8   1   2   3
  48 prop tor   8   1   2   6
  49 prop tor   8   1   5   4
  50 ben   8   7  11
  51 prop tor   9   3   4   5
  52 prop tor   9   3   4  10
  53 prop tor  10   4   5   1
  54 prop tor  11   7   8   1
 nber bend=              18
 nber lin bend=           0
 nber prop tor=          24
 nber impr tor=           0
 nber tot redund int=          54
 Eigenvalues of G in red int coords
    Gval -0.00000000 -0.00000000 -0.00000000 -0.00000000 -0.00000000 -0.00000000 -0.00000000 -0.00000000
    Gval -0.00000000 -0.00000000 -0.00000000 -0.00000000 -0.00000000  0.00000000  0.00000000  0.00000000
    Gval  0.00000000  0.00000000  0.00000000  0.00000000  0.00000000  0.00000000  0.00000000  0.00000000
    Gval  0.00000000  0.00000000  0.00000000  0.00001695  0.00002904  0.00003131  0.00004214  0.00005500
    Gval  0.00008333  0.00009297  0.00009312  0.00012497  0.00015811  0.00019219  0.00020912  0.00021700
    Gval  0.00035348  0.00036560  0.00047004  0.00049190  0.00059666  0.00060570  0.00062438  0.00107847
    Gval  0.00111140  0.00117922  0.00119227  0.00154626  0.00208548  0.00394199
  1.695366476966800E-005  1.695366476966800E-005
  2.904402943129476E-005  1.695366476966800E-005
  3.130684747051794E-005  1.695366476966800E-005
  4.214414782418911E-005  1.695366476966800E-005
  5.500048402769706E-005  1.695366476966800E-005
  8.332705543991378E-005  1.695366476966800E-005
  9.296657034418310E-005  1.695366476966800E-005
  9.311986559065875E-005  1.695366476966800E-005
  1.249695522222917E-004  1.695366476966800E-005
  1.581110313184900E-004  1.695366476966800E-005
  1.921910239916905E-004  1.695366476966800E-005
  2.091163040478560E-004  1.695366476966800E-005
  2.170009751666478E-004  1.695366476966800E-005
  3.534754517306553E-004  1.695366476966800E-005
  3.656043182018322E-004  1.695366476966800E-005
  4.700354966508540E-004  1.695366476966800E-005
  4.918983851180058E-004  1.695366476966800E-005
  5.966594484402561E-004  1.695366476966800E-005
  6.056952678480337E-004  1.695366476966800E-005
  6.243780643909817E-004  1.695366476966800E-005
  1.078465108294378E-003  1.695366476966800E-005
  1.111400172534700E-003  1.695366476966800E-005
  1.179224500478914E-003  1.695366476966800E-005
  1.192267836400620E-003  1.695366476966800E-005
  1.546263964549940E-003  1.695366476966800E-005
  2.085481009162676E-003  1.695366476966800E-005
  3.941994043308037E-003  1.695366476966800E-005
 cut=1d-8, nber non-redundant internal coords=          27
 Check on Eigenvals of non-red overlap matrix:
  0.00001695  0.00002904  0.00003131  0.00004214  0.00005500  0.00008333  0.00009297  0.00009312
  0.00012497  0.00015811  0.00019219  0.00020912  0.00021700  0.00035348  0.00036560  0.00047004
  0.00049190  0.00059666  0.00060570  0.00062438  0.00107847  0.00111140  0.00117922  0.00119227
  0.00154626  0.00208548  0.00394199
 d1=
   9.2   4.1  -7.4 -13.1   6.9   0.7   0.0   2.6  -1.8  -1.3  -0.6  -3.0   0.0  -1.1  -2.7   0.0  -0.0  -0.3   0.2   0.2
   1.2  -1.3   0.2   0.0  -0.0  -0.0   0.0
 d2=
   9.3   5.1   6.3  13.3  -6.9  -0.7   0.0  -2.6  -1.7   1.3   0.4   2.9  -0.0  -2.8  -1.1   0.0   0.0   0.3  -0.2   0.2
   1.2   1.3  -0.1  -0.0   0.0   0.0  -0.0
 curvilinear- renormalizn of Dush matrix done
  mol 1 sym            1  -> mol 2 sym            1
  mol 1 sym            2  -> mol 2 sym            2

 Dushinsky matrix, ncs 2 in terms of ncs 1

   mode   freq    coeff     %      %tot     of    at

   1 A'     -0. -0.0000     0.0     0.0   9 A'    334.
   2 A"     -0. -0.0000     0.0     0.0   8 A"    214.
   3 A"     -0. -0.0000     0.0     0.0   7 A"    195.
   4 A"      0.  0.0000     0.0     0.0   8 A"    214.
   5 A'      0. -0.0000     0.0     0.0   9 A'    334.
   6 A'      0.  0.0000     0.0     0.0  11 A'    495.
   7 A"    172.  0.6297    39.6   102.9   7 A"    195.
                 0.7761    60.2           8 A"    214.
   8 A"    228.  0.7850    61.6    97.6   7 A"    195.
                -0.5958    35.5           8 A"    214.
   9 A'    341. -0.9897    98.0   100.1   9 A'    334.
  10 A"    426. -0.8755    76.6   100.2  10 A"    467.
                -0.4388    19.3          12 A"    524.
  11 A'    456.  0.9159    83.9    97.8  11 A'    495.
  12 A"    473.  0.4408    19.4   100.0  10 A"    467.
                -0.8603    74.0          12 A"    524.
  13 A'    516. -0.5738    32.9   100.8  14 A'    642.
                 0.7228    52.2          16 A'    681.
  14 A'    563.  0.3537    12.5   101.4  11 A'    495.
                 0.8088    65.4          13 A'    566.
                -0.4152    17.2          14 A'    642.
  15 A'    635. -0.4606    21.2   100.6  13 A'    566.
                -0.6471    41.9          14 A'    642.
                -0.5740    32.9          16 A'    681.
  16 A"    679. -0.8279    68.5    98.6  15 A"    662.
                -0.5244    27.5          17 A"    740.
  17 A'    734.  0.9387    88.1    98.8  18 A'    783.
  18 A"    772. -0.4798    23.0    98.2  15 A"    662.
                 0.8263    68.3          17 A"    740.
  19 A'    816. -0.9495    90.2    99.1  20 A'    845.
  20 A"    828.  0.9737    94.8   100.9  19 A"    790.
  21 A"    912.  0.9924    98.5    99.5  21 A"    891.
  22 A'    983.  0.7623    58.1   100.6  22 A'   1026.
                -0.4048    16.4          24 A'   1118.
  23 A'   1056. -0.5815    33.8   100.0  22 A'   1026.
                 0.6676    44.6          23 A'   1101.
                -0.3222    10.4          24 A'   1118.
  24 A'   1140.  0.5870    34.5    98.1  23 A'   1101.
                 0.7496    56.2          24 A'   1118.
  25 A'   1210. -0.3297    10.9    99.9  24 A'   1118.
                 0.7874    62.0          25 A'   1241.
                 0.4182    17.5          27 A'   1385.
  26 A'   1288. -0.4308    18.6   100.8  25 A'   1241.
                 0.8071    65.1          27 A'   1385.
  27 A'   1296. -0.3448    11.9    99.2  25 A'   1241.
                 0.9052    81.9          26 A'   1298.
  28 A'   1332.  0.5404    29.2   100.9  29 A'   1488.
                -0.6150    37.8          30 A'   1548.
  29 A'   1526.  0.7179    51.5    99.0  28 A'   1460.
                 0.6557    43.0          29 A'   1488.
  30 A'   1579. -0.5699    32.5    98.5  28 A'   1460.
                 0.4547    20.7          29 A'   1488.
                 0.6731    45.3          30 A'   1548.
  31 A'   3216.  0.9987    99.7   100.0  31 A'   3214.
  32 A'   3222. -0.6799    46.2   100.0  32 A'   3218.
                 0.7326    53.7          33 A'   3248.
  33 A'   3237.  0.7318    53.6   100.0  32 A'   3218.
                 0.6804    46.3          33 A'   3248.
 nber times 1st assigned=           1           0
 nber times 1st assigned=           2           0
 nber times 1st assigned=           3           0
 nber times 1st assigned=           4           0
 nber times 1st assigned=           5           0
 nber times 1st assigned=           6           0
 nber times 1st assigned=           8           2
 nber times 1st assigned=           9           2
 nber times 1st assigned=          10           0
 nber times 1st assigned=          12           0
 nber times 1st assigned=          13           0
 nber times 1st assigned=          14           0
 nber times 1st assigned=          15           0
 nber times 1st assigned=          16           0
 nber times 1st assigned=          17           0
 nber times 1st assigned=          18           0
 nber times 1st assigned=          19           0
 nber times 1st assigned=          20           0
 nber times 1st assigned=          21           0
 nber times 1st assigned=          22           0
 nber times 1st assigned=          23           0
 nber times 1st assigned=          24           0
 nber times 1st assigned=          25           0
 nber times 1st assigned=          26           0
 nber times 1st assigned=          27           0
 nber times 1st assigned=          28           0
 nber times 1st assigned=          29           0
 nber times 1st assigned=          30           0
 nber times 1st assigned=          31           0
 nber times 1st assigned=          32           0
 nber times 1st assigned=          33           0
 Dushinsky matrix written to .out file
 modes represented=   26.9350153375231     

 Dushinsky matrix, ncs 1 in terms of ncs 2

   mode   freq    coeff     %      %tot     of    at

   7 A"    195.  0.6297    39.6   103.4   7 A"    172.
                 0.7850    61.6           8 A"    228.
   8 A"    214.  0.7761    60.2    97.5   7 A"    172.
                -0.5958    35.5           8 A"    228.
   9 A'    334. -0.9897    98.0   100.1   9 A'    341.
  10 A"    467. -0.8755    76.6    99.4  10 A"    426.
                 0.4408    19.4          12 A"    473.
  11 A'    495.  0.9159    83.9    98.1  11 A'    456.
                 0.3537    12.5          14 A'    563.
  12 A"    524. -0.4388    19.3   100.2  10 A"    426.
                -0.8603    74.0          12 A"    473.
  13 A'    566.  0.8088    65.4   102.5  14 A'    563.
                -0.4606    21.2          15 A'    635.
  14 A'    642. -0.5738    32.9   100.4  13 A'    516.
                -0.4152    17.2          14 A'    563.
                -0.6471    41.9          15 A'    635.
  15 A"    662. -0.8279    68.5    98.2  16 A"    679.
                -0.4798    23.0          18 A"    772.
  16 A'    681.  0.7228    52.2   100.1  13 A'    516.
                -0.5740    32.9          15 A'    635.
  17 A"    740. -0.5244    27.5    99.2  16 A"    679.
                 0.8263    68.3          18 A"    772.
  18 A'    783.  0.9387    88.1    98.5  17 A'    734.
  19 A"    790.  0.9737    94.8   101.0  20 A"    828.
  20 A'    845. -0.9495    90.2    99.3  19 A'    816.
  21 A"    891.  0.9924    98.5    99.0  21 A"    912.
  22 A'   1026.  0.7623    58.1   100.4  22 A'    983.
                -0.5815    33.8          23 A'   1056.
  23 A'   1101.  0.6676    44.6    99.5  23 A'   1056.
                 0.5870    34.5          24 A'   1140.
  24 A'   1118. -0.4048    16.4    98.9  22 A'    983.
                -0.3222    10.4          23 A'   1056.
                 0.7496    56.2          24 A'   1140.
                -0.3297    10.9          25 A'   1210.
  25 A'   1241.  0.7874    62.0    99.1  25 A'   1210.
                -0.4308    18.6          26 A'   1288.
                -0.3448    11.9          27 A'   1296.
  26 A'   1298.  0.9052    81.9    99.6  27 A'   1296.
  27 A'   1385.  0.4182    17.5   100.3  25 A'   1210.
                 0.8071    65.1          26 A'   1288.
  28 A'   1460.  0.7179    51.5    98.4  29 A'   1526.
                -0.5699    32.5          30 A'   1579.
  29 A'   1488.  0.5404    29.2    99.7  28 A'   1332.
                 0.6557    43.0          29 A'   1526.
                 0.4547    20.7          30 A'   1579.
  30 A'   1548. -0.6150    37.8   100.8  28 A'   1332.
                 0.6731    45.3          30 A'   1579.
  31 A'   3214.  0.9987    99.7   100.0  31 A'   3216.
  32 A'   3218. -0.6799    46.2   100.0  32 A'   3222.
                 0.7318    53.6          33 A'   3237.
  33 A'   3248.  0.7326    53.7   100.0  32 A'   3222.
                 0.6804    46.3          33 A'   3237.
 nber times 1st assigned=           1           0
 nber times 1st assigned=           2           0
 nber times 1st assigned=           3           0
 nber times 1st assigned=           4           0
 nber times 1st assigned=           5           0
 nber times 1st assigned=           6           0
 nber times 1st assigned=           7           0
 nber times 1st assigned=           8           0
 nber times 1st assigned=           9           0
 nber times 1st assigned=          10           0
 nber times 1st assigned=          11           0
 nber times 1st assigned=          12           0
 nber times 1st assigned=          13           0
 nber times 1st assigned=          14           0
 nber times 1st assigned=          15           0
 nber times 1st assigned=          16           0
 nber times 1st assigned=          17           0
 nber times 1st assigned=          18           0
 nber times 1st assigned=          19           0
 nber times 1st assigned=          20           0
 nber times 1st assigned=          21           0
 nber times 1st assigned=          22           0
 nber times 1st assigned=          23           0
 nber times 1st assigned=          24           0
 nber times 1st assigned=          25           0
 nber times 1st assigned=          26           0
 nber times 1st assigned=          27           0
 nber times 1st assigned=          28           0
 nber times 1st assigned=          29           0
 nber times 1st assigned=          30           0
 nber times 1st assigned=          31           0
 nber times 1st assigned=          32           0
 nber times 1st assigned=          33           0
 modes represented=   26.9350153375231     
 p1=
   -0.    0.    0.   -0.    0.   -0.   -0.    0.   -9.   -0.    4.    0.    7.  -13.   -0.    4.    0.   -1.    0.    3.
   -0.   -2.    0.   -1.   -0.    0.    6.   -2.   -4.    1.    0.    0.   -0.
 p2=
   -0.    0.   -0.   -0.   -0.   -0.   -0.    0.   -9.   -0.   -2.    0.  -10.  -12.   -3.   -0.    4.   -0.    2.   -0.
    0.    2.   -2.    1.   -3.   -4.   -1.    4.    3.   -1.   -0.    0.    0.

 Displacement: in terms of nc of 1 THEN of nc of 2

   1 A"  freq=    -0. Q= -0.000 lam=    -0.0 A'  freq=    -0. Q= -0.000 lam=    -0.0
   2 A'  freq=    -0. Q=  0.000 lam=    -0.0 A"  freq=    -0. Q=  0.000 lam=    -0.0
   3 A'  freq=     0. Q=  0.000 lam=     0.0 A"  freq=    -0. Q=  0.000 lam=    -0.0
   4 A"  freq=     0. Q= -0.000 lam=     0.0 A"  freq=     0. Q= -0.000 lam=     0.0
   5 A"  freq=     0. Q=  0.000 lam=     0.0 A'  freq=     0. Q=  0.000 lam=     0.0
   6 A'  freq=     0. Q= -0.000 lam=     0.0 A'  freq=     0. Q= -0.000 lam=     0.0
   7 A"  freq=   195. Q= -0.000 lam=     0.0 A"  freq=   172. Q= -0.000 lam=     0.0
   8 A"  freq=   214. Q=  0.000 lam=     0.0 A"  freq=   228. Q=  0.000 lam=     0.0
   9 A'  freq=   334. Q= -0.678 lam=    76.6 A'  freq=   341. Q= -0.681 lam=    79.0
  10 A"  freq=   467. Q= -0.000 lam=     0.0 A"  freq=   426. Q= -0.000 lam=     0.0
  11 A'  freq=   495. Q=  0.384 lam=    36.4 A'  freq=   456. Q=  0.132 lam=     4.0
  12 A"  freq=   524. Q=  0.000 lam=     0.0 A"  freq=   473. Q=  0.000 lam=     0.0
  13 A'  freq=   566. Q=  0.682 lam=   131.6 A'  freq=   516. Q=  0.880 lam=   199.9
  14 A'  freq=   642. Q= -1.322 lam=   561.3 A'  freq=   563. Q= -1.135 lam=   362.6
  15 A"  freq=   662. Q= -0.000 lam=     0.0 A'  freq=   635. Q= -0.335 lam=    35.7
  16 A'  freq=   681. Q=  0.430 lam=    63.0 A"  freq=   679. Q=  0.000 lam=     0.0
  17 A"  freq=   740. Q=  0.000 lam=     0.0 A'  freq=   734. Q=  0.450 lam=    74.4
  18 A'  freq=   783. Q= -0.121 lam=     5.7 A"  freq=   772. Q= -0.000 lam=     0.0
  19 A"  freq=   790. Q=  0.000 lam=     0.0 A'  freq=   816. Q=  0.208 lam=    17.6
  20 A'  freq=   845. Q=  0.396 lam=    66.4 A"  freq=   828. Q=  0.000 lam=     0.0
  21 A"  freq=   891. Q= -0.000 lam=     0.0 A"  freq=   912. Q= -0.000 lam=     0.0
  22 A'  freq=  1026. Q= -0.241 lam=    29.8 A'  freq=   983. Q= -0.198 lam=    19.2
  23 A'  freq=  1101. Q=  0.023 lam=     0.3 A'  freq=  1056. Q=  0.262 lam=    36.3
  24 A'  freq=  1118. Q= -0.158 lam=    14.0 A'  freq=  1140. Q= -0.135 lam=    10.4
  25 A'  freq=  1241. Q= -0.047 lam=     1.4 A'  freq=  1210. Q= -0.377 lam=    86.0
  26 A'  freq=  1298. Q=  0.059 lam=     2.3 A'  freq=  1288. Q=  0.625 lam=   251.4
  27 A'  freq=  1385. Q=  0.876 lam=   531.9 A'  freq=  1296. Q=  0.146 lam=    13.8
  28 A'  freq=  1460. Q= -0.285 lam=    59.2 A'  freq=  1332. Q= -0.570 lam=   216.2
  29 A'  freq=  1488. Q= -0.582 lam=   251.7 A'  freq=  1526. Q= -0.454 lam=   157.0
  30 A'  freq=  1548. Q=  0.189 lam=    27.6 A'  freq=  1579. Q=  0.137 lam=    14.9
  31 A'  freq=  3214. Q=  0.025 lam=     1.0 A'  freq=  3216. Q=  0.031 lam=     1.5
  32 A'  freq=  3218. Q=  0.014 lam=     0.3 A'  freq=  3222. Q=  0.026 lam=     1.1
  33 A'  freq=  3248. Q= -0.017 lam=     0.5 A'  freq=  3237. Q= -0.012 lam=     0.2

 total reorg energy (cm**-1, kcal/mol)=     1861.     1581.      5.32      4.52
 Nber of molecules processed=           2
