 Enter ifcurve (0=recti, 1=orth curvi, 2=apprx curvi, -1 = skip
 And atom ordering flag, 0= never changes, 1= use the first order thenceforth,
  2= deduce it (does read on fail), 3= always read it
 Reading file: 
 ./Benzene-bridges_0_C0S0.log                                                   
                                          
  Entering Gaussian System, Link 0=g16                                          
  
 Gaussian format, type: g94, g98, g03= F F F
  #P Geom=AllCheck Guess=TCheck SCRF=Check GenChk RB3LYP/6-311G(d,p) Fre    
 energy type= B3LYP   
 Original G94 input coords:
  6 -1.402960 -0.076971  0.147192
  6 -0.826702  1.095586 -0.336836
  6  0.553353  1.186938 -0.491364
  6  1.388596  0.108284 -0.165447
  6  2.861744  0.206009 -0.330352
  6  3.549236  1.380017  0.010841
  6  4.929292  1.471703 -0.143458
  6  5.653351  0.391018 -0.642553
  6  4.984430 -0.781966 -0.985918
  6  3.604354 -0.873190 -0.831543
  6  0.793748 -1.065278  0.320619
  6 -0.586266 -1.157096  0.475206
  1 -2.477993 -0.148308  0.267591
  1 -1.453824  1.939228 -0.603291
  1  0.988657  2.095148 -0.892566
  1  2.999372  2.218151  0.423740
  1  5.441100  2.386334  0.134954
  1  6.728413  0.462256 -0.762753
  1  5.537204 -1.626043 -1.383394
  1  3.091179 -1.781750 -1.125596
  1  1.421448 -1.902951  0.602749
  1 -1.023699 -2.071388  0.860869
 nber atoms=          22
  SCF Done:  E(RB3LYP) =  -463.418004900     A.U. after    1 cycles             
  
          23          40 "  -463.418004900"
After scan for Atom:   Atom  AN      X      Y      Z        X      Y      Z        X      Y      Z   
After scan for Atom:   Atom  AN      X      Y      Z        X      Y      Z        X      Y      Z   
After scan for Atom:   Atom  AN      X      Y      Z        X      Y      Z        X      Y      Z   
After scan for Atom:   Atom  AN      X      Y      Z        X      Y      Z        X      Y      Z   
After scan for Atom:   Atom  AN      X      Y      Z        X      Y      Z        X      Y      Z   
After scan for Atom:   Atom  AN      X      Y      Z        X      Y      Z        X      Y      Z   
After scan for Atom:   Atom  AN      X      Y      Z        X      Y      Z        X      Y      Z   
After scan for Atom:   Atom  AN      X      Y      Z        X      Y      Z        X      Y      Z   
After scan for Atom:   Atom  AN      X      Y      Z        X      Y      Z        X      Y      Z   
After scan for Atom:   Atom  AN      X      Y      Z        X      Y      Z        X      Y      Z   
After scan for Atom:   Atom  AN      X      Y      Z        X      Y      Z        X      Y      Z   
After scan for Atom:   Atom  AN      X      Y      Z        X      Y      Z        X      Y      Z   
After scan for Atom:   Atom  AN      X      Y      Z        X      Y      Z        X      Y      Z   
After scan for Atom:   Atom  AN      X      Y      Z        X      Y      Z        X      Y      Z   
After scan for Atom:   Atom  AN      X      Y      Z        X      Y      Z        X      Y      Z   
After scan for Atom:   Atom  AN      X      Y      Z        X      Y      Z        X      Y      Z   
After scan for Atom:   Atom  AN      X      Y      Z        X      Y      Z        X      Y      Z   
After scan for Atom:   Atom  AN      X      Y      Z        X      Y      Z        X      Y      Z   
After scan for Atom:   Atom  AN      X      Y      Z        X      Y      Z        X      Y      Z   
After scan for Atom:   Atom  AN      X      Y      Z        X      Y      Z        X      Y      Z   
 g94    frequencies=
     0.0    0.0    0.0    0.0    0.0    0.0   65.8   94.8  126.1  268.4
   313.1  368.6  414.2  420.5  503.3  558.6  626.3  629.1  641.2  713.1
   716.3  756.3  756.5  798.0  856.9  857.4  923.2  941.6  980.7  982.3
  1001.7 1001.8 1012.1 1018.2 1026.2 1053.2 1066.9 1100.7 1106.4 1182.1
  1182.5 1202.3 1208.1 1297.4 1301.8 1326.7 1354.9 1357.9 1462.1 1489.8
  1516.3 1537.9 1610.2 1625.8 1643.4 1645.6 3158.3 3159.1 3163.8 3166.6
  3173.6 3177.2 3179.7 3182.6 3188.8 3190.2
 g94    symmetries=
                                                 A      A      A      A
       A      A      A      A      A      A      A      A      A      A
       A      A      A      A      A      A      A      A      A      A
       A      A      A      A      A      A      A      A      A      A
       A      A      A      A      A      A      A      A      A      A
       A      A      A      A      A      A      A      A      A      A
       A      A      A      A      A      A
 atomic masses:
 12.0000 12.0000 12.0000 12.0000 12.0000 12.0000 12.0000 12.0000 12.0000 12.0000
 12.0000 12.0000  1.0078  1.0078  1.0078  1.0078  1.0078  1.0078  1.0078  1.0078
  1.0078  1.0078
 looking for force constants in 
 ./Benzene-bridges_0_C0S0.fchk                                                  
  
 Cartesian Force Constants                  R   N=        2211                  
  
 n3=          66        2211
 g94-fc frequencies=
    -1.3   -0.0    0.0    0.0    3.5    5.4   65.8   94.8  126.1  268.4
   313.1  368.6  414.2  420.5  503.4  558.7  626.4  629.1  641.2  713.1
   716.3  756.3  756.6  798.0  856.9  857.4  923.3  941.6  980.8  982.3
  1001.7 1001.8 1012.1 1018.2 1026.2 1053.3 1066.9 1100.7 1106.4 1182.2
  1182.6 1202.4 1208.2 1297.5 1301.8 1326.8 1355.0 1357.9 1462.1 1489.8
  1516.3 1537.9 1610.3 1625.8 1643.5 1645.7 3158.3 3159.2 3163.9 3166.7
  3173.6 3177.3 3179.8 3182.6 3188.9 3190.3
 at 99999: n3=          66
 symm operator            1 :  F  nop=           0
 symm operator            2 :  F  nop=           0
 symm operator            3 :  F  nop=           0
 symm operator            4 :  F  nop=           0
 symm operator            5 :  F  nop=           0
 symm operator            6 :  F  nop=           0
 symm operator            7 :  F  nop=           0
 The point group of the molecule is  C1
 Symmetry rotation matrix:
   1.00000   0.00000   0.00000
   0.00000   1.00000   0.00000
   0.00000   0.00000   1.00000

 Projecting out zero-frequency components
 generating redundant internal coords
         300        3600          22
 search for int coords
   1 str   2   1   1.393
   2 str   3   2   1.392
   3 str   4   3   1.403
   4 str   5   4   1.486
   5 str   6   5   1.403
   6 str   7   6   1.392
   7 str   8   7   1.393
   8 str   9   8   1.393
   9 str  10   5   1.403
  10 str  10   9   1.392
  11 str  11   4   1.403
  12 str  12   1   1.393
  13 str  12  11   1.392
  14 str  13   1   1.084
  15 str  14   2   1.084
  16 str  15   3   1.084
  17 str  16   6   1.084
  18 str  17   7   1.084
  19 str  18   8   1.084
  20 str  19   9   1.084
  21 str  20  10   1.084
  22 str  21  11   1.084
  23 str  22  12   1.084
 nber stretches=          23
  24 ben   1   2   3
  25 prop tor   1   2   3   4
  26 prop tor   1   2   3  15
  27 ben   1   2  14
  28 ben   1  12  11
  29 ben   1  12  22
  30 ben   2   1  12
  31 prop tor   2   1  12  11
  32 prop tor   2   1  12  22
  33 ben   2   1  13
  34 ben   2   3   4
  35 prop tor   2   3   4   5
  36 prop tor   2   3   4  11
  37 ben   2   3  15
  38 ben   3   2  14
  39 ben   3   4   5
  40 prop tor   3   4   5   6
  41 prop tor   3   4   5  10
  42 ben   3   4  11
  43 prop tor   3   4  11  12
  44 prop tor   3   4  11  21
  45 ben   4   3  15
  46 ben   4   5   6
  47 prop tor   4   5   6   7
  48 prop tor   4   5   6  16
  49 ben   4   5  10
  50 prop tor   4   5  10   9
  51 prop tor   4   5  10  20
  52 ben   4  11  12
  53 prop tor   4  11  12   1
  54 prop tor   4  11  12  22
  55 ben   4  11  21
  56 ben   5   4  11
  57 prop tor   5   4  11  12
  58 prop tor   5   4  11  21
  59 ben   5   6   7
  60 prop tor   5   6   7   8
  61 prop tor   5   6   7  17
  62 ben   5   6  16
  63 ben   5  10   9
  64 ben   5  10  20
  65 ben   6   5  10
  66 prop tor   6   5  10   9
  67 prop tor   6   5  10  20
  68 ben   6   7   8
  69 prop tor   6   7   8   9
  70 prop tor   6   7   8  18
  71 ben   6   7  17
  72 ben   7   6  16
  73 ben   7   8   9
  74 prop tor   7   8   9  10
  75 prop tor   7   8   9  19
  76 ben   7   8  18
  77 ben   8   7  17
  78 ben   8   9  10
  79 prop tor   8   9  10   5
  80 prop tor   8   9  10  20
  81 ben   8   9  19
  82 ben   9   8  18
  83 ben   9  10  20
  84 prop tor  10   5   6   7
  85 prop tor  10   5   6  16
  86 ben  10   9  19
  87 prop tor  11   4   5   6
  88 prop tor  11   4   5  10
  89 ben  11  12  22
  90 prop tor  12   1   2   3
  91 prop tor  12   1   2  14
  92 ben  12   1  13
  93 ben  12  11  21
  94 prop tor  13   1   2   3
  95 prop tor  13   1   2  14
  96 prop tor  13   1  12  11
  97 prop tor  13   1  12  22
  98 prop tor  14   2   3   4
  99 prop tor  14   2   3  15
 100 prop tor  15   3   4   5
 101 prop tor  15   3   4  11
 102 prop tor  16   6   7   8
 103 prop tor  16   6   7  17
 104 prop tor  17   7   8   9
 105 prop tor  17   7   8  18
 106 prop tor  18   8   9  10
 107 prop tor  18   8   9  19
 108 prop tor  19   9  10   5
 109 prop tor  19   9  10  20
 110 prop tor  21  11  12   1
 111 prop tor  21  11  12  22
 nber bend=              36
 nber lin bend=           0
 nber prop tor=          52
 nber impr tor=           0
 nber tot redund int=         111
 Eigenvalues of G in red int coords
    Gval -0.00000000 -0.00000000 -0.00000000 -0.00000000 -0.00000000 -0.00000000 -0.00000000 -0.00000000
    Gval -0.00000000 -0.00000000 -0.00000000 -0.00000000 -0.00000000 -0.00000000 -0.00000000 -0.00000000
    Gval -0.00000000 -0.00000000 -0.00000000 -0.00000000 -0.00000000 -0.00000000  0.00000000  0.00000000
    Gval  0.00000000  0.00000000  0.00000000  0.00000000  0.00000000  0.00000000  0.00000000  0.00000000
    Gval  0.00000000  0.00000000  0.00000000  0.00000000  0.00000000  0.00000000  0.00000000  0.00000000
    Gval  0.00000000  0.00000000  0.00000000  0.00000000  0.00000000  0.00000000  0.00000000  0.00000000
    Gval  0.00000000  0.00000000  0.00000000  0.00000605  0.00000771  0.00001782  0.00003848  0.00004249
    Gval  0.00004460  0.00004903  0.00005497  0.00005741  0.00006670  0.00007566  0.00009757  0.00010945
    Gval  0.00011643  0.00011743  0.00012122  0.00020414  0.00020456  0.00025884  0.00027783  0.00029010
    Gval  0.00035497  0.00037958  0.00039421  0.00050847  0.00056272  0.00059306  0.00059307  0.00059316
    Gval  0.00059336  0.00060418  0.00060470  0.00061529  0.00061942  0.00065979  0.00066187  0.00066499
    Gval  0.00087226  0.00103892  0.00104072  0.00110767  0.00110968  0.00113674  0.00113765  0.00116939
    Gval  0.00117036  0.00117225  0.00117225  0.00141985  0.00143463  0.00166030  0.00195644  0.00233280
    Gval  0.00234689  0.00304220  0.00318412  0.00372459  0.00373783  0.00406424  0.00407023
  6.047653422474310E-006  6.047653422474310E-006
  7.707637185917403E-006  6.047653422474310E-006
  1.781595298236540E-005  6.047653422474310E-006
  3.847996650803082E-005  6.047653422474310E-006
  4.249180995779382E-005  6.047653422474310E-006
  4.460149449883462E-005  6.047653422474310E-006
  4.902539246616413E-005  6.047653422474310E-006
  5.497286815683219E-005  6.047653422474310E-006
  5.740790428997780E-005  6.047653422474310E-006
  6.669597261314993E-005  6.047653422474310E-006
  7.566324577659226E-005  6.047653422474310E-006
  9.756953314073040E-005  6.047653422474310E-006
  1.094522645748338E-004  6.047653422474310E-006
  1.164314710903547E-004  6.047653422474310E-006
  1.174284773541527E-004  6.047653422474310E-006
  1.212188631624809E-004  6.047653422474310E-006
  2.041415575232356E-004  6.047653422474310E-006
  2.045593894695032E-004  6.047653422474310E-006
  2.588447454977973E-004  6.047653422474310E-006
  2.778310341613544E-004  6.047653422474310E-006
  2.900996184655560E-004  6.047653422474310E-006
  3.549674626253304E-004  6.047653422474310E-006
  3.795791887306688E-004  6.047653422474310E-006
  3.942076940315020E-004  6.047653422474310E-006
  5.084673832669664E-004  6.047653422474310E-006
  5.627235603058723E-004  6.047653422474310E-006
  5.930570121571466E-004  6.047653422474310E-006
  5.930668909703735E-004  6.047653422474310E-006
  5.931622554389036E-004  6.047653422474310E-006
  5.933602609737832E-004  6.047653422474310E-006
  6.041764515932850E-004  6.047653422474310E-006
  6.047024019014885E-004  6.047653422474310E-006
  6.152851029966925E-004  6.047653422474310E-006
  6.194213697674110E-004  6.047653422474310E-006
  6.597938885415425E-004  6.047653422474310E-006
  6.618746166099712E-004  6.047653422474310E-006
  6.649880276436656E-004  6.047653422474310E-006
  8.722605415266323E-004  6.047653422474310E-006
  1.038923491944304E-003  6.047653422474310E-006
  1.040720072469978E-003  6.047653422474310E-006
  1.107671782070849E-003  6.047653422474310E-006
  1.109677154452376E-003  6.047653422474310E-006
  1.136738269945942E-003  6.047653422474310E-006
  1.137653296647020E-003  6.047653422474310E-006
  1.169387955479446E-003  6.047653422474310E-006
  1.170356352755247E-003  6.047653422474310E-006
  1.172249912371745E-003  6.047653422474310E-006
  1.172253541908900E-003  6.047653422474310E-006
  1.419847197487913E-003  6.047653422474310E-006
  1.434625174901159E-003  6.047653422474310E-006
  1.660295008333947E-003  6.047653422474310E-006
  1.956444527368214E-003  6.047653422474310E-006
  2.332800223838378E-003  6.047653422474310E-006
  2.346886668716502E-003  6.047653422474310E-006
  3.042204212651782E-003  6.047653422474310E-006
  3.184116581565500E-003  6.047653422474310E-006
  3.724585855414121E-003  6.047653422474310E-006
  3.737834498839856E-003  6.047653422474310E-006
  4.064241845761002E-003  6.047653422474310E-006
  4.070226222690485E-003  6.047653422474310E-006
 cut=1d-8, nber non-redundant internal coords=          60
 Check on Eigenvals of non-red overlap matrix:
  0.00000605  0.00000771  0.00001782  0.00003848  0.00004249  0.00004460  0.00004903  0.00005497
  0.00005741  0.00006670  0.00007566  0.00009757  0.00010945  0.00011643  0.00011743  0.00012122
  0.00020414  0.00020456  0.00025884  0.00027783  0.00029010  0.00035497  0.00037958  0.00039421
  0.00050847  0.00056272  0.00059306  0.00059307  0.00059316  0.00059336  0.00060418  0.00060470
  0.00061529  0.00061942  0.00065979  0.00066187  0.00066499  0.00087226  0.00103892  0.00104072
  0.00110767  0.00110968  0.00113674  0.00113765  0.00116939  0.00117036  0.00117225  0.00117225
  0.00141985  0.00143463  0.00166030  0.00195644  0.00233280  0.00234689  0.00304220  0.00318412
  0.00372459  0.00373783  0.00406424  0.00407023
 Checking for correct frequencies
 recalc frequencies=
    -0.0   -0.0   -0.0    0.0    0.0    0.0   65.8   94.8  126.1  268.4
   313.1  368.6  414.2  420.5  503.4  558.7  626.4  629.1  641.2  713.1
   716.3  756.3  756.6  798.0  856.9  857.4  923.3  941.6  980.8  982.3
  1001.7 1001.8 1012.1 1018.2 1026.2 1053.3 1066.9 1100.7 1106.4 1182.2
  1182.6 1202.4 1208.2 1297.5 1301.8 1326.8 1355.0 1357.9 1462.1 1489.8
  1516.3 1537.9 1610.3 1625.8 1643.5 1645.7 3158.3 3159.2 3163.9 3166.7
  3173.6 3177.3 3179.8 3182.6 3188.9 3190.3
 recalc symmetries=
                                                                       
                                                                       
                                                                       
                                                                       
                                                                       
                                                                       
                                           
 recalc freqs check OK
 Zero-point lengths:
 10.0000 10.0000 10.0000 10.0000 10.0000 10.0000 30.5625 25.4640 22.0807 15.1323
 14.0106 12.9133 12.1806 12.0892 11.0499 10.4887  9.9057  9.8840  9.7905  9.2836
  9.2626  9.0147  9.0131  8.7759  8.4689  8.4665  8.1589  8.0791  7.9162  7.9098
  7.8330  7.8327  7.7926  7.7691  7.7388  7.6389  7.5898  7.4723  7.4531  7.2104
  7.2091  7.1495  7.1324  6.8825  6.8711  6.8061  6.7349  6.7276  6.4834  6.4229
  6.3666  6.3216  6.1780  6.1484  6.1153  6.1112  4.4113  4.4107  4.4074  4.4055
  4.4006  4.3981  4.3964  4.3944  4.3901  4.3892
 highest evec of mol 1
 -0.1175 -0.0078  0.0132
 -0.0552  0.0775 -0.0245
  0.0338  0.0623 -0.0280
  0.0039  0.0003 -0.0004
 -0.0039 -0.0003  0.0004
 -0.0417  0.0572  0.0289
  0.0444  0.0833  0.0255
  0.1171  0.0078 -0.0131
  0.0482 -0.0772 -0.0359
 -0.0390 -0.0622 -0.0197
  0.0470 -0.0570  0.0190
 -0.0378 -0.0836  0.0349
  0.3744  0.0248 -0.0419
  0.1793 -0.2426  0.0766
 -0.0999 -0.2048  0.0903
  0.1262 -0.1895 -0.0933
 -0.1455 -0.2617 -0.0797
 -0.3730 -0.0247  0.0417
 -0.1573  0.2417  0.1136
  0.1170  0.2043  0.0656
 -0.1434  0.1889 -0.0632
  0.1247  0.2627 -0.1106
 generating redundant internal coords
         300        3600          22
 Adding extra bonds for z output only
           6           6           6           6           6           6
           6           6           6           6           6           6
           1           1           1           1           1           1
           1           1           1           1
 search for int coords
   1 str   2   1   1.393
   2 str   3   2   1.392
   3 str   4   3   1.403
   4 str   5   4   1.486
   5 str   6   5   1.403
   6 str   7   6   1.392
   7 str   8   7   1.393
   8 str   9   8   1.393
   9 str  10   5   1.403
  10 str  10   9   1.392
  11 str  11   4   1.403
  12 str  12   1   1.393
  13 str  12  11   1.392
  14 str  13   1   1.084
  15 str  14   2   1.084
  16 str  15   3   1.084
  17 str  16   6   1.084
  18 str  17   7   1.084
  19 str  18   8   1.084
  20 str  19   9   1.084
  21 str  20  10   1.084
  22 str  21  11   1.084
  23 str  22  12   1.084
 nber stretches=          23
  24 ben   1   2   3
  25 prop tor   1   2   3   4
  26 prop tor   1   2   3  15
  27 ben   1   2  14
  28 ben   1  12  11
  29 ben   1  12  22
  30 ben   2   1  12
  31 prop tor   2   1  12  11
  32 prop tor   2   1  12  22
  33 ben   2   1  13
  34 ben   2   3   4
  35 prop tor   2   3   4   5
  36 prop tor   2   3   4  11
  37 ben   2   3  15
  38 ben   3   2  14
  39 ben   3   4   5
  40 prop tor   3   4   5   6
  41 prop tor   3   4   5  10
  42 ben   3   4  11
  43 prop tor   3   4  11  12
  44 prop tor   3   4  11  21
  45 ben   4   3  15
  46 ben   4   5   6
  47 prop tor   4   5   6   7
  48 prop tor   4   5   6  16
  49 ben   4   5  10
  50 prop tor   4   5  10   9
  51 prop tor   4   5  10  20
  52 ben   4  11  12
  53 prop tor   4  11  12   1
  54 prop tor   4  11  12  22
  55 ben   4  11  21
  56 ben   5   4  11
  57 prop tor   5   4  11  12
  58 prop tor   5   4  11  21
  59 ben   5   6   7
  60 prop tor   5   6   7   8
  61 prop tor   5   6   7  17
  62 ben   5   6  16
  63 ben   5  10   9
  64 ben   5  10  20
  65 ben   6   5  10
  66 prop tor   6   5  10   9
  67 prop tor   6   5  10  20
  68 ben   6   7   8
  69 prop tor   6   7   8   9
  70 prop tor   6   7   8  18
  71 ben   6   7  17
  72 ben   7   6  16
  73 ben   7   8   9
  74 prop tor   7   8   9  10
  75 prop tor   7   8   9  19
  76 ben   7   8  18
  77 ben   8   7  17
  78 ben   8   9  10
  79 prop tor   8   9  10   5
  80 prop tor   8   9  10  20
  81 ben   8   9  19
  82 ben   9   8  18
  83 ben   9  10  20
  84 prop tor  10   5   6   7
  85 prop tor  10   5   6  16
  86 ben  10   9  19
  87 prop tor  11   4   5   6
  88 prop tor  11   4   5  10
  89 ben  11  12  22
  90 prop tor  12   1   2   3
  91 prop tor  12   1   2  14
  92 ben  12   1  13
  93 ben  12  11  21
  94 prop tor  13   1   2   3
  95 prop tor  13   1   2  14
  96 prop tor  13   1  12  11
  97 prop tor  13   1  12  22
  98 prop tor  14   2   3   4
  99 prop tor  14   2   3  15
 100 prop tor  15   3   4   5
 101 prop tor  15   3   4  11
 102 prop tor  16   6   7   8
 103 prop tor  16   6   7  17
 104 prop tor  17   7   8   9
 105 prop tor  17   7   8  18
 106 prop tor  18   8   9  10
 107 prop tor  18   8   9  19
 108 prop tor  19   9  10   5
 109 prop tor  19   9  10  20
 110 prop tor  21  11  12   1
 111 prop tor  21  11  12  22
 nber bend=              36
 nber lin bend=           0
 nber prop tor=          52
 nber impr tor=           0
 nber tot redund int=         111
 Reading file: 
 ./Benzene-bridges_0_C0S1.log                                                   
                                          
  Entering Gaussian System, Link 0=g16                                          
  
 Gaussian format, type: g94, g98, g03= F F F
  #P Geom=AllCheck Guess=TCheck SCRF=Check GenChk RB3LYP TD(FC,Read)/6-3    
 energy type= TD      
 Original G94 input coords:
  6 -1.429181 -0.078658  0.150076
  6 -0.837661  1.130905 -0.247017
  6  0.555801  1.228642 -0.408525
  6  1.409836  0.109617 -0.167772
  6  2.840468  0.204510 -0.327891
  6  3.541296  1.422133 -0.071299
  6  4.935511  1.509379 -0.232831
  6  5.679589  0.392848 -0.645599
  6  5.015096 -0.817118 -0.900735
  6  3.620352 -0.914906 -0.750144
  6  0.783204 -1.107612  0.238725
  6 -0.612166 -1.194815  0.389456
  1 -2.503104 -0.149877  0.270314
  1 -1.458524  1.993370 -0.459771
  1  0.982193  2.150470 -0.783486
  1  2.998501  2.275254  0.315642
  1  5.438623  2.442592 -0.007954
  1  6.753517  0.464083 -0.765772
  1  5.573726 -1.679899 -1.244423
  1  3.121768 -1.837133 -1.020473
  1  1.398209 -1.960371  0.497081
  1 -1.053025 -2.127683  0.721089
 nber atoms=          22
  Total Energy, E(TD-HF/TD-DFT) =  -463.237217275                               
  
          32          49 "  -463.237217275"
After scan for Atom:   Atom  AN      X      Y      Z        X      Y      Z        X      Y      Z   
After scan for Atom:   Atom  AN      X      Y      Z        X      Y      Z        X      Y      Z   
After scan for Atom:   Atom  AN      X      Y      Z        X      Y      Z        X      Y      Z   
After scan for Atom:   Atom  AN      X      Y      Z        X      Y      Z        X      Y      Z   
After scan for Atom:   Atom  AN      X      Y      Z        X      Y      Z        X      Y      Z   
After scan for Atom:   Atom  AN      X      Y      Z        X      Y      Z        X      Y      Z   
After scan for Atom:   Atom  AN      X      Y      Z        X      Y      Z        X      Y      Z   
After scan for Atom:   Atom  AN      X      Y      Z        X      Y      Z        X      Y      Z   
After scan for Atom:   Atom  AN      X      Y      Z        X      Y      Z        X      Y      Z   
After scan for Atom:   Atom  AN      X      Y      Z        X      Y      Z        X      Y      Z   
After scan for Atom:   Atom  AN      X      Y      Z        X      Y      Z        X      Y      Z   
After scan for Atom:   Atom  AN      X      Y      Z        X      Y      Z        X      Y      Z   
After scan for Atom:   Atom  AN      X      Y      Z        X      Y      Z        X      Y      Z   
After scan for Atom:   Atom  AN      X      Y      Z        X      Y      Z        X      Y      Z   
After scan for Atom:   Atom  AN      X      Y      Z        X      Y      Z        X      Y      Z   
After scan for Atom:   Atom  AN      X      Y      Z        X      Y      Z        X      Y      Z   
After scan for Atom:   Atom  AN      X      Y      Z        X      Y      Z        X      Y      Z   
After scan for Atom:   Atom  AN      X      Y      Z        X      Y      Z        X      Y      Z   
After scan for Atom:   Atom  AN      X      Y      Z        X      Y      Z        X      Y      Z   
After scan for Atom:   Atom  AN      X      Y      Z        X      Y      Z        X      Y      Z   
 g94    frequencies=
     0.0    0.0    0.0    0.0    0.0    0.0   75.2   90.0  108.9  226.0
   297.9  340.6  342.1  367.2  470.2  481.4  556.0  589.5  598.3  608.3
   661.6  679.1  686.6  714.9  733.7  753.7  817.7  827.2  875.3  882.2
   903.4  907.8  997.5  999.6 1024.0 1026.3 1052.5 1054.1 1072.6 1140.5
  1182.0 1202.4 1252.8 1264.2 1332.3 1341.9 1386.8 1387.2 1416.6 1454.3
  1473.6 1481.4 1508.8 1586.8 1612.4 2111.8 3169.2 3169.2 3175.3 3177.9
  3188.3 3189.8 3190.5 3195.8 3201.8 3232.6
 g94    symmetries=
                                                 A      A      A      A
       A      A      A      A      A      A      A      A      A      A
       A      A      A      A      A      A      A      A      A      A
       A      A      A      A      A      A      A      A      A      A
       A      A      A      A      A      A      A      A      A      A
       A      A      A      A      A      A      A      A      A      A
       A      A      A      A      A      A
 atomic masses:
 12.0000 12.0000 12.0000 12.0000 12.0000 12.0000 12.0000 12.0000 12.0000 12.0000
 12.0000 12.0000  1.0078  1.0078  1.0078  1.0078  1.0078  1.0078  1.0078  1.0078
  1.0078  1.0078
 looking for force constants in 
 ./Benzene-bridges_0_C0S1.fchk                                                  
  
 Cartesian Force Constants                  R   N=        2211                  
  
 n3=          66        2211
 g94-fc frequencies=
    -4.0   -0.0   -0.0    0.0    1.9    3.7   75.2   90.0  108.9  226.0
   298.0  340.6  342.1  367.3  470.2  481.4  556.1  589.6  598.3  608.3
   661.6  679.1  686.7  714.9  733.8  753.7  817.7  827.2  875.3  882.2
   903.4  907.8  997.5  999.7 1024.0 1026.4 1052.5 1054.1 1072.6 1140.5
  1182.0 1202.4 1252.8 1264.2 1332.3 1341.9 1386.9 1387.2 1416.7 1454.3
  1473.6 1481.5 1508.9 1586.8 1612.5 2111.9 3169.2 3169.3 3175.4 3177.9
  3188.4 3189.8 3190.6 3195.9 3201.9 3232.7
 at 99999: n3=          66
 symm operator            1 :  F  nop=           0
 symm operator            2 :  F  nop=           0
 symm operator            3 :  F  nop=           0
 symm operator            4 :  F  nop=           0
 symm operator            5 :  F  nop=           0
 symm operator            6 :  F  nop=           0
 symm operator            7 :  F  nop=           0
 The point group of the molecule is  C1
 Symmetry rotation matrix:
   1.00000   0.00000   0.00000
   0.00000   1.00000   0.00000
   0.00000   0.00000   1.00000

 Projecting out zero-frequency components
 generating redundant internal coords
         300        3600          22
 search for int coords
   1 str   2   1   1.404
   2 str   3   2   1.406
   3 str   4   3   1.428
   4 str   5   4   1.443
   5 str   6   5   1.428
   6 str   7   6   1.406
   7 str   8   7   1.404
   8 str   9   8   1.404
   9 str  10   5   1.428
  10 str  10   9   1.406
  11 str  11   4   1.428
  12 str  12   1   1.404
  13 str  12  11   1.406
  14 str  13   1   1.083
  15 str  14   2   1.084
  16 str  15   3   1.083
  17 str  16   6   1.083
  18 str  17   7   1.084
  19 str  18   8   1.083
  20 str  19   9   1.084
  21 str  20  10   1.083
  22 str  21  11   1.083
  23 str  22  12   1.084
 nber stretches=          23
  24 ben   1   2   3
  25 prop tor   1   2   3   4
  26 prop tor   1   2   3  15
  27 ben   1   2  14
  28 ben   1  12  11
  29 ben   1  12  22
  30 ben   2   1  12
  31 prop tor   2   1  12  11
  32 prop tor   2   1  12  22
  33 ben   2   1  13
  34 ben   2   3   4
  35 prop tor   2   3   4   5
  36 prop tor   2   3   4  11
  37 ben   2   3  15
  38 ben   3   2  14
  39 ben   3   4   5
  40 prop tor   3   4   5   6
  41 prop tor   3   4   5  10
  42 ben   3   4  11
  43 prop tor   3   4  11  12
  44 prop tor   3   4  11  21
  45 ben   4   3  15
  46 ben   4   5   6
  47 prop tor   4   5   6   7
  48 prop tor   4   5   6  16
  49 ben   4   5  10
  50 prop tor   4   5  10   9
  51 prop tor   4   5  10  20
  52 ben   4  11  12
  53 prop tor   4  11  12   1
  54 prop tor   4  11  12  22
  55 ben   4  11  21
  56 ben   5   4  11
  57 prop tor   5   4  11  12
  58 prop tor   5   4  11  21
  59 ben   5   6   7
  60 prop tor   5   6   7   8
  61 prop tor   5   6   7  17
  62 ben   5   6  16
  63 ben   5  10   9
  64 ben   5  10  20
  65 ben   6   5  10
  66 prop tor   6   5  10   9
  67 prop tor   6   5  10  20
  68 ben   6   7   8
  69 prop tor   6   7   8   9
  70 prop tor   6   7   8  18
  71 ben   6   7  17
  72 ben   7   6  16
  73 ben   7   8   9
  74 prop tor   7   8   9  10
  75 prop tor   7   8   9  19
  76 ben   7   8  18
  77 ben   8   7  17
  78 ben   8   9  10
  79 prop tor   8   9  10   5
  80 prop tor   8   9  10  20
  81 ben   8   9  19
  82 ben   9   8  18
  83 ben   9  10  20
  84 prop tor  10   5   6   7
  85 prop tor  10   5   6  16
  86 ben  10   9  19
  87 prop tor  11   4   5   6
  88 prop tor  11   4   5  10
  89 ben  11  12  22
  90 prop tor  12   1   2   3
  91 prop tor  12   1   2  14
  92 ben  12   1  13
  93 ben  12  11  21
  94 prop tor  13   1   2   3
  95 prop tor  13   1   2  14
  96 prop tor  13   1  12  11
  97 prop tor  13   1  12  22
  98 prop tor  14   2   3   4
  99 prop tor  14   2   3  15
 100 prop tor  15   3   4   5
 101 prop tor  15   3   4  11
 102 prop tor  16   6   7   8
 103 prop tor  16   6   7  17
 104 prop tor  17   7   8   9
 105 prop tor  17   7   8  18
 106 prop tor  18   8   9  10
 107 prop tor  18   8   9  19
 108 prop tor  19   9  10   5
 109 prop tor  19   9  10  20
 110 prop tor  21  11  12   1
 111 prop tor  21  11  12  22
 nber bend=              36
 nber lin bend=           0
 nber prop tor=          52
 nber impr tor=           0
 nber tot redund int=         111
 Eigenvalues of G in red int coords
    Gval -0.00000000 -0.00000000 -0.00000000 -0.00000000 -0.00000000 -0.00000000 -0.00000000 -0.00000000
    Gval -0.00000000 -0.00000000 -0.00000000 -0.00000000 -0.00000000 -0.00000000 -0.00000000 -0.00000000
    Gval -0.00000000 -0.00000000 -0.00000000 -0.00000000 -0.00000000 -0.00000000 -0.00000000 -0.00000000
    Gval  0.00000000  0.00000000  0.00000000  0.00000000  0.00000000  0.00000000  0.00000000  0.00000000
    Gval  0.00000000  0.00000000  0.00000000  0.00000000  0.00000000  0.00000000  0.00000000  0.00000000
    Gval  0.00000000  0.00000000  0.00000000  0.00000000  0.00000000  0.00000000  0.00000000  0.00000000
    Gval  0.00000000  0.00000000  0.00000000  0.00000566  0.00000766  0.00001968  0.00003736  0.00004250
    Gval  0.00004396  0.00004897  0.00005560  0.00005724  0.00006656  0.00007258  0.00009710  0.00011061
    Gval  0.00011627  0.00011712  0.00012290  0.00020083  0.00020281  0.00025412  0.00027416  0.00028078
    Gval  0.00034759  0.00037145  0.00040370  0.00050565  0.00055784  0.00059306  0.00059307  0.00059309
    Gval  0.00059350  0.00060385  0.00060425  0.00060473  0.00061835  0.00064361  0.00065711  0.00065927
    Gval  0.00088186  0.00104115  0.00104255  0.00110738  0.00110921  0.00113808  0.00113880  0.00116914
    Gval  0.00117011  0.00117221  0.00117224  0.00139168  0.00142352  0.00164178  0.00197967  0.00232632
    Gval  0.00233990  0.00303065  0.00319999  0.00370273  0.00371546  0.00405706  0.00406383
  5.657826295371229E-006  5.657826295371229E-006
  7.656462063270613E-006  5.657826295371229E-006
  1.967951940316071E-005  5.657826295371229E-006
  3.736002772873060E-005  5.657826295371229E-006
  4.249731310490030E-005  5.657826295371229E-006
  4.395676674726780E-005  5.657826295371229E-006
  4.896549504775256E-005  5.657826295371229E-006
  5.560080506018056E-005  5.657826295371229E-006
  5.724301530948332E-005  5.657826295371229E-006
  6.656040356479774E-005  5.657826295371229E-006
  7.257624561713749E-005  5.657826295371229E-006
  9.710293076235709E-005  5.657826295371229E-006
  1.106147909919097E-004  5.657826295371229E-006
  1.162669641327975E-004  5.657826295371229E-006
  1.171214023924498E-004  5.657826295371229E-006
  1.228990571866085E-004  5.657826295371229E-006
  2.008347053628276E-004  5.657826295371229E-006
  2.028143293043543E-004  5.657826295371229E-006
  2.541222563948254E-004  5.657826295371229E-006
  2.741591507830890E-004  5.657826295371229E-006
  2.807802406443644E-004  5.657826295371229E-006
  3.475859737056923E-004  5.657826295371229E-006
  3.714451213632349E-004  5.657826295371229E-006
  4.036959949278003E-004  5.657826295371229E-006
  5.056456665146871E-004  5.657826295371229E-006
  5.578446990846046E-004  5.657826295371229E-006
  5.930609192698877E-004  5.657826295371229E-006
  5.930709494892762E-004  5.657826295371229E-006
  5.930873811186986E-004  5.657826295371229E-006
  5.934980517655141E-004  5.657826295371229E-006
  6.038470104112342E-004  5.657826295371229E-006
  6.042531668081342E-004  5.657826295371229E-006
  6.047255526715256E-004  5.657826295371229E-006
  6.183516485060852E-004  5.657826295371229E-006
  6.436119465126395E-004  5.657826295371229E-006
  6.571107224827660E-004  5.657826295371229E-006
  6.592700595341227E-004  5.657826295371229E-006
  8.818638445761593E-004  5.657826295371229E-006
  1.041145376079804E-003  5.657826295371229E-006
  1.042553107743997E-003  5.657826295371229E-006
  1.107381701598139E-003  5.657826295371229E-006
  1.109207639626383E-003  5.657826295371229E-006
  1.138077243829211E-003  5.657826295371229E-006
  1.138802147867213E-003  5.657826295371229E-006
  1.169143232248246E-003  5.657826295371229E-006
  1.170107721323964E-003  5.657826295371229E-006
  1.172214867651648E-003  5.657826295371229E-006
  1.172236106864183E-003  5.657826295371229E-006
  1.391679831670092E-003  5.657826295371229E-006
  1.423516075897080E-003  5.657826295371229E-006
  1.641784810493766E-003  5.657826295371229E-006
  1.979672638098677E-003  5.657826295371229E-006
  2.326324286176523E-003  5.657826295371229E-006
  2.339896908467393E-003  5.657826295371229E-006
  3.030653948344828E-003  5.657826295371229E-006
  3.199991940863917E-003  5.657826295371229E-006
  3.702726912110323E-003  5.657826295371229E-006
  3.715464275568911E-003  5.657826295371229E-006
  4.057059826319855E-003  5.657826295371229E-006
  4.063833991299162E-003  5.657826295371229E-006
 cut=1d-8, nber non-redundant internal coords=          60
 Check on Eigenvals of non-red overlap matrix:
  0.00000566  0.00000766  0.00001968  0.00003736  0.00004250  0.00004396  0.00004897  0.00005560
  0.00005724  0.00006656  0.00007258  0.00009710  0.00011061  0.00011627  0.00011712  0.00012290
  0.00020083  0.00020281  0.00025412  0.00027416  0.00028078  0.00034759  0.00037145  0.00040370
  0.00050565  0.00055784  0.00059306  0.00059307  0.00059309  0.00059350  0.00060385  0.00060425
  0.00060473  0.00061835  0.00064361  0.00065711  0.00065927  0.00088186  0.00104115  0.00104255
  0.00110738  0.00110921  0.00113808  0.00113880  0.00116914  0.00117011  0.00117221  0.00117224
  0.00139168  0.00142352  0.00164178  0.00197967  0.00232632  0.00233990  0.00303065  0.00319999
  0.00370273  0.00371546  0.00405706  0.00406383
 Checking for correct frequencies
 recalc frequencies=
    -0.0   -0.0    0.0    0.0    0.0    0.0   75.2   90.0  108.9  226.0
   298.0  340.6  342.1  367.3  470.2  481.4  556.1  589.6  598.3  608.3
   661.6  679.1  686.7  714.9  733.8  753.7  817.7  827.2  875.3  882.2
   903.4  907.8  997.5  999.7 1024.0 1026.4 1052.5 1054.1 1072.6 1140.5
  1182.0 1202.4 1252.8 1264.2 1332.3 1341.9 1386.9 1387.2 1416.7 1454.3
  1473.6 1481.5 1508.9 1586.8 1612.5 2111.9 3169.2 3169.3 3175.4 3177.9
  3188.4 3189.8 3190.6 3195.9 3201.9 3232.7
 recalc symmetries=
                                                                       
                                                                       
                                                                       
                                                                       
                                                                       
                                                                       
                                           
 recalc freqs check OK
 Zero-point lengths:
 10.0000 10.0000 10.0000 10.0000 10.0000 10.0000 28.5805 26.1353 23.7601 16.4923
 14.3622 13.4333 13.4034 12.9363 11.4324 11.2994 10.5132 10.2102 10.1352 10.0517
  9.6384  9.5131  9.4607  9.2720  9.1520  9.0299  8.6697  8.6194  8.3794  8.3467
  8.2480  8.2280  7.8495  7.8409  7.7472  7.7383  7.6416  7.6357  7.5696  7.3409
  7.2109  7.1495  7.0040  6.9724  6.7919  6.7676  6.6570  6.6562  6.5866  6.5008
  6.4581  6.4409  6.3822  6.2235  6.1738  5.3946  4.4037  4.4037  4.3994  4.3977
  4.3905  4.3895  4.3889  4.3853  4.3812  4.3603
 highest evec of mol 2
  0.0714  0.0047 -0.0080
  0.0931 -0.0790  0.0149
 -0.0785 -0.0873  0.0364
 -0.0063 -0.0004  0.0007
 -0.0063 -0.0004  0.0007
 -0.0895  0.0764  0.0377
  0.0821  0.0904  0.0161
  0.0715  0.0047 -0.0080
  0.0876 -0.0791 -0.0350
 -0.0846 -0.0875 -0.0181
 -0.0954  0.0760 -0.0170
  0.0765  0.0904 -0.0339
 -0.2117 -0.0140  0.0237
 -0.1771  0.2468 -0.0604
  0.1254  0.2667 -0.1036
  0.1603 -0.2484 -0.1078
 -0.1436 -0.2674 -0.0640
 -0.2120 -0.0141  0.0237
 -0.1595  0.2470  0.0978
  0.1454  0.2673  0.0731
  0.1793 -0.2471  0.0697
 -0.1259 -0.2672  0.0944
 Enter nber and list of atoms to keep of mol #2
 keep list:          22           1           2           3           4
           5           6           7           8           9          10
          11          12          13          14          15          16
          17          18          19          20          21          22
 reordering atoms
           1   3.58431955233020     
           2   2.87411415506980     
           3   1.46794358730778     
           4  0.721367868384790     
           5 -0.721320835036361     
           6  -1.46789794185183     
           7  -2.87412786647058     
           8  -3.58436425476824     
           9  -2.87416049718253     
          10  -1.46792697349981     
          11   1.46793978572512     
          12   2.87411341999166     
          13   4.66729689788675     
          14   3.40944865977172     
          15  0.942867500818637     
          16 -0.942803917167055     
          17  -3.40945521438416     
          18  -4.66734039650103     
          19  -3.40952114964505     
          20 -0.942857098943186     
          21  0.942837333902633     
          22   3.40945272278599     
           1           1
           2           2
           3           3
           4           4
           5           5
           6           6
           7           7
           8           8
           9           9
          10          10
          11          11
          12          12
          13          13
          14          14
          15          15
          16          16
          17          17
          18          18
          19          19
          20          20
          21          21
          22          22
 initial cartes coords mol 1
   6  -0.00012   0.00007   3.55789
   6   0.41615  -1.12899   2.85561
   6   0.41622  -1.12882   1.46393
   6   0.00009  -0.00005   0.74278
   6   0.00011  -0.00007  -0.74279
   6  -0.41609  -1.12886  -1.46388
   6  -0.41625  -1.12902  -2.85555
   6  -0.00013   0.00006  -3.55788
   6   0.41617   1.12905  -2.85552
   6   0.41626   1.12875  -1.46384
   6  -0.41614   1.12878   1.46379
   6  -0.41627   1.12908   2.85546
   1  -0.00019   0.00011   4.64199
   1   0.75019  -2.01004   3.39244
   1   0.76600  -2.00388   0.92801
   1  -0.76578  -2.00393  -0.92790
   1  -0.75038  -2.01006  -3.39234
   1  -0.00025   0.00012  -4.64199
   1   0.75021   2.01014  -3.39228
   1   0.76608   2.00375  -0.92784
   1  -0.76582   2.00381   0.92773
   1  -0.75037   2.01018   3.39217
 initial cartes coords mol 2
   6  -0.00005  -0.00001   3.58432
   6   0.32811  -1.16558   2.87411
   6   0.33362  -1.17084   1.46794
   6   0.00004   0.00001   0.72137
   6   0.00003   0.00001  -0.72132
   6  -0.33359  -1.17085  -1.46790
   6  -0.32814  -1.16560  -2.87413
   6  -0.00003  -0.00002  -3.58436
   6   0.32811   1.16557  -2.87416
   6   0.33360   1.17088  -1.46793
   6  -0.33356   1.17087   1.46794
   6  -0.32815   1.16557   2.87411
   1  -0.00008  -0.00002   4.66730
   1   0.60809  -2.06536   3.40945
   1   0.65831  -2.06025   0.94287
   1  -0.65827  -2.06025  -0.94280
   1  -0.60810  -2.06539  -3.40946
   1  -0.00006  -0.00003  -4.66734
   1   0.60805   2.06535  -3.40952
   1   0.65822   2.06031  -0.94286
   1  -0.65820   2.06028   0.94284
   1  -0.60817   2.06534   3.40945
 loop 1 0
 mod cartes coords mol 2
   6  -0.00005  -0.00001   3.58432
   6   0.32811  -1.16558   2.87411
   6   0.33362  -1.17084   1.46794
   6   0.00004   0.00001   0.72137
   6   0.00003   0.00001  -0.72132
   6  -0.33359  -1.17085  -1.46790
   6  -0.32814  -1.16560  -2.87413
   6  -0.00003  -0.00002  -3.58436
   6   0.32811   1.16557  -2.87416
   6   0.33360   1.17088  -1.46793
   6  -0.33356   1.17087   1.46794
   6  -0.32815   1.16557   2.87411
   1  -0.00008  -0.00002   4.66730
   1   0.60809  -2.06536   3.40945
   1   0.65831  -2.06025   0.94287
   1  -0.65827  -2.06025  -0.94280
   1  -0.60810  -2.06539  -3.40946
   1  -0.00006  -0.00003  -4.66734
   1   0.60805   2.06535  -3.40952
   1   0.65822   2.06031  -0.94286
   1  -0.65820   2.06028   0.94284
   1  -0.60817   2.06534   3.40945
 read in order, maxerr=  0.15 for atom  17
 final axis swaps:           1           1           1
 final xyz swap pattern=           1
 reorder list:
   1   2   3   4   5   6   7   8   9  10  11  12  13  14  15  16  17  18  19  20
  21  22
 axis signs=           1           1           1
  6    -0.000047 -0.000013  3.584320    -0.000115  0.000069  3.557890
  6     0.328114 -1.165577  2.874114     0.416152 -1.128990  2.855612
  6     0.333620 -1.170842  1.467944     0.416221 -1.128815  1.463931
  6     0.000041  0.000014  0.721368     0.000086 -0.000046  0.742780
  6     0.000035  0.000010 -0.721321     0.000112 -0.000071 -0.742787
  6    -0.333594 -1.170853 -1.467898    -0.416093 -1.128856 -1.463877
  6    -0.328142 -1.165600 -2.874128    -0.416252 -1.129016 -2.855555
  6    -0.000028 -0.000020 -3.584364    -0.000128  0.000060 -3.557883
  6     0.328110  1.165569 -2.874160     0.416171  1.129053 -2.855518
  6     0.333596  1.170875 -1.467927     0.416256  1.128750 -1.463842
  6    -0.333557  1.170867  1.467940    -0.416139  1.128785  1.463785
  6    -0.328147  1.165569  2.874113    -0.416271  1.129078  2.855463
  1    -0.000085 -0.000023  4.667297    -0.000194  0.000108  4.641994
  1     0.608088 -2.065362  3.409449     0.750191 -2.010040  3.392437
  1     0.658313 -2.060248  0.942868     0.766003 -2.003879  0.928007
  1    -0.658271 -2.060249 -0.942804    -0.765783 -2.003929 -0.927902
  1    -0.608105 -2.065391 -3.409455    -0.750380 -2.010057 -3.392338
  1    -0.000055 -0.000026 -4.667340    -0.000250  0.000120 -4.641987
  1     0.608047  2.065350 -3.409521     0.750213  2.010143 -3.392275
  1     0.658218  2.060306 -0.942857     0.766077  2.003749 -0.927838
  1    -0.658205  2.060276  0.942837    -0.765824  2.003811  0.927734
  1    -0.608165  2.065336  3.409453    -0.750370  2.010175  3.392174
 generating redundant internal coords
         300        3600          22
 Adding extra bonds for z output only
           6           6           6           6           6           6
           6           6           6           6           6           6
           1           1           1           1           1           1
           1           1           1           1
 search for int coords
   1 str   2   1   1.404
   2 str   3   2   1.406
   3 str   4   3   1.428
   4 str   5   4   1.443
   5 str   6   5   1.428
   6 str   7   6   1.406
   7 str   8   7   1.404
   8 str   9   8   1.404
   9 str  10   5   1.428
  10 str  10   9   1.406
  11 str  11   4   1.428
  12 str  12   1   1.404
  13 str  12  11   1.406
  14 str  13   1   1.083
  15 str  14   2   1.084
  16 str  15   3   1.083
  17 str  16   6   1.083
  18 str  17   7   1.084
  19 str  18   8   1.083
  20 str  19   9   1.084
  21 str  20  10   1.083
  22 str  21  11   1.083
  23 str  22  12   1.084
 nber stretches=          23
  24 ben   1   2   3
  25 prop tor   1   2   3   4
  26 prop tor   1   2   3  15
  27 ben   1   2  14
  28 ben   1  12  11
  29 ben   1  12  22
  30 ben   2   1  12
  31 prop tor   2   1  12  11
  32 prop tor   2   1  12  22
  33 ben   2   1  13
  34 ben   2   3   4
  35 prop tor   2   3   4   5
  36 prop tor   2   3   4  11
  37 ben   2   3  15
  38 ben   3   2  14
  39 ben   3   4   5
  40 prop tor   3   4   5   6
  41 prop tor   3   4   5  10
  42 ben   3   4  11
  43 prop tor   3   4  11  12
  44 prop tor   3   4  11  21
  45 ben   4   3  15
  46 ben   4   5   6
  47 prop tor   4   5   6   7
  48 prop tor   4   5   6  16
  49 ben   4   5  10
  50 prop tor   4   5  10   9
  51 prop tor   4   5  10  20
  52 ben   4  11  12
  53 prop tor   4  11  12   1
  54 prop tor   4  11  12  22
  55 ben   4  11  21
  56 ben   5   4  11
  57 prop tor   5   4  11  12
  58 prop tor   5   4  11  21
  59 ben   5   6   7
  60 prop tor   5   6   7   8
  61 prop tor   5   6   7  17
  62 ben   5   6  16
  63 ben   5  10   9
  64 ben   5  10  20
  65 ben   6   5  10
  66 prop tor   6   5  10   9
  67 prop tor   6   5  10  20
  68 ben   6   7   8
  69 prop tor   6   7   8   9
  70 prop tor   6   7   8  18
  71 ben   6   7  17
  72 ben   7   6  16
  73 ben   7   8   9
  74 prop tor   7   8   9  10
  75 prop tor   7   8   9  19
  76 ben   7   8  18
  77 ben   8   7  17
  78 ben   8   9  10
  79 prop tor   8   9  10   5
  80 prop tor   8   9  10  20
  81 ben   8   9  19
  82 ben   9   8  18
  83 ben   9  10  20
  84 prop tor  10   5   6   7
  85 prop tor  10   5   6  16
  86 ben  10   9  19
  87 prop tor  11   4   5   6
  88 prop tor  11   4   5  10
  89 ben  11  12  22
  90 prop tor  12   1   2   3
  91 prop tor  12   1   2  14
  92 ben  12   1  13
  93 ben  12  11  21
  94 prop tor  13   1   2   3
  95 prop tor  13   1   2  14
  96 prop tor  13   1  12  11
  97 prop tor  13   1  12  22
  98 prop tor  14   2   3   4
  99 prop tor  14   2   3  15
 100 prop tor  15   3   4   5
 101 prop tor  15   3   4  11
 102 prop tor  16   6   7   8
 103 prop tor  16   6   7  17
 104 prop tor  17   7   8   9
 105 prop tor  17   7   8  18
 106 prop tor  18   8   9  10
 107 prop tor  18   8   9  19
 108 prop tor  19   9  10   5
 109 prop tor  19   9  10  20
 110 prop tor  21  11  12   1
 111 prop tor  21  11  12  22
 nber bend=              36
 nber lin bend=           0
 nber prop tor=          52
 nber impr tor=           0
 nber tot redund int=         111
 generating redundant internal coords
         300        3600          22
 search for int coords
   1 str   2   1   1.393
   2 str   3   2   1.392
   3 str   4   3   1.403
   4 str   5   4   1.486
   5 str   6   5   1.403
   6 str   7   6   1.392
   7 str   8   7   1.393
   8 str   9   8   1.393
   9 str  10   5   1.403
  10 str  10   9   1.392
  11 str  11   4   1.403
  12 str  12   1   1.393
  13 str  12  11   1.392
  14 str  13   1   1.084
  15 str  14   2   1.084
  16 str  15   3   1.084
  17 str  16   6   1.084
  18 str  17   7   1.084
  19 str  18   8   1.084
  20 str  19   9   1.084
  21 str  20  10   1.084
  22 str  21  11   1.084
  23 str  22  12   1.084
 nber stretches=          23
  24 ben   1   2   3
  25 prop tor   1   2   3   4
  26 prop tor   1   2   3  15
  27 ben   1   2  14
  28 ben   1  12  11
  29 ben   1  12  22
  30 ben   2   1  12
  31 prop tor   2   1  12  11
  32 prop tor   2   1  12  22
  33 ben   2   1  13
  34 ben   2   3   4
  35 prop tor   2   3   4   5
  36 prop tor   2   3   4  11
  37 ben   2   3  15
  38 ben   3   2  14
  39 ben   3   4   5
  40 prop tor   3   4   5   6
  41 prop tor   3   4   5  10
  42 ben   3   4  11
  43 prop tor   3   4  11  12
  44 prop tor   3   4  11  21
  45 ben   4   3  15
  46 ben   4   5   6
  47 prop tor   4   5   6   7
  48 prop tor   4   5   6  16
  49 ben   4   5  10
  50 prop tor   4   5  10   9
  51 prop tor   4   5  10  20
  52 ben   4  11  12
  53 prop tor   4  11  12   1
  54 prop tor   4  11  12  22
  55 ben   4  11  21
  56 ben   5   4  11
  57 prop tor   5   4  11  12
  58 prop tor   5   4  11  21
  59 ben   5   6   7
  60 prop tor   5   6   7   8
  61 prop tor   5   6   7  17
  62 ben   5   6  16
  63 ben   5  10   9
  64 ben   5  10  20
  65 ben   6   5  10
  66 prop tor   6   5  10   9
  67 prop tor   6   5  10  20
  68 ben   6   7   8
  69 prop tor   6   7   8   9
  70 prop tor   6   7   8  18
  71 ben   6   7  17
  72 ben   7   6  16
  73 ben   7   8   9
  74 prop tor   7   8   9  10
  75 prop tor   7   8   9  19
  76 ben   7   8  18
  77 ben   8   7  17
  78 ben   8   9  10
  79 prop tor   8   9  10   5
  80 prop tor   8   9  10  20
  81 ben   8   9  19
  82 ben   9   8  18
  83 ben   9  10  20
  84 prop tor  10   5   6   7
  85 prop tor  10   5   6  16
  86 ben  10   9  19
  87 prop tor  11   4   5   6
  88 prop tor  11   4   5  10
  89 ben  11  12  22
  90 prop tor  12   1   2   3
  91 prop tor  12   1   2  14
  92 ben  12   1  13
  93 ben  12  11  21
  94 prop tor  13   1   2   3
  95 prop tor  13   1   2  14
  96 prop tor  13   1  12  11
  97 prop tor  13   1  12  22
  98 prop tor  14   2   3   4
  99 prop tor  14   2   3  15
 100 prop tor  15   3   4   5
 101 prop tor  15   3   4  11
 102 prop tor  16   6   7   8
 103 prop tor  16   6   7  17
 104 prop tor  17   7   8   9
 105 prop tor  17   7   8  18
 106 prop tor  18   8   9  10
 107 prop tor  18   8   9  19
 108 prop tor  19   9  10   5
 109 prop tor  19   9  10  20
 110 prop tor  21  11  12   1
 111 prop tor  21  11  12  22
 nber bend=              36
 nber lin bend=           0
 nber prop tor=          52
 nber impr tor=           0
 nber tot redund int=         111
 Eigenvalues of G in red int coords
    Gval -0.00000000 -0.00000000 -0.00000000 -0.00000000 -0.00000000 -0.00000000 -0.00000000 -0.00000000
    Gval -0.00000000 -0.00000000 -0.00000000 -0.00000000 -0.00000000 -0.00000000 -0.00000000 -0.00000000
    Gval -0.00000000 -0.00000000 -0.00000000 -0.00000000 -0.00000000 -0.00000000 -0.00000000  0.00000000
    Gval  0.00000000  0.00000000  0.00000000  0.00000000  0.00000000  0.00000000  0.00000000  0.00000000
    Gval  0.00000000  0.00000000  0.00000000  0.00000000  0.00000000  0.00000000  0.00000000  0.00000000
    Gval  0.00000000  0.00000000  0.00000000  0.00000000  0.00000000  0.00000000  0.00000000  0.00000000
    Gval  0.00000000  0.00000000  0.00000000  0.00000605  0.00000771  0.00001782  0.00003848  0.00004249
    Gval  0.00004460  0.00004903  0.00005497  0.00005741  0.00006670  0.00007566  0.00009757  0.00010945
    Gval  0.00011643  0.00011743  0.00012122  0.00020414  0.00020456  0.00025884  0.00027783  0.00029010
    Gval  0.00035497  0.00037958  0.00039421  0.00050847  0.00056272  0.00059306  0.00059307  0.00059316
    Gval  0.00059336  0.00060418  0.00060470  0.00061529  0.00061942  0.00065979  0.00066187  0.00066499
    Gval  0.00087226  0.00103892  0.00104072  0.00110767  0.00110968  0.00113674  0.00113765  0.00116939
    Gval  0.00117036  0.00117225  0.00117225  0.00141985  0.00143463  0.00166030  0.00195644  0.00233280
    Gval  0.00234689  0.00304220  0.00318412  0.00372459  0.00373783  0.00406424  0.00407023
  6.047653422473906E-006  6.047653422473906E-006
  7.707637185918045E-006  6.047653422473906E-006
  1.781595298236525E-005  6.047653422473906E-006
  3.847996650803073E-005  6.047653422473906E-006
  4.249180995779406E-005  6.047653422473906E-006
  4.460149449883462E-005  6.047653422473906E-006
  4.902539246616455E-005  6.047653422473906E-006
  5.497286815683211E-005  6.047653422473906E-006
  5.740790428997780E-005  6.047653422473906E-006
  6.669597261314935E-005  6.047653422473906E-006
  7.566324577659168E-005  6.047653422473906E-006
  9.756953314073006E-005  6.047653422473906E-006
  1.094522645748333E-004  6.047653422473906E-006
  1.164314710903552E-004  6.047653422473906E-006
  1.174284773541524E-004  6.047653422473906E-006
  1.212188631624810E-004  6.047653422473906E-006
  2.041415575232356E-004  6.047653422473906E-006
  2.045593894695034E-004  6.047653422473906E-006
  2.588447454977970E-004  6.047653422473906E-006
  2.778310341613541E-004  6.047653422473906E-006
  2.900996184655558E-004  6.047653422473906E-006
  3.549674626253298E-004  6.047653422473906E-006
  3.795791887306684E-004  6.047653422473906E-006
  3.942076940315026E-004  6.047653422473906E-006
  5.084673832669673E-004  6.047653422473906E-006
  5.627235603058713E-004  6.047653422473906E-006
  5.930570121571466E-004  6.047653422473906E-006
  5.930668909703735E-004  6.047653422473906E-006
  5.931622554389041E-004  6.047653422473906E-006
  5.933602609737830E-004  6.047653422473906E-006
  6.041764515932845E-004  6.047653422473906E-006
  6.047024019014885E-004  6.047653422473906E-006
  6.152851029966920E-004  6.047653422473906E-006
  6.194213697674099E-004  6.047653422473906E-006
  6.597938885415417E-004  6.047653422473906E-006
  6.618746166099703E-004  6.047653422473906E-006
  6.649880276436654E-004  6.047653422473906E-006
  8.722605415266305E-004  6.047653422473906E-006
  1.038923491944304E-003  6.047653422473906E-006
  1.040720072469979E-003  6.047653422473906E-006
  1.107671782070848E-003  6.047653422473906E-006
  1.109677154452375E-003  6.047653422473906E-006
  1.136738269945943E-003  6.047653422473906E-006
  1.137653296647019E-003  6.047653422473906E-006
  1.169387955479445E-003  6.047653422473906E-006
  1.170356352755246E-003  6.047653422473906E-006
  1.172249912371744E-003  6.047653422473906E-006
  1.172253541908899E-003  6.047653422473906E-006
  1.419847197487913E-003  6.047653422473906E-006
  1.434625174901159E-003  6.047653422473906E-006
  1.660295008333952E-003  6.047653422473906E-006
  1.956444527368217E-003  6.047653422473906E-006
  2.332800223838378E-003  6.047653422473906E-006
  2.346886668716505E-003  6.047653422473906E-006
  3.042204212651786E-003  6.047653422473906E-006
  3.184116581565503E-003  6.047653422473906E-006
  3.724585855414125E-003  6.047653422473906E-006
  3.737834498839861E-003  6.047653422473906E-006
  4.064241845761009E-003  6.047653422473906E-006
  4.070226222690491E-003  6.047653422473906E-006
 cut=1d-8, nber non-redundant internal coords=          60
 Check on Eigenvals of non-red overlap matrix:
  0.00000605  0.00000771  0.00001782  0.00003848  0.00004249  0.00004460  0.00004903  0.00005497
  0.00005741  0.00006670  0.00007566  0.00009757  0.00010945  0.00011643  0.00011743  0.00012122
  0.00020414  0.00020456  0.00025884  0.00027783  0.00029010  0.00035497  0.00037958  0.00039421
  0.00050847  0.00056272  0.00059306  0.00059307  0.00059316  0.00059336  0.00060418  0.00060470
  0.00061529  0.00061942  0.00065979  0.00066187  0.00066499  0.00087226  0.00103892  0.00104072
  0.00110767  0.00110968  0.00113674  0.00113765  0.00116939  0.00117036  0.00117225  0.00117225
  0.00141985  0.00143463  0.00166030  0.00195644  0.00233280  0.00234689  0.00304220  0.00318412
  0.00372459  0.00373783  0.00406424  0.00407023
 generating redundant internal coords
         300        3600          22
 search for int coords
   1 str   2   1   1.404
   2 str   3   2   1.406
   3 str   4   3   1.428
   4 str   5   4   1.443
   5 str   6   5   1.428
   6 str   7   6   1.406
   7 str   8   7   1.404
   8 str   9   8   1.404
   9 str  10   5   1.428
  10 str  10   9   1.406
  11 str  11   4   1.428
  12 str  12   1   1.404
  13 str  12  11   1.406
  14 str  13   1   1.083
  15 str  14   2   1.084
  16 str  15   3   1.083
  17 str  16   6   1.083
  18 str  17   7   1.084
  19 str  18   8   1.083
  20 str  19   9   1.084
  21 str  20  10   1.083
  22 str  21  11   1.083
  23 str  22  12   1.084
 nber stretches=          23
  24 ben   1   2   3
  25 prop tor   1   2   3   4
  26 prop tor   1   2   3  15
  27 ben   1   2  14
  28 ben   1  12  11
  29 ben   1  12  22
  30 ben   2   1  12
  31 prop tor   2   1  12  11
  32 prop tor   2   1  12  22
  33 ben   2   1  13
  34 ben   2   3   4
  35 prop tor   2   3   4   5
  36 prop tor   2   3   4  11
  37 ben   2   3  15
  38 ben   3   2  14
  39 ben   3   4   5
  40 prop tor   3   4   5   6
  41 prop tor   3   4   5  10
  42 ben   3   4  11
  43 prop tor   3   4  11  12
  44 prop tor   3   4  11  21
  45 ben   4   3  15
  46 ben   4   5   6
  47 prop tor   4   5   6   7
  48 prop tor   4   5   6  16
  49 ben   4   5  10
  50 prop tor   4   5  10   9
  51 prop tor   4   5  10  20
  52 ben   4  11  12
  53 prop tor   4  11  12   1
  54 prop tor   4  11  12  22
  55 ben   4  11  21
  56 ben   5   4  11
  57 prop tor   5   4  11  12
  58 prop tor   5   4  11  21
  59 ben   5   6   7
  60 prop tor   5   6   7   8
  61 prop tor   5   6   7  17
  62 ben   5   6  16
  63 ben   5  10   9
  64 ben   5  10  20
  65 ben   6   5  10
  66 prop tor   6   5  10   9
  67 prop tor   6   5  10  20
  68 ben   6   7   8
  69 prop tor   6   7   8   9
  70 prop tor   6   7   8  18
  71 ben   6   7  17
  72 ben   7   6  16
  73 ben   7   8   9
  74 prop tor   7   8   9  10
  75 prop tor   7   8   9  19
  76 ben   7   8  18
  77 ben   8   7  17
  78 ben   8   9  10
  79 prop tor   8   9  10   5
  80 prop tor   8   9  10  20
  81 ben   8   9  19
  82 ben   9   8  18
  83 ben   9  10  20
  84 prop tor  10   5   6   7
  85 prop tor  10   5   6  16
  86 ben  10   9  19
  87 prop tor  11   4   5   6
  88 prop tor  11   4   5  10
  89 ben  11  12  22
  90 prop tor  12   1   2   3
  91 prop tor  12   1   2  14
  92 ben  12   1  13
  93 ben  12  11  21
  94 prop tor  13   1   2   3
  95 prop tor  13   1   2  14
  96 prop tor  13   1  12  11
  97 prop tor  13   1  12  22
  98 prop tor  14   2   3   4
  99 prop tor  14   2   3  15
 100 prop tor  15   3   4   5
 101 prop tor  15   3   4  11
 102 prop tor  16   6   7   8
 103 prop tor  16   6   7  17
 104 prop tor  17   7   8   9
 105 prop tor  17   7   8  18
 106 prop tor  18   8   9  10
 107 prop tor  18   8   9  19
 108 prop tor  19   9  10   5
 109 prop tor  19   9  10  20
 110 prop tor  21  11  12   1
 111 prop tor  21  11  12  22
 nber bend=              36
 nber lin bend=           0
 nber prop tor=          52
 nber impr tor=           0
 nber tot redund int=         111
 Eigenvalues of G in red int coords
    Gval -0.00000000 -0.00000000 -0.00000000 -0.00000000 -0.00000000 -0.00000000 -0.00000000 -0.00000000
    Gval -0.00000000 -0.00000000 -0.00000000 -0.00000000 -0.00000000 -0.00000000 -0.00000000 -0.00000000
    Gval -0.00000000 -0.00000000 -0.00000000 -0.00000000 -0.00000000 -0.00000000  0.00000000  0.00000000
    Gval  0.00000000  0.00000000  0.00000000  0.00000000  0.00000000  0.00000000  0.00000000  0.00000000
    Gval  0.00000000  0.00000000  0.00000000  0.00000000  0.00000000  0.00000000  0.00000000  0.00000000
    Gval  0.00000000  0.00000000  0.00000000  0.00000000  0.00000000  0.00000000  0.00000000  0.00000000
    Gval  0.00000000  0.00000000  0.00000000  0.00000566  0.00000766  0.00001968  0.00003736  0.00004250
    Gval  0.00004396  0.00004897  0.00005560  0.00005724  0.00006656  0.00007258  0.00009710  0.00011061
    Gval  0.00011627  0.00011712  0.00012290  0.00020083  0.00020281  0.00025412  0.00027416  0.00028078
    Gval  0.00034759  0.00037145  0.00040370  0.00050565  0.00055784  0.00059306  0.00059307  0.00059309
    Gval  0.00059350  0.00060385  0.00060425  0.00060473  0.00061835  0.00064361  0.00065711  0.00065927
    Gval  0.00088186  0.00104115  0.00104255  0.00110738  0.00110921  0.00113808  0.00113880  0.00116914
    Gval  0.00117011  0.00117221  0.00117224  0.00139168  0.00142352  0.00164178  0.00197967  0.00232632
    Gval  0.00233990  0.00303065  0.00319999  0.00370273  0.00371546  0.00405706  0.00406383
  5.657826295371791E-006  5.657826295371791E-006
  7.656462063270703E-006  5.657826295371791E-006
  1.967951940316084E-005  5.657826295371791E-006
  3.736002772873032E-005  5.657826295371791E-006
  4.249731310490042E-005  5.657826295371791E-006
  4.395676674726792E-005  5.657826295371791E-006
  4.896549504775256E-005  5.657826295371791E-006
  5.560080506018031E-005  5.657826295371791E-006
  5.724301530948297E-005  5.657826295371791E-006
  6.656040356479793E-005  5.657826295371791E-006
  7.257624561713751E-005  5.657826295371791E-006
  9.710293076235661E-005  5.657826295371791E-006
  1.106147909919099E-004  5.657826295371791E-006
  1.162669641327971E-004  5.657826295371791E-006
  1.171214023924499E-004  5.657826295371791E-006
  1.228990571866084E-004  5.657826295371791E-006
  2.008347053628279E-004  5.657826295371791E-006
  2.028143293043543E-004  5.657826295371791E-006
  2.541222563948257E-004  5.657826295371791E-006
  2.741591507830891E-004  5.657826295371791E-006
  2.807802406443645E-004  5.657826295371791E-006
  3.475859737056921E-004  5.657826295371791E-006
  3.714451213632345E-004  5.657826295371791E-006
  4.036959949278002E-004  5.657826295371791E-006
  5.056456665146867E-004  5.657826295371791E-006
  5.578446990846052E-004  5.657826295371791E-006
  5.930609192698878E-004  5.657826295371791E-006
  5.930709494892762E-004  5.657826295371791E-006
  5.930873811186985E-004  5.657826295371791E-006
  5.934980517655142E-004  5.657826295371791E-006
  6.038470104112344E-004  5.657826295371791E-006
  6.042531668081339E-004  5.657826295371791E-006
  6.047255526715254E-004  5.657826295371791E-006
  6.183516485060854E-004  5.657826295371791E-006
  6.436119465126403E-004  5.657826295371791E-006
  6.571107224827680E-004  5.657826295371791E-006
  6.592700595341230E-004  5.657826295371791E-006
  8.818638445761586E-004  5.657826295371791E-006
  1.041145376079801E-003  5.657826295371791E-006
  1.042553107743995E-003  5.657826295371791E-006
  1.107381701598137E-003  5.657826295371791E-006
  1.109207639626381E-003  5.657826295371791E-006
  1.138077243829210E-003  5.657826295371791E-006
  1.138802147867211E-003  5.657826295371791E-006
  1.169143232248244E-003  5.657826295371791E-006
  1.170107721323962E-003  5.657826295371791E-006
  1.172214867651650E-003  5.657826295371791E-006
  1.172236106864183E-003  5.657826295371791E-006
  1.391679831670092E-003  5.657826295371791E-006
  1.423516075897082E-003  5.657826295371791E-006
  1.641784810493764E-003  5.657826295371791E-006
  1.979672638098669E-003  5.657826295371791E-006
  2.326324286176524E-003  5.657826295371791E-006
  2.339896908467393E-003  5.657826295371791E-006
  3.030653948344827E-003  5.657826295371791E-006
  3.199991940863914E-003  5.657826295371791E-006
  3.702726912110313E-003  5.657826295371791E-006
  3.715464275568901E-003  5.657826295371791E-006
  4.057059826319854E-003  5.657826295371791E-006
  4.063833991299160E-003  5.657826295371791E-006
 cut=1d-8, nber non-redundant internal coords=          60
 Check on Eigenvals of non-red overlap matrix:
  0.00000566  0.00000766  0.00001968  0.00003736  0.00004250  0.00004396  0.00004897  0.00005560
  0.00005724  0.00006656  0.00007258  0.00009710  0.00011061  0.00011627  0.00011712  0.00012290
  0.00020083  0.00020281  0.00025412  0.00027416  0.00028078  0.00034759  0.00037145  0.00040370
  0.00050565  0.00055784  0.00059306  0.00059307  0.00059309  0.00059350  0.00060385  0.00060425
  0.00060473  0.00061835  0.00064361  0.00065711  0.00065927  0.00088186  0.00104115  0.00104255
  0.00110738  0.00110921  0.00113808  0.00113880  0.00116914  0.00117011  0.00117221  0.00117224
  0.00139168  0.00142352  0.00164178  0.00197967  0.00232632  0.00233990  0.00303065  0.00319999
  0.00370273  0.00371546  0.00405706  0.00406383
 d1=
  -0.0   6.9   0.0  -0.0   0.0 -42.0  -5.3   0.0   0.0  -3.1  -0.0  -0.0  -0.0  -3.8   0.0   0.0   0.0  -0.0   0.0   2.7
  -0.0   0.0  -1.8   0.0  -0.0  -2.4  -0.0   0.2   0.0  -0.0   0.0   0.4   0.0   0.0  -0.0  -0.2   0.0   0.0   0.0  -0.0
   0.0  -0.0  -0.0  -0.0  -0.0   0.2   0.0  -0.0   0.0   0.0  -0.0  -0.0   0.0   3.7  -0.0   0.0   0.0   1.7  -0.0  -0.0
 d2=
   0.0  -7.0   0.0  -0.0   0.0 -42.4  -5.0   0.0   0.0   3.0  -0.0  -0.0  -0.0   3.8  -0.0  -0.0   0.0  -0.0   0.0   2.8
  -0.0  -0.0   1.7   0.0   0.0   2.3   0.0  -0.2  -0.0   0.0  -0.0  -0.0   0.5  -0.0  -0.0  -0.0  -0.3  -0.0   0.0   0.0
   0.0  -0.1  -0.0   0.0   0.0  -0.1   0.0   0.0   0.0   0.0  -0.0   0.0  -0.0  -3.7   0.0  -0.0   0.0  -1.7   0.0   0.0
 curvilinear- renormalizn of Dush matrix done
  mol 1 sym            1  -> mol 2 sym            1

 Dushinsky matrix, ncs 2 in terms of ncs 1

   mode   freq    coeff     %      %tot     of    at

   1        -0.  0.0000     0.0     0.0   7        66.
   2        -0.  0.0000     0.0     0.0   9       126.
   3         0.  0.0000     0.0     0.0   9       126.
   4         0. -0.0000     0.0     0.0   7        66.
   5         0.  0.0000     0.0     0.0   7        66.
   6         0. -0.0000     0.0     0.0   8        95.
   7        75.  0.9966    99.3    98.4   7        66.
   8        90. -0.9983    99.7    97.7   8        95.
   9       109. -0.9788    95.8   107.9   9       126.
  10       226.  0.9947    98.9    89.9  10       268.
  11       298. -0.9767    95.4    98.4  11       313.
  12       341. -0.9994    99.9    99.6  13       414.
  13       342.  0.9577    91.7   106.0  12       369.
  14       367. -0.9818    96.4    99.3  14       421.
  15       470.  0.9262    85.8    99.9  15       503.
  16       481.  0.9641    93.0   104.3  16       559.
  17       556. -0.9895    97.9    97.1  17       626.
  18       590.  0.3594    12.9   104.5  19       641.
                -0.8038    64.6          20       713.
  19       598.  0.8569    73.4    97.1  21       716.
                 0.3668    13.5          22       756.
  20       608.  0.9227    85.1    99.0  19       641.
                 0.3421    11.7          20       713.
  21       662. -0.9064    82.2    99.9  18       629.
                -0.3591    12.9          21       716.
  22       679. -0.3454    11.9    99.5  21       716.
                 0.9119    83.2          22       756.
  23       687. -0.3876    15.0   103.3  20       713.
                 0.8931    79.8          24       798.
  24       715. -0.9955    99.1    98.7  23       757.
  25       734.  0.9727    94.6    99.7  25       857.
  26       754. -0.9808    96.2    99.9  26       857.
  27       818. -0.9855    97.1    99.0  27       923.
  28       827. -0.9494    90.1   104.5  28       942.
  29       875. -0.9880    97.6    99.3  29       981.
  30       882. -0.9887    97.8    99.3  30       982.
  31       903. -0.9097    82.8   100.0  31      1002.
                -0.3539    12.5          32      1002.
  32       908.  0.3590    12.9    99.7  31      1002.
                -0.9212    84.9          32      1002.
  33       997. -0.9844    96.9    98.6  34      1018.
  34      1000.  0.6852    47.0    98.7  33      1012.
                 0.6138    37.7          35      1026.
                -0.3383    11.4          37      1067.
  35      1024. -0.9844    96.9    99.6  36      1053.
  36      1026. -0.4635    21.5    99.3  35      1026.
                -0.8727    76.2          37      1067.
  37      1052.  0.5513    30.4   100.2  33      1012.
                -0.5657    32.0          35      1026.
                 0.3523    12.4          37      1067.
                 0.4396    19.3          42      1202.
  38      1054. -0.9900    98.0    99.6  38      1101.
  39      1073.  0.9909    98.2   100.4  39      1106.
  40      1140.  0.8476    71.8   100.3  41      1183.
                 0.4045    16.4          44      1297.
  41      1182. -0.9878    97.6   100.4  40      1182.
  42      1202.  0.9988    99.8   100.4  43      1208.
  43      1253.  0.5072    25.7   100.6  41      1183.
                -0.6570    43.2          44      1297.
                 0.3639    13.2          48      1358.
  44      1264.  0.3226    10.4   100.0  33      1012.
                -0.8493    72.1          42      1202.
                 0.3678    13.5          56      1646.
  45      1332. -0.9944    98.9    99.9  45      1302.
  46      1342. -0.9561    91.4   101.5  47      1355.
  47      1387.  0.3877    15.0   100.6  46      1327.
                -0.8158    66.6          48      1358.
  48      1387. -0.8538    72.9   102.4  46      1327.
                -0.3614    13.1          48      1358.
  49      1417. -0.5753    33.1    99.9  44      1297.
                -0.7016    49.2          49      1462.
                 0.3555    12.6          53      1610.
  50      1454. -0.9842    96.9   100.7  50      1490.
  51      1474.  0.5264    27.7    99.8  49      1462.
                 0.8197    67.2          53      1610.
  52      1481.  0.9967    99.4    99.5  51      1516.
  53      1509.  0.9947    98.9    99.5  52      1538.
  54      1587. -0.9842    96.9   102.3  54      1626.
  55      1612.  0.9949    99.0   100.0  55      1643.
  56      2112. -0.3318    11.0   100.0  33      1012.
                 0.8875    78.8          56      1646.
  57      3169.  0.8653    74.9   100.0  57      3158.
                 0.4951    24.5          58      3159.
  58      3169.  0.5002    25.0   100.0  57      3158.
                -0.8563    73.3          58      3159.
  59      3175. -0.9795    95.9   100.0  60      3167.
  60      3178.  0.9588    91.9   100.0  59      3164.
  61      3188.  0.9146    83.6   100.0  61      3174.
                -0.4036    16.3          65      3189.
  62      3190. -0.9838    96.8   100.0  62      3177.
  63      3191. -0.9576    91.7   100.0  63      3180.
  64      3196. -0.9794    95.9   100.0  64      3183.
  65      3202. -0.9829    96.6   100.0  66      3190.
  66      3233.  0.3999    16.0   100.0  61      3174.
                 0.9100    82.8          65      3189.
 nber times 1st assigned=           1           0
 nber times 1st assigned=           2           0
 nber times 1st assigned=           3           0
 nber times 1st assigned=           4           0
 nber times 1st assigned=           5           0
 nber times 1st assigned=           6           0
 nber times 1st assigned=           7           3
 nber times 1st assigned=           9           2
 nber times 1st assigned=          10           0
 nber times 1st assigned=          11           0
 nber times 1st assigned=          12           0
 nber times 1st assigned=          13           0
 nber times 1st assigned=          14           0
 nber times 1st assigned=          15           0
 nber times 1st assigned=          16           0
 nber times 1st assigned=          17           0
 nber times 1st assigned=          18           0
 nber times 1st assigned=          19           0
 nber times 1st assigned=          20           0
 nber times 1st assigned=          21           0
 nber times 1st assigned=          22           0
 nber times 1st assigned=          23           0
 nber times 1st assigned=          24           0
 nber times 1st assigned=          25           0
 nber times 1st assigned=          26           0
 nber times 1st assigned=          27           0
 nber times 1st assigned=          28           0
 nber times 1st assigned=          29           0
 nber times 1st assigned=          30           0
 nber times 1st assigned=          31           0
 nber times 1st assigned=          32           0
 nber times 1st assigned=          33           0
 nber times 1st assigned=          34           0
 nber times 1st assigned=          35           0
 nber times 1st assigned=          36           0
 nber times 1st assigned=          37           0
 nber times 1st assigned=          38           0
 nber times 1st assigned=          39           0
 nber times 1st assigned=          40           0
 nber times 1st assigned=          41           0
 nber times 1st assigned=          42           0
 nber times 1st assigned=          43           0
 nber times 1st assigned=          44           0
 nber times 1st assigned=          45           0
 nber times 1st assigned=          46           0
 nber times 1st assigned=          47           0
 nber times 1st assigned=          48           0
 nber times 1st assigned=          49           0
 nber times 1st assigned=          50           0
 nber times 1st assigned=          51           0
 nber times 1st assigned=          52           0
 nber times 1st assigned=          53           0
 nber times 1st assigned=          54           0
 nber times 1st assigned=          55           0
 nber times 1st assigned=          56           0
 nber times 1st assigned=          57           0
 nber times 1st assigned=          58           0
 nber times 1st assigned=          59           0
 nber times 1st assigned=          60           0
 nber times 1st assigned=          61           0
 nber times 1st assigned=          62           0
 nber times 1st assigned=          63           0
 nber times 1st assigned=          64           0
 nber times 1st assigned=          65           0
 nber times 1st assigned=          66           0
 Dushinsky matrix written to .out file
 modes represented=   60.0597812641199     

 Dushinsky matrix, ncs 1 in terms of ncs 2

   mode   freq    coeff     %      %tot     of    at

   7        66.  0.9966    99.3    98.4   7        75.
   8        95. -0.9983    99.7   109.1   8        90.
   9       126. -0.9788    95.8   122.6   9       109.
  10       268.  0.9947    98.9    94.3  10       226.
  11       313. -0.9767    95.4    98.7  11       298.
  12       369.  0.9577    91.7   107.7  13       342.
  13       414. -0.9994    99.9    99.6  12       341.
  14       421. -0.9818    96.4    99.5  14       367.
  15       503.  0.9262    85.8    95.4  15       470.
  16       559.  0.9641    93.0   101.4  16       481.
  17       626. -0.9895    97.9    97.4  17       556.
  18       629. -0.9064    82.2    98.1  21       662.
  19       641.  0.3594    12.9    98.5  18       590.
                 0.9227    85.1          20       608.
  20       713. -0.8038    64.6    99.3  18       590.
                 0.3421    11.7          20       608.
                -0.3876    15.0          23       687.
  21       716.  0.8569    73.4    99.0  19       598.
                -0.3591    12.9          21       662.
                -0.3454    11.9          22       679.
  22       756.  0.3668    13.5    98.2  19       598.
                 0.9119    83.2          22       679.
  23       757. -0.9955    99.1    98.6  24       715.
  24       798.  0.8931    79.8   100.1  23       687.
  25       857.  0.9727    94.6    99.7  25       734.
  26       857. -0.9808    96.2    99.8  26       754.
  27       923. -0.9855    97.1    99.6  27       818.
  28       942. -0.9494    90.1    99.6  28       827.
  29       981. -0.9880    97.6    99.3  29       875.
  30       982. -0.9887    97.8    99.3  30       882.
  31      1002. -0.9097    82.8    99.7  31       903.
                 0.3590    12.9          32       908.
  32      1002. -0.3539    12.5    99.7  31       903.
                -0.9212    84.9          32       908.
  33      1012.  0.6852    47.0    99.5  34      1000.
                 0.5513    30.4          37      1052.
                 0.3226    10.4          44      1264.
                -0.3318    11.0          56      2112.
  34      1018. -0.9844    96.9    98.6  33       997.
  35      1026.  0.6138    37.7    98.3  34      1000.
                -0.4635    21.5          36      1026.
                -0.5657    32.0          37      1052.
  36      1053. -0.9844    96.9    99.5  35      1024.
  37      1067. -0.3383    11.4    99.9  34      1000.
                -0.8727    76.2          36      1026.
                 0.3523    12.4          37      1052.
  38      1101. -0.9900    98.0    99.4  38      1054.
  39      1106.  0.9909    98.2    99.7  39      1073.
  40      1182. -0.9878    97.6   100.2  41      1182.
  41      1183.  0.8476    71.8   100.2  40      1140.
                 0.5072    25.7          43      1253.
  42      1202.  0.4396    19.3   100.3  37      1052.
                -0.8493    72.1          44      1264.
  43      1208.  0.9988    99.8   100.4  42      1202.
  44      1297.  0.4045    16.4    99.7  40      1140.
                -0.6570    43.2          43      1253.
                -0.5753    33.1          49      1417.
  45      1302. -0.9944    98.9    99.8  45      1332.
  46      1327.  0.3877    15.0   100.4  47      1387.
                -0.8538    72.9          48      1387.
  47      1355. -0.9561    91.4   100.2  46      1342.
  48      1358.  0.3639    13.2   100.0  43      1253.
                -0.8158    66.6          47      1387.
                -0.3614    13.1          48      1387.
  49      1462. -0.7016    49.2    99.4  49      1417.
                 0.5264    27.7          51      1474.
  50      1490. -0.9842    96.9    99.9  50      1454.
  51      1516.  0.9967    99.4    99.4  52      1481.
  52      1538.  0.9947    98.9    99.4  53      1509.
  53      1610.  0.3555    12.6    99.5  49      1417.
                 0.8197    67.2          51      1474.
  54      1626. -0.9842    96.9    99.9  54      1587.
  55      1643.  0.9949    99.0    99.9  55      1612.
  56      1646.  0.3678    13.5    99.9  44      1264.
                 0.8875    78.8          56      2112.
  57      3158.  0.8653    74.9   100.0  57      3169.
                 0.5002    25.0          58      3169.
  58      3159.  0.4951    24.5   100.0  57      3169.
                -0.8563    73.3          58      3169.
  59      3164.  0.9588    91.9   100.0  60      3178.
  60      3167. -0.9795    95.9   100.0  59      3175.
  61      3174.  0.9146    83.6   100.0  61      3188.
                 0.3999    16.0          66      3233.
  62      3177. -0.9838    96.8   100.0  62      3190.
  63      3180. -0.9576    91.7   100.0  63      3191.
  64      3183. -0.9794    95.9   100.0  64      3196.
  65      3189. -0.4036    16.3   100.0  61      3188.
                 0.9100    82.8          66      3233.
  66      3190. -0.9829    96.6   100.0  65      3202.
 nber times 1st assigned=           1           0
 nber times 1st assigned=           2           0
 nber times 1st assigned=           3           0
 nber times 1st assigned=           4           0
 nber times 1st assigned=           5           0
 nber times 1st assigned=           6           0
 nber times 1st assigned=           7           0
 nber times 1st assigned=           8           0
 nber times 1st assigned=           9           0
 nber times 1st assigned=          10           0
 nber times 1st assigned=          11           0
 nber times 1st assigned=          12           0
 nber times 1st assigned=          13           0
 nber times 1st assigned=          14           0
 nber times 1st assigned=          15           0
 nber times 1st assigned=          16           0
 nber times 1st assigned=          17           0
 nber times 1st assigned=          18           0
 nber times 1st assigned=          19           0
 nber times 1st assigned=          20           0
 nber times 1st assigned=          21           0
 nber times 1st assigned=          22           0
 nber times 1st assigned=          23           0
 nber times 1st assigned=          24           0
 nber times 1st assigned=          25           0
 nber times 1st assigned=          26           0
 nber times 1st assigned=          27           0
 nber times 1st assigned=          28           0
 nber times 1st assigned=          29           0
 nber times 1st assigned=          30           0
 nber times 1st assigned=          31           0
 nber times 1st assigned=          32           0
 nber times 1st assigned=          33           0
 nber times 1st assigned=          34           0
 nber times 1st assigned=          35           0
 nber times 1st assigned=          36           0
 nber times 1st assigned=          37           0
 nber times 1st assigned=          38           0
 nber times 1st assigned=          39           0
 nber times 1st assigned=          40           0
 nber times 1st assigned=          41           0
 nber times 1st assigned=          42           0
 nber times 1st assigned=          43           0
 nber times 1st assigned=          44           0
 nber times 1st assigned=          45           0
 nber times 1st assigned=          46           0
 nber times 1st assigned=          47           0
 nber times 1st assigned=          48           0
 nber times 1st assigned=          49           0
 nber times 1st assigned=          50           0
 nber times 1st assigned=          51           0
 nber times 1st assigned=          52           0
 nber times 1st assigned=          53           0
 nber times 1st assigned=          54           0
 nber times 1st assigned=          55           0
 nber times 1st assigned=          56           0
 nber times 1st assigned=          57           0
 nber times 1st assigned=          58           0
 nber times 1st assigned=          59           0
 nber times 1st assigned=          60           0
 nber times 1st assigned=          61           0
 nber times 1st assigned=          62           0
 nber times 1st assigned=          63           0
 nber times 1st assigned=          64           0
 nber times 1st assigned=          65           0
 nber times 1st assigned=          66           0
 modes represented=   60.0597812641199     
 p1=
   -0.    0.    0.    0.    0.    0.  -42.    0.   -0.    0.   -4.   -0.    0.    1.   -0.    0.    0.    0.    0.    0.
   -0.   -0.   -2.   -0.   -0.   -3.   -0.   -0.   -0.    2.   -0.    0.   -0.   -5.   -0.   -2.    0.   -0.   -0.    0.
    0.   -0.   -0.   -0.    5.    0.   -0.   -0.    0.   -0.    0.   -2.   -0.   -0.   -1.    0.    0.   -0.   -0.   -0.
   -0.   -0.   -0.   -0.    0.    0.
 p2=
    0.    0.    0.   -0.    0.    0.   43.   -0.    0.    0.   -1.   -0.    0.   -1.   -0.    0.    0.   -0.    0.    0.
   -0.   -0.   -0.   -4.    0.   -4.   -0.   -0.   -0.    1.    0.    0.   -5.   -0.   -3.    0.    0.    0.    0.   -0.
   -0.   -0.   -0.   -0.    5.   -0.   -0.    0.    0.    0.   -0.   -0.    2.   -0.    1.    0.   -0.    0.   -0.    0.
    0.   -0.   -0.   -0.    0.   -0.

 Displacement: in terms of nc of 1 THEN of nc of 2

   1     freq=    -0. Q= -0.000 lam=    -0.0     freq=    -0. Q= -0.000 lam=    -0.0
   2     freq=    -0. Q=  0.000 lam=    -0.0     freq=    -0. Q=  0.000 lam=    -0.0
   3     freq=    -0. Q=  0.000 lam=    -0.0     freq=     0. Q=  0.000 lam=     0.0
   4     freq=     0. Q=  0.000 lam=     0.0     freq=     0. Q=  0.000 lam=     0.0
   5     freq=     0. Q=  0.000 lam=     0.0     freq=     0. Q=  0.000 lam=     0.0
   6     freq=     0. Q=  0.000 lam=     0.0     freq=     0. Q=  0.000 lam=     0.0
   7     freq=    66. Q= -1.386 lam=    63.2     freq=    75. Q= -1.500 lam=    84.6
   8     freq=    95. Q=  0.004 lam=     0.0     freq=    90. Q=  0.014 lam=     0.0
   9     freq=   126. Q= -0.000 lam=     0.0     freq=   109. Q= -0.002 lam=     0.0
  10     freq=   268. Q=  0.000 lam=     0.0     freq=   226. Q=  0.001 lam=     0.0
  11     freq=   313. Q= -0.315 lam=    15.5     freq=   298. Q= -0.103 lam=     1.6
  12     freq=   369. Q= -0.000 lam=     0.0     freq=   341. Q= -0.001 lam=     0.0
  13     freq=   414. Q=  0.000 lam=     0.0     freq=   342. Q=  0.000 lam=     0.0
  14     freq=   421. Q=  0.049 lam=     0.5     freq=   367. Q=  0.046 lam=     0.4
  15     freq=   503. Q= -0.000 lam=     0.0     freq=   470. Q= -0.000 lam=     0.0
  16     freq=   559. Q=  0.000 lam=     0.0     freq=   481. Q=  0.000 lam=     0.0
  17     freq=   626. Q=  0.000 lam=     0.0     freq=   556. Q=  0.001 lam=     0.0
  18     freq=   629. Q=  0.000 lam=     0.0     freq=   590. Q=  0.000 lam=     0.0
  19     freq=   641. Q=  0.000 lam=     0.0     freq=   598. Q=  0.000 lam=     0.0
  20     freq=   713. Q=  0.000 lam=     0.0     freq=   608. Q=  0.000 lam=     0.0
  21     freq=   716. Q= -0.000 lam=     0.0     freq=   662. Q= -0.000 lam=     0.0
  22     freq=   756. Q= -0.003 lam=     0.0     freq=   679. Q= -0.000 lam=     0.0
  23     freq=   757. Q= -0.260 lam=    25.6     freq=   687. Q= -0.000 lam=     0.0
  24     freq=   798. Q= -0.000 lam=     0.0     freq=   715. Q= -0.391 lam=    54.7
  25     freq=   857. Q= -0.058 lam=     1.5     freq=   734. Q= -0.006 lam=     0.0
  26     freq=   857. Q= -0.398 lam=    67.8     freq=   754. Q= -0.444 lam=    74.3
  27     freq=   923. Q= -0.000 lam=     0.0     freq=   818. Q= -0.001 lam=     0.0
  28     freq=   942. Q= -0.000 lam=     0.0     freq=   827. Q= -0.000 lam=     0.0
  29     freq=   981. Q= -0.005 lam=     0.0     freq=   875. Q= -0.004 lam=     0.0
  30     freq=   982. Q=  0.243 lam=    29.0     freq=   882. Q=  0.137 lam=     8.3
  31     freq=  1002. Q= -0.000 lam=     0.0     freq=   903. Q= -0.000 lam=     0.0
  32     freq=  1002. Q=  0.001 lam=     0.0     freq=   908. Q=  0.000 lam=     0.0
  33     freq=  1012. Q= -0.000 lam=     0.0     freq=   997. Q= -0.628 lam=   197.0
  34     freq=  1018. Q= -0.672 lam=   230.1     freq=  1000. Q= -0.002 lam=     0.0
  35     freq=  1026. Q= -0.000 lam=     0.0     freq=  1024. Q= -0.397 lam=    80.7
  36     freq=  1053. Q= -0.294 lam=    45.6     freq=  1026. Q= -0.002 lam=     0.0
  37     freq=  1067. Q=  0.000 lam=     0.0     freq=  1052. Q=  0.000 lam=     0.0
  38     freq=  1101. Q= -0.000 lam=     0.0     freq=  1054. Q= -0.000 lam=     0.0
  39     freq=  1106. Q= -0.000 lam=     0.0     freq=  1073. Q= -0.000 lam=     0.0
  40     freq=  1182. Q=  0.000 lam=     0.0     freq=  1140. Q=  0.000 lam=     0.0
  41     freq=  1183. Q=  0.000 lam=     0.0     freq=  1182. Q=  0.000 lam=     0.0
  42     freq=  1202. Q= -0.000 lam=     0.0     freq=  1202. Q= -0.010 lam=     0.1
  43     freq=  1208. Q= -0.050 lam=     1.5     freq=  1253. Q= -0.000 lam=     0.0
  44     freq=  1297. Q= -0.003 lam=     0.0     freq=  1264. Q= -0.000 lam=     0.0
  45     freq=  1302. Q=  0.764 lam=   379.6     freq=  1332. Q=  0.677 lam=   305.6
  46     freq=  1327. Q=  0.000 lam=     0.0     freq=  1342. Q=  0.000 lam=     0.0
  47     freq=  1355. Q= -0.000 lam=     0.0     freq=  1387. Q= -0.000 lam=     0.0
  48     freq=  1358. Q= -0.000 lam=     0.0     freq=  1387. Q= -0.000 lam=     0.0
  49     freq=  1462. Q=  0.000 lam=     0.0     freq=  1417. Q=  0.000 lam=     0.0
  50     freq=  1490. Q= -0.000 lam=     0.0     freq=  1454. Q= -0.000 lam=     0.0
  51     freq=  1516. Q=  0.000 lam=     0.0     freq=  1474. Q=  0.000 lam=     0.0
  52     freq=  1538. Q= -0.357 lam=    98.0     freq=  1481. Q= -0.000 lam=     0.0
  53     freq=  1610. Q= -0.000 lam=     0.0     freq=  1509. Q= -0.350 lam=    92.4
  54     freq=  1626. Q= -0.000 lam=     0.0     freq=  1587. Q= -0.000 lam=     0.0
  55     freq=  1643. Q= -0.180 lam=    26.7     freq=  1612. Q= -0.228 lam=    41.9
  56     freq=  1646. Q=  0.001 lam=     0.0     freq=  2112. Q=  0.001 lam=     0.0
  57     freq=  3158. Q=  0.000 lam=     0.0     freq=  3169. Q=  0.003 lam=     0.0
  58     freq=  3159. Q= -0.008 lam=     0.1     freq=  3169. Q= -0.005 lam=     0.0
  59     freq=  3164. Q= -0.000 lam=     0.0     freq=  3175. Q= -0.000 lam=     0.0
  60     freq=  3167. Q= -0.000 lam=     0.0     freq=  3178. Q= -0.000 lam=     0.0
  61     freq=  3174. Q= -0.000 lam=     0.0     freq=  3188. Q= -0.000 lam=     0.0
  62     freq=  3177. Q= -0.021 lam=     0.7     freq=  3190. Q= -0.010 lam=     0.2
  63     freq=  3180. Q= -0.000 lam=     0.0     freq=  3191. Q= -0.000 lam=     0.0
  64     freq=  3183. Q= -0.000 lam=     0.0     freq=  3196. Q= -0.000 lam=     0.0
  65     freq=  3189. Q=  0.000 lam=     0.0     freq=  3202. Q=  0.069 lam=     7.6
  66     freq=  3190. Q=  0.066 lam=     7.1     freq=  3233. Q=  0.000 lam=     0.0

 total reorg energy (cm**-1, kcal/mol)=      992.      949.      2.84      2.71
 Nber of molecules processed=           2
