 Enter ifcurve (0=recti, 1=orth curvi, 2=apprx curvi, -1 = skip
 And atom ordering flag, 0= never changes, 1= use the first order thenceforth,
  2= deduce it (does read on fail), 3= always read it
 Reading file: 
 ./Benzene_Conj_2_C0S0.log                                                      
                                          
  Entering Gaussian System, Link 0=g16                                          
  
 Gaussian format, type: g94, g98, g03= F F F
  #P Geom=AllCheck Guess=TCheck SCRF=Check GenChk RB3LYP/6-311G(d,p) Fre    
 energy type= B3LYP   
 Original G94 input coords:
  6  2.476712 -1.404830  0.000000
  6  1.221874 -0.721547  0.000000
  6  0.000000 -1.401596  0.000000
  6 -1.221874 -0.721547  0.000000
  6 -2.476712 -1.404830  0.000000
  6 -3.654888 -0.712222  0.000000
  6 -3.654888  0.712222  0.000000
  6 -2.476712  1.404830  0.000000
  6 -1.221874  0.721547  0.000000
  6  0.000000  1.401596  0.000000
  6  1.221874  0.721547  0.000000
  6  2.476712  1.404830  0.000000
  6  3.654888  0.712222  0.000000
  6  3.654888 -0.712222  0.000000
  1  2.476147 -2.489888  0.000000
  1  0.000000 -2.487504  0.000000
  1 -2.476147 -2.489888  0.000000
  1 -4.599423 -1.244469  0.000000
  1 -4.599423  1.244469  0.000000
  1 -2.476147  2.489888  0.000000
  1  0.000000  2.487504  0.000000
  1  2.476147  2.489888  0.000000
  1  4.599423  1.244469  0.000000
  1  4.599423 -1.244469  0.000000
 nber atoms=          24
 Original standard coords:
  6  0.000000  2.476712  1.404830
  6  0.000000  1.221874  0.721547
  6  0.000000  0.000000  1.401596
  6  0.000000 -1.221874  0.721547
  6  0.000000 -2.476712  1.404830
  6  0.000000 -3.654888  0.712222
  6  0.000000 -3.654888 -0.712222
  6  0.000000 -2.476712 -1.404830
  6  0.000000 -1.221874 -0.721547
  6  0.000000  0.000000 -1.401596
  6  0.000000  1.221874 -0.721547
  6  0.000000  2.476712 -1.404830
  6  0.000000  3.654888 -0.712222
  6  0.000000  3.654888  0.712222
  1  0.000000  2.476147  2.489888
  1  0.000000  0.000000  2.487504
  1  0.000000 -2.476147  2.489888
  1  0.000000 -4.599423  1.244469
  1  0.000000 -4.599423 -1.244469
  1  0.000000 -2.476147 -2.489888
  1  0.000000  0.000000 -2.487504
  1  0.000000  2.476147 -2.489888
  1  0.000000  4.599423 -1.244469
  1  0.000000  4.599423  1.244469
  SCF Done:  E(RB3LYP) =  -539.655145862     A.U. after    1 cycles             
  
          23          40 "  -539.655145862"
After scan for Atom:   Atom  AN      X      Y      Z        X      Y      Z        X      Y      Z   
After scan for Atom:   Atom  AN      X      Y      Z        X      Y      Z        X      Y      Z   
After scan for Atom:   Atom  AN      X      Y      Z        X      Y      Z        X      Y      Z   
After scan for Atom:   Atom  AN      X      Y      Z        X      Y      Z        X      Y      Z   
After scan for Atom:   Atom  AN      X      Y      Z        X      Y      Z        X      Y      Z   
After scan for Atom:   Atom  AN      X      Y      Z        X      Y      Z        X      Y      Z   
After scan for Atom:   Atom  AN      X      Y      Z        X      Y      Z        X      Y      Z   
After scan for Atom:   Atom  AN      X      Y      Z        X      Y      Z        X      Y      Z   
After scan for Atom:   Atom  AN      X      Y      Z        X      Y      Z        X      Y      Z   
After scan for Atom:   Atom  AN      X      Y      Z        X      Y      Z        X      Y      Z   
After scan for Atom:   Atom  AN      X      Y      Z        X      Y      Z        X      Y      Z   
After scan for Atom:   Atom  AN      X      Y      Z        X      Y      Z        X      Y      Z   
After scan for Atom:   Atom  AN      X      Y      Z        X      Y      Z        X      Y      Z   
After scan for Atom:   Atom  AN      X      Y      Z        X      Y      Z        X      Y      Z   
After scan for Atom:   Atom  AN      X      Y      Z        X      Y      Z        X      Y      Z   
After scan for Atom:   Atom  AN      X      Y      Z        X      Y      Z        X      Y      Z   
After scan for Atom:   Atom  AN      X      Y      Z        X      Y      Z        X      Y      Z   
After scan for Atom:   Atom  AN      X      Y      Z        X      Y      Z        X      Y      Z   
After scan for Atom:   Atom  AN      X      Y      Z        X      Y      Z        X      Y      Z   
After scan for Atom:   Atom  AN      X      Y      Z        X      Y      Z        X      Y      Z   
After scan for Atom:   Atom  AN      X      Y      Z        X      Y      Z        X      Y      Z   
After scan for Atom:   Atom  AN      X      Y      Z        X      Y      Z        X      Y      Z   
 g94    frequencies=
     0.0    0.0    0.0    0.0    0.0    0.0   90.9  121.0  235.6  235.8
   269.0  386.9  395.9  398.0  478.4  483.9  506.6  535.6  591.1  617.6
   642.4  661.3  740.4  758.9  763.3  769.6  781.9  820.8  843.9  865.9
   894.8  911.2  918.8  929.2  967.4  972.2  995.1  996.0 1026.2 1031.0
  1126.7 1158.7 1173.1 1188.6 1189.9 1210.6 1289.6 1290.6 1294.6 1338.9
  1375.8 1414.3 1414.6 1427.6 1482.0 1486.8 1516.7 1579.2 1593.6 1624.3
  1667.9 1670.3 3153.0 3155.0 3156.8 3157.7 3161.4 3162.9 3174.7 3175.0
  3186.9 3187.4
 g94    symmetries=
                                                B3     AU     B1     B1
      B2     B3     B3     AG     B3     B1     AU     B3     B2     B2
      AG     B1     B3     AU     AG     B1     B2     B2     B2     AU
      B3     B2     B1     B3     B1     B3     AU     B2     B2     AG
      B3     B2     B1     B2     AG     B3     AG     B1     B3     B1
      B2     B3     B2     AG     B2     B1     AG     B2     AG     B3
      B3     B1     B1     AG     B3     B1     B2     AG     B3     B1
      B2     AG
 atomic masses:
 12.0000 12.0000 12.0000 12.0000 12.0000 12.0000 12.0000 12.0000 12.0000 12.0000
 12.0000 12.0000 12.0000 12.0000  1.0078  1.0078  1.0078  1.0078  1.0078  1.0078
  1.0078  1.0078  1.0078  1.0078
 looking for force constants in 
 ./Benzene_Conj_2_C0S0.fchk                                                     
  
 Cartesian Force Constants                  R   N=        2628                  
  
 n3=          72        2628
 g94-fc frequencies=
    -1.7   -0.0   -0.0   -0.0    0.8    2.4   90.9  121.0  235.6  235.8
   269.0  386.9  395.9  398.0  478.5  484.0  506.6  535.6  591.1  617.6
   642.4  661.3  740.4  758.9  763.3  769.6  781.9  820.9  844.0  865.9
   894.8  911.2  918.8  929.2  967.4  972.2  995.1  996.0 1026.2 1031.0
  1126.7 1158.7 1173.1 1188.6 1189.9 1210.6 1289.6 1290.6 1294.6 1339.0
  1375.8 1414.3 1414.6 1427.6 1482.0 1486.9 1516.7 1579.3 1593.7 1624.4
  1667.9 1670.3 3153.0 3155.1 3156.9 3157.8 3161.5 3163.0 3174.8 3175.1
  3187.0 3187.5
 at 99999: n3=          72
 symm operator            1 :  T  nop=           1
 symm operator            2 :  T  nop=           2
 symm operator            3 :  T  nop=           3
 symm operator            4 :  T  nop=           4
 symm operator            5 :  T  nop=           5
 symm operator            6 :  T  nop=           6
 symm operator            7 :  T  nop=           7
 The point group of the molecule is D2H
 enforcing symm op           1  jsymt=          -1          -1           1
 enforcing symm op           2  jsymt=          -1           1          -1
 enforcing symm op           3  jsymt=           1          -1          -1
 enforcing symm op           4  jsymt=          -1          -1          -1
 enforcing symm op           5  jsymt=           1           1          -1
 enforcing symm op           6  jsymt=           1          -1           1
 enforcing symm op           7  jsymt=          -1           1           1
 cartesian coord symmetries:
 Ag :   12 Au :    5 B1g:    5 B1u:   12 B2g:    7 B2u:   12 B3g:   12 B3u:    7
 Symmetry rotation matrix:
   1.00000   0.00000   0.00000
   0.00000   1.00000   0.00000
   0.00000   0.00000   1.00000

 Projecting out zero-frequency components
 generating redundant internal coords
         300        3600          24
 search for int coords
   1 str   2   1   1.429
   2 str   3   2   1.398
   3 str   4   3   1.398
   4 str   5   4   1.429
   5 str   6   5   1.367
   6 str   7   6   1.424
   7 str   8   7   1.367
   8 str   9   4   1.443
   9 str   9   8   1.429
  10 str  10   9   1.398
  11 str  11   2   1.443
  12 str  11  10   1.398
  13 str  12  11   1.429
  14 str  13  12   1.367
  15 str  14   1   1.367
  16 str  14  13   1.424
  17 str  15   1   1.085
  18 str  16   3   1.086
  19 str  17   5   1.085
  20 str  18   6   1.084
  21 str  19   7   1.084
  22 str  20   8   1.085
  23 str  21  10   1.086
  24 str  22  12   1.085
  25 str  23  13   1.084
  26 str  24  14   1.084
 nber stretches=          26
  27 ben   1   2   3
  28 prop tor   1   2   3   4
  29 prop tor   1   2   3  16
  30 ben   1   2  11
  31 prop tor   1   2  11  10
  32 prop tor   1   2  11  12
  33 ben   1  14  13
  34 ben   1  14  24
  35 ben   2   1  14
  36 prop tor   2   1  14  13
  37 prop tor   2   1  14  24
  38 ben   2   1  15
  39 ben   2   3   4
  40 prop tor   2   3   4   5
  41 prop tor   2   3   4   9
  42 ben   2   3  16
  43 ben   2  11  10
  44 ben   2  11  12
  45 prop tor   2  11  12  13
  46 prop tor   2  11  12  22
  47 ben   3   2  11
  48 prop tor   3   2  11  10
  49 prop tor   3   2  11  12
  50 ben   3   4   5
  51 prop tor   3   4   5   6
  52 prop tor   3   4   5  17
  53 ben   3   4   9
  54 prop tor   3   4   9   8
  55 prop tor   3   4   9  10
  56 ben   4   3  16
  57 ben   4   5   6
  58 prop tor   4   5   6   7
  59 prop tor   4   5   6  18
  60 ben   4   5  17
  61 ben   4   9   8
  62 ben   4   9  10
  63 prop tor   4   9  10  11
  64 prop tor   4   9  10  21
  65 ben   5   4   9
  66 prop tor   5   4   9   8
  67 prop tor   5   4   9  10
  68 ben   5   6   7
  69 prop tor   5   6   7   8
  70 prop tor   5   6   7  19
  71 ben   5   6  18
  72 ben   6   5  17
  73 ben   6   7   8
  74 prop tor   6   7   8   9
  75 prop tor   6   7   8  20
  76 ben   6   7  19
  77 ben   7   6  18
  78 ben   7   8   9
  79 prop tor   7   8   9   4
  80 prop tor   7   8   9  10
  81 ben   7   8  20
  82 ben   8   7  19
  83 ben   8   9  10
  84 prop tor   8   9  10  11
  85 prop tor   8   9  10  21
  86 prop tor   9   4   5   6
  87 prop tor   9   4   5  17
  88 ben   9   8  20
  89 ben   9  10  11
  90 prop tor   9  10  11   2
  91 prop tor   9  10  11  12
  92 ben   9  10  21
  93 ben  10  11  12
  94 prop tor  10  11  12  13
  95 prop tor  10  11  12  22
  96 prop tor  11   2   3   4
  97 prop tor  11   2   3  16
  98 ben  11  10  21
  99 ben  11  12  13
 100 prop tor  11  12  13  14
 101 prop tor  11  12  13  23
 102 ben  11  12  22
 103 ben  12  13  14
 104 prop tor  12  13  14   1
 105 prop tor  12  13  14  24
 106 ben  12  13  23
 107 ben  13  12  22
 108 ben  13  14  24
 109 prop tor  14   1   2   3
 110 prop tor  14   1   2  11
 111 ben  14   1  15
 112 ben  14  13  23
 113 prop tor  15   1   2   3
 114 prop tor  15   1   2  11
 115 prop tor  15   1  14  13
 116 prop tor  15   1  14  24
 117 prop tor  16   3   4   5
 118 prop tor  16   3   4   9
 119 prop tor  17   5   6   7
 120 prop tor  17   5   6  18
 121 prop tor  18   6   7   8
 122 prop tor  18   6   7  19
 123 prop tor  19   7   8   9
 124 prop tor  19   7   8  20
 125 prop tor  20   8   9   4
 126 prop tor  20   8   9  10
 127 prop tor  21  10  11   2
 128 prop tor  21  10  11  12
 129 prop tor  22  12  13  14
 130 prop tor  22  12  13  23
 131 prop tor  23  13  14   1
 132 prop tor  23  13  14  24
 nber bend=              42
 nber lin bend=           0
 nber prop tor=          64
 nber impr tor=           0
 nber tot redund int=         132
 Eigenvalues of G in red int coords
    Gval -0.00000000 -0.00000000 -0.00000000 -0.00000000 -0.00000000 -0.00000000 -0.00000000 -0.00000000
    Gval -0.00000000 -0.00000000 -0.00000000 -0.00000000 -0.00000000 -0.00000000 -0.00000000 -0.00000000
    Gval -0.00000000 -0.00000000 -0.00000000 -0.00000000 -0.00000000 -0.00000000 -0.00000000 -0.00000000
    Gval -0.00000000 -0.00000000 -0.00000000 -0.00000000 -0.00000000 -0.00000000 -0.00000000 -0.00000000
    Gval -0.00000000 -0.00000000  0.00000000  0.00000000  0.00000000  0.00000000  0.00000000  0.00000000
    Gval  0.00000000  0.00000000  0.00000000  0.00000000  0.00000000  0.00000000  0.00000000  0.00000000
    Gval  0.00000000  0.00000000  0.00000000  0.00000000  0.00000000  0.00000000  0.00000000  0.00000000
    Gval  0.00000000  0.00000000  0.00000000  0.00000000  0.00000000  0.00000000  0.00000000  0.00000000
    Gval  0.00000000  0.00000000  0.00000846  0.00000982  0.00002851  0.00003511  0.00003539  0.00004269
    Gval  0.00004885  0.00005231  0.00005594  0.00006522  0.00007280  0.00007856  0.00009181  0.00010120
    Gval  0.00010302  0.00012397  0.00013434  0.00015060  0.00018765  0.00021085  0.00022485  0.00025645
    Gval  0.00029370  0.00031541  0.00032639  0.00037868  0.00039220  0.00041610  0.00041831  0.00048552
    Gval  0.00059308  0.00059313  0.00059670  0.00059710  0.00060868  0.00061707  0.00062824  0.00064106
    Gval  0.00065413  0.00065934  0.00074863  0.00076121  0.00083209  0.00103873  0.00104952  0.00105230
    Gval  0.00111199  0.00111451  0.00111942  0.00112480  0.00116107  0.00116152  0.00117026  0.00117026
    Gval  0.00175677  0.00175763  0.00178808  0.00197563  0.00254067  0.00264678  0.00301614  0.00318286
    Gval  0.00350939  0.00360694  0.00400084  0.00401095
  8.463930851332640E-006  8.463930851332640E-006
  9.823130745050917E-006  8.463930851332640E-006
  2.850987358778976E-005  8.463930851332640E-006
  3.510553257233437E-005  8.463930851332640E-006
  3.539413200312101E-005  8.463930851332640E-006
  4.268560679062913E-005  8.463930851332640E-006
  4.885059977326790E-005  8.463930851332640E-006
  5.231485510954204E-005  8.463930851332640E-006
  5.594453154776135E-005  8.463930851332640E-006
  6.522243219904755E-005  8.463930851332640E-006
  7.280397292825005E-005  8.463930851332640E-006
  7.855903666172585E-005  8.463930851332640E-006
  9.181469992213257E-005  8.463930851332640E-006
  1.011985956840579E-004  8.463930851332640E-006
  1.030158213504328E-004  8.463930851332640E-006
  1.239728214057765E-004  8.463930851332640E-006
  1.343376718354544E-004  8.463930851332640E-006
  1.506040725092544E-004  8.463930851332640E-006
  1.876462766705868E-004  8.463930851332640E-006
  2.108452889573017E-004  8.463930851332640E-006
  2.248453018731642E-004  8.463930851332640E-006
  2.564460044260415E-004  8.463930851332640E-006
  2.937029626585691E-004  8.463930851332640E-006
  3.154084661614618E-004  8.463930851332640E-006
  3.263909123945709E-004  8.463930851332640E-006
  3.786818951235360E-004  8.463930851332640E-006
  3.922036074954684E-004  8.463930851332640E-006
  4.161049937720917E-004  8.463930851332640E-006
  4.183110827734634E-004  8.463930851332640E-006
  4.855187769942199E-004  8.463930851332640E-006
  5.930837838646405E-004  8.463930851332640E-006
  5.931347710173095E-004  8.463930851332640E-006
  5.967019631275281E-004  8.463930851332640E-006
  5.971041248245499E-004  8.463930851332640E-006
  6.086822452354406E-004  8.463930851332640E-006
  6.170724017710819E-004  8.463930851332640E-006
  6.282410614622188E-004  8.463930851332640E-006
  6.410611999983146E-004  8.463930851332640E-006
  6.541342446418988E-004  8.463930851332640E-006
  6.593442597987419E-004  8.463930851332640E-006
  7.486286275367370E-004  8.463930851332640E-006
  7.612093316501948E-004  8.463930851332640E-006
  8.320878766210212E-004  8.463930851332640E-006
  1.038732996617454E-003  8.463930851332640E-006
  1.049516152053341E-003  8.463930851332640E-006
  1.052301352648371E-003  8.463930851332640E-006
  1.111993390415477E-003  8.463930851332640E-006
  1.114508953022926E-003  8.463930851332640E-006
  1.119423703098606E-003  8.463930851332640E-006
  1.124798910033490E-003  8.463930851332640E-006
  1.161066422685972E-003  8.463930851332640E-006
  1.161524342473124E-003  8.463930851332640E-006
  1.170259040700688E-003  8.463930851332640E-006
  1.170261213191257E-003  8.463930851332640E-006
  1.756766148731524E-003  8.463930851332640E-006
  1.757625451804582E-003  8.463930851332640E-006
  1.788083164253916E-003  8.463930851332640E-006
  1.975628043887917E-003  8.463930851332640E-006
  2.540669950668914E-003  8.463930851332640E-006
  2.646777466125556E-003  8.463930851332640E-006
  3.016140935836820E-003  8.463930851332640E-006
  3.182855948542838E-003  8.463930851332640E-006
  3.509390745282708E-003  8.463930851332640E-006
  3.606942394085755E-003  8.463930851332640E-006
  4.000841143319507E-003  8.463930851332640E-006
  4.010945858692723E-003  8.463930851332640E-006
 cut=1d-8, nber non-redundant internal coords=          66
 Check on Eigenvals of non-red overlap matrix:
  0.00000846  0.00000982  0.00002851  0.00003511  0.00003539  0.00004269  0.00004885  0.00005231
  0.00005594  0.00006522  0.00007280  0.00007856  0.00009181  0.00010120  0.00010302  0.00012397
  0.00013434  0.00015060  0.00018765  0.00021085  0.00022485  0.00025645  0.00029370  0.00031541
  0.00032639  0.00037868  0.00039220  0.00041610  0.00041831  0.00048552  0.00059308  0.00059313
  0.00059670  0.00059710  0.00060868  0.00061707  0.00062824  0.00064106  0.00065413  0.00065934
  0.00074863  0.00076121  0.00083209  0.00103873  0.00104952  0.00105230  0.00111199  0.00111451
  0.00111942  0.00112480  0.00116107  0.00116152  0.00117026  0.00117026  0.00175677  0.00175763
  0.00178808  0.00197563  0.00254067  0.00264678  0.00301614  0.00318286  0.00350939  0.00360694
  0.00400084  0.00401095
 Checking for correct frequencies
 recalc frequencies=
    -0.0   -0.0    0.0    0.0    0.0    0.0   90.9  121.0  235.6  235.8
   269.0  386.9  395.9  398.0  478.5  484.0  506.6  535.6  591.1  617.6
   642.4  661.3  740.4  758.9  763.3  769.6  781.9  820.9  844.0  865.9
   894.8  911.2  918.8  929.2  967.4  972.2  995.1  996.0 1026.2 1031.0
  1126.7 1158.7 1173.1 1188.6 1189.9 1210.6 1289.6 1290.6 1294.6 1339.0
  1375.8 1414.3 1414.6 1427.6 1482.0 1486.9 1516.7 1579.3 1593.7 1624.4
  1667.9 1670.3 3153.0 3155.1 3156.9 3157.8 3161.5 3163.0 3174.8 3175.1
  3187.0 3187.5
 recalc symmetries=
     B3g    B3u    B1g    B2u    B2g    B1u    B3u    Au     B1g    B1u
     B2g    B3u    B3g    Ag     B3u    B1g    Au     B3g    B2g    B2u
     Ag     B1u    B3u    Au     Ag     B1g    B2g    B2u    B2g    Au 
     B3u    B2g    B1u    B3g    B1g    B3u    Au     B2g    B2u    Ag 
     B3g    B2u    B1u    B2u    Ag     B3g    Ag     B1u    B3g    B1u
     B2u    B3g    B2u    Ag     B2u    B1u    Ag     B2u    Ag     B3g
     B3g    B1u    B1u    Ag     B3g    B1u    B2u    Ag     B3g    B1u
     B2u    Ag 
 recalc freqs check OK
 Zero-point lengths:
 10.0000 10.0000 10.0000 10.0000 10.0000 10.0000 26.0060 22.5395 16.1510 16.1439
 15.1150 12.6035 12.4593 12.4265 11.3338 11.2692 11.0146 10.7121 10.1966  9.9757
  9.7811  9.6406  9.1109  8.9991  8.9730  8.9365  8.8659  8.6529  8.5337  8.4248
  8.2876  8.2126  8.1788  8.1328  7.9705  7.9510  7.8590  7.8553  7.7388  7.7209
  7.3856  7.2829  7.2380  7.1908  7.1868  7.1251  6.9034  6.9007  6.8901  6.7750
  6.6837  6.5922  6.5913  6.5614  6.4398  6.4293  6.3657  6.2383  6.2100  6.1511
  6.0703  6.0659  4.4150  4.4136  4.4123  4.4117  4.4091  4.4081  4.3998  4.3996
  4.3914  4.3911
 highest evec of mol 1
  0.0000  0.0064 -0.0634
  0.0000  0.0027  0.0005
  0.0000  0.0000 -0.0093
  0.0000 -0.0027  0.0005
  0.0000 -0.0064 -0.0634
  0.0000  0.1175 -0.0660
  0.0000  0.1175  0.0660
  0.0000 -0.0064  0.0634
  0.0000 -0.0027 -0.0005
  0.0000  0.0000  0.0093
  0.0000  0.0027 -0.0005
  0.0000  0.0064  0.0634
  0.0000 -0.1175  0.0660
  0.0000 -0.1175 -0.0660
  0.0000 -0.0018  0.1977
  0.0000  0.0000  0.0312
  0.0000  0.0018  0.1977
  0.0000 -0.3774  0.2138
  0.0000 -0.3774 -0.2138
  0.0000  0.0018 -0.1977
  0.0000  0.0000 -0.0312
  0.0000 -0.0018 -0.1977
  0.0000  0.3774 -0.2138
  0.0000  0.3774  0.2138
 generating redundant internal coords
         300        3600          24
 Adding extra bonds for z output only
           6           6           6           6           6           6
           6           6           6           6           6           6
           6           6           1           1           1           1
           1           1           1           1           1           1
 search for int coords
   1 str   2   1   1.429
   2 str   3   2   1.398
   3 str   4   3   1.398
   4 str   5   4   1.429
   5 str   6   5   1.367
   6 str   7   6   1.424
   7 str   8   7   1.367
   8 str   9   4   1.443
   9 str   9   8   1.429
  10 str  10   9   1.398
  11 str  11   2   1.443
  12 str  11  10   1.398
  13 str  12  11   1.429
  14 str  13  12   1.367
  15 str  14   1   1.367
  16 str  14  13   1.424
  17 str  15   1   1.085
  18 str  16   3   1.086
  19 str  17   5   1.085
  20 str  18   6   1.084
  21 str  19   7   1.084
  22 str  20   8   1.085
  23 str  21  10   1.086
  24 str  22  12   1.085
  25 str  23  13   1.084
  26 str  24  14   1.084
 nber stretches=          26
  27 ben   1   2   3
  28 prop tor   1   2   3   4
  29 prop tor   1   2   3  16
  30 ben   1   2  11
  31 prop tor   1   2  11  10
  32 prop tor   1   2  11  12
  33 ben   1  14  13
  34 ben   1  14  24
  35 ben   2   1  14
  36 prop tor   2   1  14  13
  37 prop tor   2   1  14  24
  38 ben   2   1  15
  39 ben   2   3   4
  40 prop tor   2   3   4   5
  41 prop tor   2   3   4   9
  42 ben   2   3  16
  43 ben   2  11  10
  44 ben   2  11  12
  45 prop tor   2  11  12  13
  46 prop tor   2  11  12  22
  47 ben   3   2  11
  48 prop tor   3   2  11  10
  49 prop tor   3   2  11  12
  50 ben   3   4   5
  51 prop tor   3   4   5   6
  52 prop tor   3   4   5  17
  53 ben   3   4   9
  54 prop tor   3   4   9   8
  55 prop tor   3   4   9  10
  56 ben   4   3  16
  57 ben   4   5   6
  58 prop tor   4   5   6   7
  59 prop tor   4   5   6  18
  60 ben   4   5  17
  61 ben   4   9   8
  62 ben   4   9  10
  63 prop tor   4   9  10  11
  64 prop tor   4   9  10  21
  65 ben   5   4   9
  66 prop tor   5   4   9   8
  67 prop tor   5   4   9  10
  68 ben   5   6   7
  69 prop tor   5   6   7   8
  70 prop tor   5   6   7  19
  71 ben   5   6  18
  72 ben   6   5  17
  73 ben   6   7   8
  74 prop tor   6   7   8   9
  75 prop tor   6   7   8  20
  76 ben   6   7  19
  77 ben   7   6  18
  78 ben   7   8   9
  79 prop tor   7   8   9   4
  80 prop tor   7   8   9  10
  81 ben   7   8  20
  82 ben   8   7  19
  83 ben   8   9  10
  84 prop tor   8   9  10  11
  85 prop tor   8   9  10  21
  86 prop tor   9   4   5   6
  87 prop tor   9   4   5  17
  88 ben   9   8  20
  89 ben   9  10  11
  90 prop tor   9  10  11   2
  91 prop tor   9  10  11  12
  92 ben   9  10  21
  93 ben  10  11  12
  94 prop tor  10  11  12  13
  95 prop tor  10  11  12  22
  96 prop tor  11   2   3   4
  97 prop tor  11   2   3  16
  98 ben  11  10  21
  99 ben  11  12  13
 100 prop tor  11  12  13  14
 101 prop tor  11  12  13  23
 102 ben  11  12  22
 103 ben  12  13  14
 104 prop tor  12  13  14   1
 105 prop tor  12  13  14  24
 106 ben  12  13  23
 107 ben  13  12  22
 108 ben  13  14  24
 109 prop tor  14   1   2   3
 110 prop tor  14   1   2  11
 111 ben  14   1  15
 112 ben  14  13  23
 113 prop tor  15   1   2   3
 114 prop tor  15   1   2  11
 115 prop tor  15   1  14  13
 116 prop tor  15   1  14  24
 117 prop tor  16   3   4   5
 118 prop tor  16   3   4   9
 119 prop tor  17   5   6   7
 120 prop tor  17   5   6  18
 121 prop tor  18   6   7   8
 122 prop tor  18   6   7  19
 123 prop tor  19   7   8   9
 124 prop tor  19   7   8  20
 125 prop tor  20   8   9   4
 126 prop tor  20   8   9  10
 127 prop tor  21  10  11   2
 128 prop tor  21  10  11  12
 129 prop tor  22  12  13  14
 130 prop tor  22  12  13  23
 131 prop tor  23  13  14   1
 132 prop tor  23  13  14  24
 nber bend=              42
 nber lin bend=           0
 nber prop tor=          64
 nber impr tor=           0
 nber tot redund int=         132
 Reading file: 
 ./Benzene_Conj_2_C1S0.log                                                      
                                          
  Entering Gaussian System, Link 0=g16                                          
  
 Gaussian format, type: g94, g98, g03= F F F
  #P Geom=AllCheck Guess=TCheck SCRF=Check GenChk UB3LYP/6-311G(d,p) Fre    
 energy type= B3LYP   
 Original G94 input coords:
  6  2.465220 -1.405052  0.000000
  6  1.230300 -0.719346  0.000000
  6  0.000000 -1.403583  0.000000
  6 -1.230300 -0.719346  0.000000
  6 -2.465220 -1.405052  0.000000
  6 -3.661854 -0.701508  0.000000
  6 -3.661854  0.701508  0.000000
  6 -2.465220  1.405052  0.000000
  6 -1.230300  0.719346  0.000000
  6  0.000000  1.403583  0.000000
  6  1.230300  0.719346  0.000000
  6  2.465220  1.405052  0.000000
  6  3.661854  0.701508  0.000000
  6  3.661854 -0.701508  0.000000
  1  2.471430 -2.489089  0.000000
  1  0.000000 -2.488841  0.000000
  1 -2.471430 -2.489089  0.000000
  1 -4.602315 -1.238796  0.000000
  1 -4.602315  1.238796  0.000000
  1 -2.471430  2.489089  0.000000
  1  0.000000  2.488841  0.000000
  1  2.471430  2.489089  0.000000
  1  4.602315  1.238796  0.000000
  1  4.602315 -1.238796  0.000000
 nber atoms=          24
 Original standard coords:
  6  0.000000  2.465220  1.405052
  6  0.000000  1.230300  0.719346
  6  0.000000  0.000000  1.403583
  6  0.000000 -1.230300  0.719346
  6  0.000000 -2.465220  1.405052
  6  0.000000 -3.661854  0.701508
  6  0.000000 -3.661854 -0.701508
  6  0.000000 -2.465220 -1.405052
  6  0.000000 -1.230300 -0.719346
  6  0.000000  0.000000 -1.403583
  6  0.000000  1.230300 -0.719346
  6  0.000000  2.465220 -1.405052
  6  0.000000  3.661854 -0.701508
  6  0.000000  3.661854  0.701508
  1  0.000000  2.471430  2.489089
  1  0.000000  0.000000  2.488841
  1  0.000000 -2.471430  2.489089
  1  0.000000 -4.602315  1.238796
  1  0.000000 -4.602315 -1.238796
  1  0.000000 -2.471430 -2.489089
  1  0.000000  0.000000 -2.488841
  1  0.000000  2.471430 -2.489089
  1  0.000000  4.602315 -1.238796
  1  0.000000  4.602315  1.238796
  SCF Done:  E(UB3LYP) =  -539.396501546     A.U. after    1 cycles             
  
          23          40 "  -539.396501546"
After scan for Atom:   Atom  AN      X      Y      Z        X      Y      Z        X      Y      Z   
After scan for Atom:   Atom  AN      X      Y      Z        X      Y      Z        X      Y      Z   
After scan for Atom:   Atom  AN      X      Y      Z        X      Y      Z        X      Y      Z   
After scan for Atom:   Atom  AN      X      Y      Z        X      Y      Z        X      Y      Z   
After scan for Atom:   Atom  AN      X      Y      Z        X      Y      Z        X      Y      Z   
After scan for Atom:   Atom  AN      X      Y      Z        X      Y      Z        X      Y      Z   
After scan for Atom:   Atom  AN      X      Y      Z        X      Y      Z        X      Y      Z   
After scan for Atom:   Atom  AN      X      Y      Z        X      Y      Z        X      Y      Z   
After scan for Atom:   Atom  AN      X      Y      Z        X      Y      Z        X      Y      Z   
After scan for Atom:   Atom  AN      X      Y      Z        X      Y      Z        X      Y      Z   
After scan for Atom:   Atom  AN      X      Y      Z        X      Y      Z        X      Y      Z   
After scan for Atom:   Atom  AN      X      Y      Z        X      Y      Z        X      Y      Z   
After scan for Atom:   Atom  AN      X      Y      Z        X      Y      Z        X      Y      Z   
After scan for Atom:   Atom  AN      X      Y      Z        X      Y      Z        X      Y      Z   
After scan for Atom:   Atom  AN      X      Y      Z        X      Y      Z        X      Y      Z   
After scan for Atom:   Atom  AN      X      Y      Z        X      Y      Z        X      Y      Z   
After scan for Atom:   Atom  AN      X      Y      Z        X      Y      Z        X      Y      Z   
After scan for Atom:   Atom  AN      X      Y      Z        X      Y      Z        X      Y      Z   
After scan for Atom:   Atom  AN      X      Y      Z        X      Y      Z        X      Y      Z   
After scan for Atom:   Atom  AN      X      Y      Z        X      Y      Z        X      Y      Z   
After scan for Atom:   Atom  AN      X      Y      Z        X      Y      Z        X      Y      Z   
After scan for Atom:   Atom  AN      X      Y      Z        X      Y      Z        X      Y      Z   
 g94    frequencies=
     0.0    0.0    0.0    0.0    0.0    0.0   85.5  118.8  219.1  234.3
   270.1  383.6  386.6  395.1  444.2  460.6  482.7  519.3  560.4  610.0
   627.8  667.8  736.3  756.5  763.5  767.9  775.3  832.1  869.0  900.4
   916.3  927.0  930.0  943.0  994.7 1000.4 1028.8 1030.0 1051.4 1051.7
  1121.3 1158.9 1189.3 1204.4 1210.1 1210.6 1282.9 1301.7 1308.1 1318.8
  1375.2 1410.2 1429.5 1432.1 1485.5 1485.5 1535.1 1553.5 1571.4 1574.3
  1599.1 1616.3 3176.2 3178.2 3184.1 3184.4 3187.1 3187.7 3198.3 3198.4
  3208.3 3208.4
 g94    symmetries=
                                                B3     AU     B1     B1
      B2     B3     B3     AG     B3     B1     AU     B3     B2     B2
      AG     B1     AU     B2     AG     B3     B1     B2     B2     AU
      B1     B3     B3     B2     B1     B3     AU     B2     B2     AG
      B3     B1     B2     AG     B3     B2     AG     B3     B1     B1
      B2     AG     B3     B2     B2     B1     AG     B3     B2     B3
      AG     B1     B1     AG     B3     B1     B2     AG     B3     B1
      B2     AG
 atomic masses:
 12.0000 12.0000 12.0000 12.0000 12.0000 12.0000 12.0000 12.0000 12.0000 12.0000
 12.0000 12.0000 12.0000 12.0000  1.0078  1.0078  1.0078  1.0078  1.0078  1.0078
  1.0078  1.0078  1.0078  1.0078
 looking for force constants in 
 ./Benzene_Conj_2_C1S0.fchk                                                     
  
 Cartesian Force Constants                  R   N=        2628                  
  
 n3=          72        2628
 g94-fc frequencies=
    -3.0   -1.7   -1.0   -0.0   -0.0    0.0   85.5  118.8  219.1  234.3
   270.1  383.7  386.6  395.1  444.2  460.6  482.7  519.3  560.4  610.0
   627.8  667.8  736.3  756.5  763.6  767.9  775.3  832.1  869.0  900.4
   916.3  927.1  930.1  943.0  994.7 1000.4 1028.8 1030.0 1051.5 1051.7
  1121.3 1159.0 1189.3 1204.4 1210.2 1210.6 1282.9 1301.7 1308.1 1318.9
  1375.3 1410.2 1429.5 1432.1 1485.5 1485.6 1535.1 1553.5 1571.5 1574.3
  1599.2 1616.3 3176.3 3178.2 3184.2 3184.4 3187.1 3187.7 3198.4 3198.5
  3208.3 3208.4
 at 99999: n3=          72
 symm operator            1 :  T  nop=           1
 symm operator            2 :  T  nop=           2
 symm operator            3 :  T  nop=           3
 symm operator            4 :  T  nop=           4
 symm operator            5 :  T  nop=           5
 symm operator            6 :  T  nop=           6
 symm operator            7 :  T  nop=           7
 The point group of the molecule is D2H
 enforcing symm op           1  jsymt=          -1          -1           1
 enforcing symm op           2  jsymt=          -1           1          -1
 enforcing symm op           3  jsymt=           1          -1          -1
 enforcing symm op           4  jsymt=          -1          -1          -1
 enforcing symm op           5  jsymt=           1           1          -1
 enforcing symm op           6  jsymt=           1          -1           1
 enforcing symm op           7  jsymt=          -1           1           1
 cartesian coord symmetries:
 Ag :   12 Au :    5 B1g:    5 B1u:   12 B2g:    7 B2u:   12 B3g:   12 B3u:    7
 Symmetry rotation matrix:
   1.00000   0.00000   0.00000
   0.00000   1.00000   0.00000
   0.00000   0.00000   1.00000

 Projecting out zero-frequency components
 generating redundant internal coords
         300        3600          24
 search for int coords
   1 str   2   1   1.413
   2 str   3   2   1.408
   3 str   4   3   1.408
   4 str   5   4   1.413
   5 str   6   5   1.388
   6 str   7   6   1.403
   7 str   8   7   1.388
   8 str   9   4   1.439
   9 str   9   8   1.413
  10 str  10   9   1.408
  11 str  11   2   1.439
  12 str  11  10   1.408
  13 str  12  11   1.413
  14 str  13  12   1.388
  15 str  14   1   1.388
  16 str  14  13   1.403
  17 str  15   1   1.084
  18 str  16   3   1.085
  19 str  17   5   1.084
  20 str  18   6   1.083
  21 str  19   7   1.083
  22 str  20   8   1.084
  23 str  21  10   1.085
  24 str  22  12   1.084
  25 str  23  13   1.083
  26 str  24  14   1.083
 nber stretches=          26
  27 ben   1   2   3
  28 prop tor   1   2   3   4
  29 prop tor   1   2   3  16
  30 ben   1   2  11
  31 prop tor   1   2  11  10
  32 prop tor   1   2  11  12
  33 ben   1  14  13
  34 ben   1  14  24
  35 ben   2   1  14
  36 prop tor   2   1  14  13
  37 prop tor   2   1  14  24
  38 ben   2   1  15
  39 ben   2   3   4
  40 prop tor   2   3   4   5
  41 prop tor   2   3   4   9
  42 ben   2   3  16
  43 ben   2  11  10
  44 ben   2  11  12
  45 prop tor   2  11  12  13
  46 prop tor   2  11  12  22
  47 ben   3   2  11
  48 prop tor   3   2  11  10
  49 prop tor   3   2  11  12
  50 ben   3   4   5
  51 prop tor   3   4   5   6
  52 prop tor   3   4   5  17
  53 ben   3   4   9
  54 prop tor   3   4   9   8
  55 prop tor   3   4   9  10
  56 ben   4   3  16
  57 ben   4   5   6
  58 prop tor   4   5   6   7
  59 prop tor   4   5   6  18
  60 ben   4   5  17
  61 ben   4   9   8
  62 ben   4   9  10
  63 prop tor   4   9  10  11
  64 prop tor   4   9  10  21
  65 ben   5   4   9
  66 prop tor   5   4   9   8
  67 prop tor   5   4   9  10
  68 ben   5   6   7
  69 prop tor   5   6   7   8
  70 prop tor   5   6   7  19
  71 ben   5   6  18
  72 ben   6   5  17
  73 ben   6   7   8
  74 prop tor   6   7   8   9
  75 prop tor   6   7   8  20
  76 ben   6   7  19
  77 ben   7   6  18
  78 ben   7   8   9
  79 prop tor   7   8   9   4
  80 prop tor   7   8   9  10
  81 ben   7   8  20
  82 ben   8   7  19
  83 ben   8   9  10
  84 prop tor   8   9  10  11
  85 prop tor   8   9  10  21
  86 prop tor   9   4   5   6
  87 prop tor   9   4   5  17
  88 ben   9   8  20
  89 ben   9  10  11
  90 prop tor   9  10  11   2
  91 prop tor   9  10  11  12
  92 ben   9  10  21
  93 ben  10  11  12
  94 prop tor  10  11  12  13
  95 prop tor  10  11  12  22
  96 prop tor  11   2   3   4
  97 prop tor  11   2   3  16
  98 ben  11  10  21
  99 ben  11  12  13
 100 prop tor  11  12  13  14
 101 prop tor  11  12  13  23
 102 ben  11  12  22
 103 ben  12  13  14
 104 prop tor  12  13  14   1
 105 prop tor  12  13  14  24
 106 ben  12  13  23
 107 ben  13  12  22
 108 ben  13  14  24
 109 prop tor  14   1   2   3
 110 prop tor  14   1   2  11
 111 ben  14   1  15
 112 ben  14  13  23
 113 prop tor  15   1   2   3
 114 prop tor  15   1   2  11
 115 prop tor  15   1  14  13
 116 prop tor  15   1  14  24
 117 prop tor  16   3   4   5
 118 prop tor  16   3   4   9
 119 prop tor  17   5   6   7
 120 prop tor  17   5   6  18
 121 prop tor  18   6   7   8
 122 prop tor  18   6   7  19
 123 prop tor  19   7   8   9
 124 prop tor  19   7   8  20
 125 prop tor  20   8   9   4
 126 prop tor  20   8   9  10
 127 prop tor  21  10  11   2
 128 prop tor  21  10  11  12
 129 prop tor  22  12  13  14
 130 prop tor  22  12  13  23
 131 prop tor  23  13  14   1
 132 prop tor  23  13  14  24
 nber bend=              42
 nber lin bend=           0
 nber prop tor=          64
 nber impr tor=           0
 nber tot redund int=         132
 Eigenvalues of G in red int coords
    Gval -0.00000000 -0.00000000 -0.00000000 -0.00000000 -0.00000000 -0.00000000 -0.00000000 -0.00000000
    Gval -0.00000000 -0.00000000 -0.00000000 -0.00000000 -0.00000000 -0.00000000 -0.00000000 -0.00000000
    Gval -0.00000000 -0.00000000 -0.00000000 -0.00000000 -0.00000000 -0.00000000 -0.00000000 -0.00000000
    Gval -0.00000000 -0.00000000 -0.00000000 -0.00000000 -0.00000000 -0.00000000 -0.00000000 -0.00000000
    Gval -0.00000000 -0.00000000 -0.00000000  0.00000000  0.00000000  0.00000000  0.00000000  0.00000000
    Gval  0.00000000  0.00000000  0.00000000  0.00000000  0.00000000  0.00000000  0.00000000  0.00000000
    Gval  0.00000000  0.00000000  0.00000000  0.00000000  0.00000000  0.00000000  0.00000000  0.00000000
    Gval  0.00000000  0.00000000  0.00000000  0.00000000  0.00000000  0.00000000  0.00000000  0.00000000
    Gval  0.00000000  0.00000000  0.00000848  0.00000984  0.00002852  0.00003503  0.00003515  0.00004258
    Gval  0.00004867  0.00005247  0.00005615  0.00006518  0.00007366  0.00007849  0.00009198  0.00010065
    Gval  0.00010306  0.00012344  0.00013369  0.00014974  0.00018935  0.00020894  0.00021703  0.00025730
    Gval  0.00029812  0.00031444  0.00032686  0.00037982  0.00039492  0.00041491  0.00041703  0.00047781
    Gval  0.00059310  0.00059315  0.00059679  0.00059720  0.00060850  0.00061704  0.00062743  0.00064026
    Gval  0.00065414  0.00065901  0.00074556  0.00076072  0.00082550  0.00102761  0.00105224  0.00105503
    Gval  0.00111545  0.00111898  0.00111935  0.00112579  0.00116001  0.00116056  0.00117209  0.00117209
    Gval  0.00176593  0.00177115  0.00179684  0.00198748  0.00255963  0.00267118  0.00300951  0.00318023
    Gval  0.00350829  0.00360632  0.00400857  0.00401831
  8.484783624996065E-006  8.484783624996065E-006
  9.840847497099958E-006  8.484783624996065E-006
  2.852246528874832E-005  8.484783624996065E-006
  3.503046955122743E-005  8.484783624996065E-006
  3.514745560951701E-005  8.484783624996065E-006
  4.257683192616457E-005  8.484783624996065E-006
  4.866594620576787E-005  8.484783624996065E-006
  5.247136839569490E-005  8.484783624996065E-006
  5.615318939904350E-005  8.484783624996065E-006
  6.517707054745995E-005  8.484783624996065E-006
  7.366401307273329E-005  8.484783624996065E-006
  7.849425171777919E-005  8.484783624996065E-006
  9.198170030780782E-005  8.484783624996065E-006
  1.006523969165820E-004  8.484783624996065E-006
  1.030636309057890E-004  8.484783624996065E-006
  1.234395647012305E-004  8.484783624996065E-006
  1.336934307039253E-004  8.484783624996065E-006
  1.497416525111701E-004  8.484783624996065E-006
  1.893478230882632E-004  8.484783624996065E-006
  2.089394867697432E-004  8.484783624996065E-006
  2.170279157991253E-004  8.484783624996065E-006
  2.573006159620536E-004  8.484783624996065E-006
  2.981170344888882E-004  8.484783624996065E-006
  3.144389791724745E-004  8.484783624996065E-006
  3.268560035577006E-004  8.484783624996065E-006
  3.798156277238226E-004  8.484783624996065E-006
  3.949236285419795E-004  8.484783624996065E-006
  4.149093903641624E-004  8.484783624996065E-006
  4.170341669753120E-004  8.484783624996065E-006
  4.778093962743744E-004  8.484783624996065E-006
  5.930966219403790E-004  8.484783624996065E-006
  5.931478991592649E-004  8.484783624996065E-006
  5.967885960963012E-004  8.484783624996065E-006
  5.972000820253726E-004  8.484783624996065E-006
  6.084971471721217E-004  8.484783624996065E-006
  6.170405813976414E-004  8.484783624996065E-006
  6.274308973484230E-004  8.484783624996065E-006
  6.402577622570978E-004  8.484783624996065E-006
  6.541380656056091E-004  8.484783624996065E-006
  6.590140134262142E-004  8.484783624996065E-006
  7.455554707621917E-004  8.484783624996065E-006
  7.607197985650552E-004  8.484783624996065E-006
  8.254988220258081E-004  8.484783624996065E-006
  1.027605833985760E-003  8.484783624996065E-006
  1.052236281596674E-003  8.484783624996065E-006
  1.055025482310511E-003  8.484783624996065E-006
  1.115447903874458E-003  8.484783624996065E-006
  1.118984946715848E-003  8.484783624996065E-006
  1.119351904740410E-003  8.484783624996065E-006
  1.125786999659280E-003  8.484783624996065E-006
  1.160014206342009E-003  8.484783624996065E-006
  1.160560215590726E-003  8.484783624996065E-006
  1.172087099814006E-003  8.484783624996065E-006
  1.172089251994715E-003  8.484783624996065E-006
  1.765932123524105E-003  8.484783624996065E-006
  1.771150771567176E-003  8.484783624996065E-006
  1.796837269229377E-003  8.484783624996065E-006
  1.987480543666353E-003  8.484783624996065E-006
  2.559626530554835E-003  8.484783624996065E-006
  2.671179382298484E-003  8.484783624996065E-006
  3.009506386776895E-003  8.484783624996065E-006
  3.180230253561753E-003  8.484783624996065E-006
  3.508293319483981E-003  8.484783624996065E-006
  3.606320748716775E-003  8.484783624996065E-006
  4.008571979774589E-003  8.484783624996065E-006
  4.018310596395003E-003  8.484783624996065E-006
 cut=1d-8, nber non-redundant internal coords=          66
 Check on Eigenvals of non-red overlap matrix:
  0.00000848  0.00000984  0.00002852  0.00003503  0.00003515  0.00004258  0.00004867  0.00005247
  0.00005615  0.00006518  0.00007366  0.00007849  0.00009198  0.00010065  0.00010306  0.00012344
  0.00013369  0.00014974  0.00018935  0.00020894  0.00021703  0.00025730  0.00029812  0.00031444
  0.00032686  0.00037982  0.00039492  0.00041491  0.00041703  0.00047781  0.00059310  0.00059315
  0.00059679  0.00059720  0.00060850  0.00061704  0.00062743  0.00064026  0.00065414  0.00065901
  0.00074556  0.00076072  0.00082550  0.00102761  0.00105224  0.00105503  0.00111545  0.00111898
  0.00111935  0.00112579  0.00116001  0.00116056  0.00117209  0.00117209  0.00176593  0.00177115
  0.00179684  0.00198748  0.00255963  0.00267118  0.00300951  0.00318023  0.00350829  0.00360632
  0.00400857  0.00401831
 Checking for correct frequencies
 recalc frequencies=
    -0.0   -0.0   -0.0   -0.0    0.0    0.0   85.5  118.8  219.1  234.3
   270.1  383.7  386.6  395.1  444.2  460.6  482.7  519.3  560.4  610.0
   627.8  667.8  736.3  756.5  763.6  767.9  775.3  832.1  869.0  900.4
   916.3  927.1  930.1  943.0  994.7 1000.4 1028.8 1030.0 1051.5 1051.7
  1121.3 1159.0 1189.3 1204.4 1210.2 1210.6 1282.9 1301.7 1308.1 1318.9
  1375.3 1410.2 1429.5 1432.1 1485.5 1485.6 1535.1 1553.5 1571.5 1574.3
  1599.2 1616.3 3176.3 3178.2 3184.2 3184.4 3187.1 3187.7 3198.4 3198.5
  3208.3 3208.4
 recalc symmetries=
     B3g    B1u    B2g    B3u    B1g    B2u    B3u    Au     B1g    B1u
     B2g    B3u    B3g    Ag     B3u    B1g    Au     B3g    B2g    B2u
     Ag     B1u    Au     B2g    Ag     B3u    B1g    B2u    B2g    Au 
     B1u    B3g    B3u    B2g    B1g    B3u    Au     B2g    B2u    Ag 
     B3g    B1u    B2u    Ag     B3g    B2u    Ag     B3g    B1u    B1u
     B2u    Ag     B3g    B2u    B2u    B1u    Ag     B3g    B2u    B3g
     Ag     B1u    B1u    Ag     B3g    B1u    B2u    Ag     B3g    B1u
     B2u    Ag 
 recalc freqs check OK
 Zero-point lengths:
 10.0000 10.0000 10.0000 10.0000 10.0000 10.0000 26.8118 22.7474 16.7465 16.1961
 15.0845 12.6569 12.6080 12.4721 11.7621 11.5518 11.2837 10.8791 10.4724 10.0372
  9.8944  9.5935  9.1364  9.0133  8.9717  8.9464  8.9034  8.5943  8.4098  8.2617
  8.1898  8.1422  8.1290  8.0731  7.8603  7.8379  7.7292  7.7246  7.6454  7.6446
  7.4035  7.2822  7.1885  7.1434  7.1264  7.1251  6.9215  6.8713  6.8544  6.8265
  6.6850  6.6017  6.5569  6.5510  6.4321  6.4320  6.3274  6.2897  6.2538  6.2482
  6.1994  6.1664  4.3988  4.3975  4.3934  4.3932  4.3913  4.3909  4.3836  4.3835
  4.3768  4.3767
 highest evec of mol 2
  0.0000  0.0055 -0.0493
  0.0000  0.0025  0.0006
  0.0000  0.0000 -0.0030
  0.0000 -0.0025  0.0006
  0.0000 -0.0055 -0.0493
  0.0000  0.1211 -0.0722
  0.0000  0.1211  0.0722
  0.0000 -0.0055  0.0493
  0.0000 -0.0025 -0.0006
  0.0000  0.0000  0.0030
  0.0000  0.0025 -0.0006
  0.0000  0.0055  0.0493
  0.0000 -0.1211  0.0722
  0.0000 -0.1211 -0.0722
  0.0000 -0.0009  0.1522
  0.0000  0.0000  0.0098
  0.0000  0.0009  0.1522
  0.0000 -0.3921  0.2252
  0.0000 -0.3921 -0.2252
  0.0000  0.0009 -0.1522
  0.0000  0.0000 -0.0098
  0.0000 -0.0009 -0.1522
  0.0000  0.3921 -0.2252
  0.0000  0.3921  0.2252
 Enter nber and list of atoms to keep of mol #2
 keep list:          24           1           2           3           4
           5           6           7           8           9          10
          11          12          13          14          15          16
          17          18          19          20          21          22
          23          24
 reordering atoms
           1   2.46522000000000     
           2   1.23030000000000     
           3  8.458842092382145E-017
           4  -1.23030000000000     
           5  -2.46522000000000     
           6  -3.66185400000000     
           7  -3.66185400000000     
           8  -2.46522000000000     
           9  -1.23030000000000     
          10  8.458842092382145E-017
          11   1.23030000000000     
          12   2.46522000000000     
          13   3.66185400000000     
          14   3.66185400000000     
          15   2.47143000000000     
          16  8.458842092382145E-017
          17  -2.47143000000000     
          18  -4.60231500000000     
          19  -4.60231500000000     
          20  -2.47143000000000     
          21  8.458842092382145E-017
          22   2.47143000000000     
          23   4.60231500000000     
          24   4.60231500000000     
           1           1
           2           2
           3           3
           4           4
           5           5
           6           6
           7           7
           8           8
           9           9
          10          10
          11          11
          12          12
          13          13
          14          14
          15          15
          16          16
          17          17
          18          18
          19          19
          20          20
          21          21
          22          22
          23          23
          24          24
 initial cartes coords mol 1
   6   0.00000   1.40483   2.47671
   6   0.00000   0.72155   1.22187
   6   0.00000   1.40160   0.00000
   6   0.00000   0.72155  -1.22187
   6   0.00000   1.40483  -2.47671
   6   0.00000   0.71222  -3.65489
   6   0.00000  -0.71222  -3.65489
   6   0.00000  -1.40483  -2.47671
   6   0.00000  -0.72155  -1.22187
   6   0.00000  -1.40160   0.00000
   6   0.00000  -0.72155   1.22187
   6   0.00000  -1.40483   2.47671
   6   0.00000  -0.71222   3.65489
   6   0.00000   0.71222   3.65489
   1   0.00000   2.48989   2.47615
   1   0.00000   2.48750   0.00000
   1   0.00000   2.48989  -2.47615
   1   0.00000   1.24447  -4.59942
   1   0.00000  -1.24447  -4.59942
   1   0.00000  -2.48989  -2.47615
   1   0.00000  -2.48750   0.00000
   1   0.00000  -2.48989   2.47615
   1   0.00000  -1.24447   4.59942
   1   0.00000   1.24447   4.59942
 initial cartes coords mol 2
   6   0.00000   1.40505   2.46522
   6   0.00000   0.71935   1.23030
   6   0.00000   1.40358   0.00000
   6   0.00000   0.71935  -1.23030
   6   0.00000   1.40505  -2.46522
   6   0.00000   0.70151  -3.66185
   6   0.00000  -0.70151  -3.66185
   6   0.00000  -1.40505  -2.46522
   6   0.00000  -0.71935  -1.23030
   6   0.00000  -1.40358   0.00000
   6   0.00000  -0.71935   1.23030
   6   0.00000  -1.40505   2.46522
   6   0.00000  -0.70151   3.66185
   6   0.00000   0.70151   3.66185
   1   0.00000   2.48909   2.47143
   1   0.00000   2.48884   0.00000
   1   0.00000   2.48909  -2.47143
   1   0.00000   1.23880  -4.60231
   1   0.00000  -1.23880  -4.60231
   1   0.00000  -2.48909  -2.47143
   1   0.00000  -2.48884   0.00000
   1   0.00000  -2.48909   2.47143
   1   0.00000  -1.23880   4.60231
   1   0.00000   1.23880   4.60231
 loop 1 0
 mod cartes coords mol 2
   6   0.00000   1.40505   2.46522
   6   0.00000   0.71935   1.23030
   6   0.00000   1.40358   0.00000
   6   0.00000   0.71935  -1.23030
   6   0.00000   1.40505  -2.46522
   6   0.00000   0.70151  -3.66185
   6   0.00000  -0.70151  -3.66185
   6   0.00000  -1.40505  -2.46522
   6   0.00000  -0.71935  -1.23030
   6   0.00000  -1.40358   0.00000
   6   0.00000  -0.71935   1.23030
   6   0.00000  -1.40505   2.46522
   6   0.00000  -0.70151   3.66185
   6   0.00000   0.70151   3.66185
   1   0.00000   2.48909   2.47143
   1   0.00000   2.48884   0.00000
   1   0.00000   2.48909  -2.47143
   1   0.00000   1.23880  -4.60231
   1   0.00000  -1.23880  -4.60231
   1   0.00000  -2.48909  -2.47143
   1   0.00000  -2.48884   0.00000
   1   0.00000  -2.48909   2.47143
   1   0.00000  -1.23880   4.60231
   1   0.00000   1.23880   4.60231
 read in order, maxerr=  0.01 for atom   7
 final axis swaps:           1           1           1
 final xyz swap pattern=           1
 reorder list:
   1   2   3   4   5   6   7   8   9  10  11  12  13  14  15  16  17  18  19  20
  21  22  23  24
 axis signs=           1           1           1
  6     0.000000  1.405052  2.465220     0.000000  1.404830  2.476712
  6     0.000000  0.719346  1.230300     0.000000  0.721547  1.221874
  6     0.000000  1.403583  0.000000     0.000000  1.401596  0.000000
  6     0.000000  0.719346 -1.230300     0.000000  0.721547 -1.221874
  6     0.000000  1.405052 -2.465220     0.000000  1.404830 -2.476712
  6     0.000000  0.701508 -3.661854     0.000000  0.712222 -3.654888
  6     0.000000 -0.701508 -3.661854     0.000000 -0.712222 -3.654888
  6     0.000000 -1.405052 -2.465220     0.000000 -1.404830 -2.476712
  6     0.000000 -0.719346 -1.230300     0.000000 -0.721547 -1.221874
  6     0.000000 -1.403583  0.000000     0.000000 -1.401596  0.000000
  6     0.000000 -0.719346  1.230300     0.000000 -0.721547  1.221874
  6     0.000000 -1.405052  2.465220     0.000000 -1.404830  2.476712
  6     0.000000 -0.701508  3.661854     0.000000 -0.712222  3.654888
  6     0.000000  0.701508  3.661854     0.000000  0.712222  3.654888
  1     0.000000  2.489089  2.471430     0.000000  2.489888  2.476147
  1     0.000000  2.488841  0.000000     0.000000  2.487504  0.000000
  1     0.000000  2.489089 -2.471430     0.000000  2.489888 -2.476147
  1     0.000000  1.238796 -4.602315     0.000000  1.244469 -4.599423
  1     0.000000 -1.238796 -4.602315     0.000000 -1.244469 -4.599423
  1     0.000000 -2.489089 -2.471430     0.000000 -2.489888 -2.476147
  1     0.000000 -2.488841  0.000000     0.000000 -2.487504  0.000000
  1     0.000000 -2.489089  2.471430     0.000000 -2.489888  2.476147
  1     0.000000 -1.238796  4.602315     0.000000 -1.244469  4.599423
  1     0.000000  1.238796  4.602315     0.000000  1.244469  4.599423
 generating redundant internal coords
         300        3600          24
 Adding extra bonds for z output only
           6           6           6           6           6           6
           6           6           6           6           6           6
           6           6           1           1           1           1
           1           1           1           1           1           1
 search for int coords
   1 str   2   1   1.413
   2 str   3   2   1.408
   3 str   4   3   1.408
   4 str   5   4   1.413
   5 str   6   5   1.388
   6 str   7   6   1.403
   7 str   8   7   1.388
   8 str   9   4   1.439
   9 str   9   8   1.413
  10 str  10   9   1.408
  11 str  11   2   1.439
  12 str  11  10   1.408
  13 str  12  11   1.413
  14 str  13  12   1.388
  15 str  14   1   1.388
  16 str  14  13   1.403
  17 str  15   1   1.084
  18 str  16   3   1.085
  19 str  17   5   1.084
  20 str  18   6   1.083
  21 str  19   7   1.083
  22 str  20   8   1.084
  23 str  21  10   1.085
  24 str  22  12   1.084
  25 str  23  13   1.083
  26 str  24  14   1.083
 nber stretches=          26
  27 ben   1   2   3
  28 prop tor   1   2   3   4
  29 prop tor   1   2   3  16
  30 ben   1   2  11
  31 prop tor   1   2  11  10
  32 prop tor   1   2  11  12
  33 ben   1  14  13
  34 ben   1  14  24
  35 ben   2   1  14
  36 prop tor   2   1  14  13
  37 prop tor   2   1  14  24
  38 ben   2   1  15
  39 ben   2   3   4
  40 prop tor   2   3   4   5
  41 prop tor   2   3   4   9
  42 ben   2   3  16
  43 ben   2  11  10
  44 ben   2  11  12
  45 prop tor   2  11  12  13
  46 prop tor   2  11  12  22
  47 ben   3   2  11
  48 prop tor   3   2  11  10
  49 prop tor   3   2  11  12
  50 ben   3   4   5
  51 prop tor   3   4   5   6
  52 prop tor   3   4   5  17
  53 ben   3   4   9
  54 prop tor   3   4   9   8
  55 prop tor   3   4   9  10
  56 ben   4   3  16
  57 ben   4   5   6
  58 prop tor   4   5   6   7
  59 prop tor   4   5   6  18
  60 ben   4   5  17
  61 ben   4   9   8
  62 ben   4   9  10
  63 prop tor   4   9  10  11
  64 prop tor   4   9  10  21
  65 ben   5   4   9
  66 prop tor   5   4   9   8
  67 prop tor   5   4   9  10
  68 ben   5   6   7
  69 prop tor   5   6   7   8
  70 prop tor   5   6   7  19
  71 ben   5   6  18
  72 ben   6   5  17
  73 ben   6   7   8
  74 prop tor   6   7   8   9
  75 prop tor   6   7   8  20
  76 ben   6   7  19
  77 ben   7   6  18
  78 ben   7   8   9
  79 prop tor   7   8   9   4
  80 prop tor   7   8   9  10
  81 ben   7   8  20
  82 ben   8   7  19
  83 ben   8   9  10
  84 prop tor   8   9  10  11
  85 prop tor   8   9  10  21
  86 prop tor   9   4   5   6
  87 prop tor   9   4   5  17
  88 ben   9   8  20
  89 ben   9  10  11
  90 prop tor   9  10  11   2
  91 prop tor   9  10  11  12
  92 ben   9  10  21
  93 ben  10  11  12
  94 prop tor  10  11  12  13
  95 prop tor  10  11  12  22
  96 prop tor  11   2   3   4
  97 prop tor  11   2   3  16
  98 ben  11  10  21
  99 ben  11  12  13
 100 prop tor  11  12  13  14
 101 prop tor  11  12  13  23
 102 ben  11  12  22
 103 ben  12  13  14
 104 prop tor  12  13  14   1
 105 prop tor  12  13  14  24
 106 ben  12  13  23
 107 ben  13  12  22
 108 ben  13  14  24
 109 prop tor  14   1   2   3
 110 prop tor  14   1   2  11
 111 ben  14   1  15
 112 ben  14  13  23
 113 prop tor  15   1   2   3
 114 prop tor  15   1   2  11
 115 prop tor  15   1  14  13
 116 prop tor  15   1  14  24
 117 prop tor  16   3   4   5
 118 prop tor  16   3   4   9
 119 prop tor  17   5   6   7
 120 prop tor  17   5   6  18
 121 prop tor  18   6   7   8
 122 prop tor  18   6   7  19
 123 prop tor  19   7   8   9
 124 prop tor  19   7   8  20
 125 prop tor  20   8   9   4
 126 prop tor  20   8   9  10
 127 prop tor  21  10  11   2
 128 prop tor  21  10  11  12
 129 prop tor  22  12  13  14
 130 prop tor  22  12  13  23
 131 prop tor  23  13  14   1
 132 prop tor  23  13  14  24
 nber bend=              42
 nber lin bend=           0
 nber prop tor=          64
 nber impr tor=           0
 nber tot redund int=         132
 generating redundant internal coords
         300        3600          24
 search for int coords
   1 str   2   1   1.429
   2 str   3   2   1.398
   3 str   4   3   1.398
   4 str   5   4   1.429
   5 str   6   5   1.367
   6 str   7   6   1.424
   7 str   8   7   1.367
   8 str   9   4   1.443
   9 str   9   8   1.429
  10 str  10   9   1.398
  11 str  11   2   1.443
  12 str  11  10   1.398
  13 str  12  11   1.429
  14 str  13  12   1.367
  15 str  14   1   1.367
  16 str  14  13   1.424
  17 str  15   1   1.085
  18 str  16   3   1.086
  19 str  17   5   1.085
  20 str  18   6   1.084
  21 str  19   7   1.084
  22 str  20   8   1.085
  23 str  21  10   1.086
  24 str  22  12   1.085
  25 str  23  13   1.084
  26 str  24  14   1.084
 nber stretches=          26
  27 ben   1   2   3
  28 prop tor   1   2   3   4
  29 prop tor   1   2   3  16
  30 ben   1   2  11
  31 prop tor   1   2  11  10
  32 prop tor   1   2  11  12
  33 ben   1  14  13
  34 ben   1  14  24
  35 ben   2   1  14
  36 prop tor   2   1  14  13
  37 prop tor   2   1  14  24
  38 ben   2   1  15
  39 ben   2   3   4
  40 prop tor   2   3   4   5
  41 prop tor   2   3   4   9
  42 ben   2   3  16
  43 ben   2  11  10
  44 ben   2  11  12
  45 prop tor   2  11  12  13
  46 prop tor   2  11  12  22
  47 ben   3   2  11
  48 prop tor   3   2  11  10
  49 prop tor   3   2  11  12
  50 ben   3   4   5
  51 prop tor   3   4   5   6
  52 prop tor   3   4   5  17
  53 ben   3   4   9
  54 prop tor   3   4   9   8
  55 prop tor   3   4   9  10
  56 ben   4   3  16
  57 ben   4   5   6
  58 prop tor   4   5   6   7
  59 prop tor   4   5   6  18
  60 ben   4   5  17
  61 ben   4   9   8
  62 ben   4   9  10
  63 prop tor   4   9  10  11
  64 prop tor   4   9  10  21
  65 ben   5   4   9
  66 prop tor   5   4   9   8
  67 prop tor   5   4   9  10
  68 ben   5   6   7
  69 prop tor   5   6   7   8
  70 prop tor   5   6   7  19
  71 ben   5   6  18
  72 ben   6   5  17
  73 ben   6   7   8
  74 prop tor   6   7   8   9
  75 prop tor   6   7   8  20
  76 ben   6   7  19
  77 ben   7   6  18
  78 ben   7   8   9
  79 prop tor   7   8   9   4
  80 prop tor   7   8   9  10
  81 ben   7   8  20
  82 ben   8   7  19
  83 ben   8   9  10
  84 prop tor   8   9  10  11
  85 prop tor   8   9  10  21
  86 prop tor   9   4   5   6
  87 prop tor   9   4   5  17
  88 ben   9   8  20
  89 ben   9  10  11
  90 prop tor   9  10  11   2
  91 prop tor   9  10  11  12
  92 ben   9  10  21
  93 ben  10  11  12
  94 prop tor  10  11  12  13
  95 prop tor  10  11  12  22
  96 prop tor  11   2   3   4
  97 prop tor  11   2   3  16
  98 ben  11  10  21
  99 ben  11  12  13
 100 prop tor  11  12  13  14
 101 prop tor  11  12  13  23
 102 ben  11  12  22
 103 ben  12  13  14
 104 prop tor  12  13  14   1
 105 prop tor  12  13  14  24
 106 ben  12  13  23
 107 ben  13  12  22
 108 ben  13  14  24
 109 prop tor  14   1   2   3
 110 prop tor  14   1   2  11
 111 ben  14   1  15
 112 ben  14  13  23
 113 prop tor  15   1   2   3
 114 prop tor  15   1   2  11
 115 prop tor  15   1  14  13
 116 prop tor  15   1  14  24
 117 prop tor  16   3   4   5
 118 prop tor  16   3   4   9
 119 prop tor  17   5   6   7
 120 prop tor  17   5   6  18
 121 prop tor  18   6   7   8
 122 prop tor  18   6   7  19
 123 prop tor  19   7   8   9
 124 prop tor  19   7   8  20
 125 prop tor  20   8   9   4
 126 prop tor  20   8   9  10
 127 prop tor  21  10  11   2
 128 prop tor  21  10  11  12
 129 prop tor  22  12  13  14
 130 prop tor  22  12  13  23
 131 prop tor  23  13  14   1
 132 prop tor  23  13  14  24
 nber bend=              42
 nber lin bend=           0
 nber prop tor=          64
 nber impr tor=           0
 nber tot redund int=         132
 Eigenvalues of G in red int coords
    Gval -0.00000000 -0.00000000 -0.00000000 -0.00000000 -0.00000000 -0.00000000 -0.00000000 -0.00000000
    Gval -0.00000000 -0.00000000 -0.00000000 -0.00000000 -0.00000000 -0.00000000 -0.00000000 -0.00000000
    Gval -0.00000000 -0.00000000 -0.00000000 -0.00000000 -0.00000000 -0.00000000 -0.00000000 -0.00000000
    Gval -0.00000000 -0.00000000 -0.00000000 -0.00000000 -0.00000000 -0.00000000 -0.00000000 -0.00000000
    Gval  0.00000000  0.00000000  0.00000000  0.00000000  0.00000000  0.00000000  0.00000000  0.00000000
    Gval  0.00000000  0.00000000  0.00000000  0.00000000  0.00000000  0.00000000  0.00000000  0.00000000
    Gval  0.00000000  0.00000000  0.00000000  0.00000000  0.00000000  0.00000000  0.00000000  0.00000000
    Gval  0.00000000  0.00000000  0.00000000  0.00000000  0.00000000  0.00000000  0.00000000  0.00000000
    Gval  0.00000000  0.00000000  0.00000846  0.00000982  0.00002851  0.00003511  0.00003539  0.00004269
    Gval  0.00004885  0.00005231  0.00005594  0.00006522  0.00007280  0.00007856  0.00009181  0.00010120
    Gval  0.00010302  0.00012397  0.00013434  0.00015060  0.00018765  0.00021085  0.00022485  0.00025645
    Gval  0.00029370  0.00031541  0.00032639  0.00037868  0.00039220  0.00041610  0.00041831  0.00048552
    Gval  0.00059308  0.00059313  0.00059670  0.00059710  0.00060868  0.00061707  0.00062824  0.00064106
    Gval  0.00065413  0.00065934  0.00074863  0.00076121  0.00083209  0.00103873  0.00104952  0.00105230
    Gval  0.00111199  0.00111451  0.00111942  0.00112480  0.00116107  0.00116152  0.00117026  0.00117026
    Gval  0.00175677  0.00175763  0.00178808  0.00197563  0.00254067  0.00264678  0.00301614  0.00318286
    Gval  0.00350939  0.00360694  0.00400084  0.00401095
  8.463930851332618E-006  8.463930851332618E-006
  9.823130745050815E-006  8.463930851332618E-006
  2.850987358778998E-005  8.463930851332618E-006
  3.510553257233437E-005  8.463930851332618E-006
  3.539413200312129E-005  8.463930851332618E-006
  4.268560679062900E-005  8.463930851332618E-006
  4.885059977326796E-005  8.463930851332618E-006
  5.231485510954214E-005  8.463930851332618E-006
  5.594453154776134E-005  8.463930851332618E-006
  6.522243219904759E-005  8.463930851332618E-006
  7.280397292825080E-005  8.463930851332618E-006
  7.855903666172605E-005  8.463930851332618E-006
  9.181469992213255E-005  8.463930851332618E-006
  1.011985956840578E-004  8.463930851332618E-006
  1.030158213504332E-004  8.463930851332618E-006
  1.239728214057766E-004  8.463930851332618E-006
  1.343376718354549E-004  8.463930851332618E-006
  1.506040725092548E-004  8.463930851332618E-006
  1.876462766705876E-004  8.463930851332618E-006
  2.108452889573023E-004  8.463930851332618E-006
  2.248453018731648E-004  8.463930851332618E-006
  2.564460044260418E-004  8.463930851332618E-006
  2.937029626585698E-004  8.463930851332618E-006
  3.154084661614617E-004  8.463930851332618E-006
  3.263909123945712E-004  8.463930851332618E-006
  3.786818951235358E-004  8.463930851332618E-006
  3.922036074954680E-004  8.463930851332618E-006
  4.161049937720921E-004  8.463930851332618E-006
  4.183110827734626E-004  8.463930851332618E-006
  4.855187769942207E-004  8.463930851332618E-006
  5.930837838646400E-004  8.463930851332618E-006
  5.931347710173090E-004  8.463930851332618E-006
  5.967019631275283E-004  8.463930851332618E-006
  5.971041248245501E-004  8.463930851332618E-006
  6.086822452354402E-004  8.463930851332618E-006
  6.170724017710820E-004  8.463930851332618E-006
  6.282410614622196E-004  8.463930851332618E-006
  6.410611999983148E-004  8.463930851332618E-006
  6.541342446418988E-004  8.463930851332618E-006
  6.593442597987424E-004  8.463930851332618E-006
  7.486286275367384E-004  8.463930851332618E-006
  7.612093316501937E-004  8.463930851332618E-006
  8.320878766210228E-004  8.463930851332618E-006
  1.038732996617453E-003  8.463930851332618E-006
  1.049516152053341E-003  8.463930851332618E-006
  1.052301352648371E-003  8.463930851332618E-006
  1.111993390415478E-003  8.463930851332618E-006
  1.114508953022927E-003  8.463930851332618E-006
  1.119423703098606E-003  8.463930851332618E-006
  1.124798910033492E-003  8.463930851332618E-006
  1.161066422685971E-003  8.463930851332618E-006
  1.161524342473123E-003  8.463930851332618E-006
  1.170259040700688E-003  8.463930851332618E-006
  1.170261213191258E-003  8.463930851332618E-006
  1.756766148731524E-003  8.463930851332618E-006
  1.757625451804580E-003  8.463930851332618E-006
  1.788083164253915E-003  8.463930851332618E-006
  1.975628043887922E-003  8.463930851332618E-006
  2.540669950668908E-003  8.463930851332618E-006
  2.646777466125553E-003  8.463930851332618E-006
  3.016140935836811E-003  8.463930851332618E-006
  3.182855948542820E-003  8.463930851332618E-006
  3.509390745282693E-003  8.463930851332618E-006
  3.606942394085753E-003  8.463930851332618E-006
  4.000841143319503E-003  8.463930851332618E-006
  4.010945858692719E-003  8.463930851332618E-006
 cut=1d-8, nber non-redundant internal coords=          66
 Check on Eigenvals of non-red overlap matrix:
  0.00000846  0.00000982  0.00002851  0.00003511  0.00003539  0.00004269  0.00004885  0.00005231
  0.00005594  0.00006522  0.00007280  0.00007856  0.00009181  0.00010120  0.00010302  0.00012397
  0.00013434  0.00015060  0.00018765  0.00021085  0.00022485  0.00025645  0.00029370  0.00031541
  0.00032639  0.00037868  0.00039220  0.00041610  0.00041831  0.00048552  0.00059308  0.00059313
  0.00059670  0.00059710  0.00060868  0.00061707  0.00062824  0.00064106  0.00065413  0.00065934
  0.00074863  0.00076121  0.00083209  0.00103873  0.00104952  0.00105230  0.00111199  0.00111451
  0.00111942  0.00112480  0.00116107  0.00116152  0.00117026  0.00117026  0.00175677  0.00175763
  0.00178808  0.00197563  0.00254067  0.00264678  0.00301614  0.00318286  0.00350939  0.00360694
  0.00400084  0.00401095
 generating redundant internal coords
         300        3600          24
 search for int coords
   1 str   2   1   1.413
   2 str   3   2   1.408
   3 str   4   3   1.408
   4 str   5   4   1.413
   5 str   6   5   1.388
   6 str   7   6   1.403
   7 str   8   7   1.388
   8 str   9   4   1.439
   9 str   9   8   1.413
  10 str  10   9   1.408
  11 str  11   2   1.439
  12 str  11  10   1.408
  13 str  12  11   1.413
  14 str  13  12   1.388
  15 str  14   1   1.388
  16 str  14  13   1.403
  17 str  15   1   1.084
  18 str  16   3   1.085
  19 str  17   5   1.084
  20 str  18   6   1.083
  21 str  19   7   1.083
  22 str  20   8   1.084
  23 str  21  10   1.085
  24 str  22  12   1.084
  25 str  23  13   1.083
  26 str  24  14   1.083
 nber stretches=          26
  27 ben   1   2   3
  28 prop tor   1   2   3   4
  29 prop tor   1   2   3  16
  30 ben   1   2  11
  31 prop tor   1   2  11  10
  32 prop tor   1   2  11  12
  33 ben   1  14  13
  34 ben   1  14  24
  35 ben   2   1  14
  36 prop tor   2   1  14  13
  37 prop tor   2   1  14  24
  38 ben   2   1  15
  39 ben   2   3   4
  40 prop tor   2   3   4   5
  41 prop tor   2   3   4   9
  42 ben   2   3  16
  43 ben   2  11  10
  44 ben   2  11  12
  45 prop tor   2  11  12  13
  46 prop tor   2  11  12  22
  47 ben   3   2  11
  48 prop tor   3   2  11  10
  49 prop tor   3   2  11  12
  50 ben   3   4   5
  51 prop tor   3   4   5   6
  52 prop tor   3   4   5  17
  53 ben   3   4   9
  54 prop tor   3   4   9   8
  55 prop tor   3   4   9  10
  56 ben   4   3  16
  57 ben   4   5   6
  58 prop tor   4   5   6   7
  59 prop tor   4   5   6  18
  60 ben   4   5  17
  61 ben   4   9   8
  62 ben   4   9  10
  63 prop tor   4   9  10  11
  64 prop tor   4   9  10  21
  65 ben   5   4   9
  66 prop tor   5   4   9   8
  67 prop tor   5   4   9  10
  68 ben   5   6   7
  69 prop tor   5   6   7   8
  70 prop tor   5   6   7  19
  71 ben   5   6  18
  72 ben   6   5  17
  73 ben   6   7   8
  74 prop tor   6   7   8   9
  75 prop tor   6   7   8  20
  76 ben   6   7  19
  77 ben   7   6  18
  78 ben   7   8   9
  79 prop tor   7   8   9   4
  80 prop tor   7   8   9  10
  81 ben   7   8  20
  82 ben   8   7  19
  83 ben   8   9  10
  84 prop tor   8   9  10  11
  85 prop tor   8   9  10  21
  86 prop tor   9   4   5   6
  87 prop tor   9   4   5  17
  88 ben   9   8  20
  89 ben   9  10  11
  90 prop tor   9  10  11   2
  91 prop tor   9  10  11  12
  92 ben   9  10  21
  93 ben  10  11  12
  94 prop tor  10  11  12  13
  95 prop tor  10  11  12  22
  96 prop tor  11   2   3   4
  97 prop tor  11   2   3  16
  98 ben  11  10  21
  99 ben  11  12  13
 100 prop tor  11  12  13  14
 101 prop tor  11  12  13  23
 102 ben  11  12  22
 103 ben  12  13  14
 104 prop tor  12  13  14   1
 105 prop tor  12  13  14  24
 106 ben  12  13  23
 107 ben  13  12  22
 108 ben  13  14  24
 109 prop tor  14   1   2   3
 110 prop tor  14   1   2  11
 111 ben  14   1  15
 112 ben  14  13  23
 113 prop tor  15   1   2   3
 114 prop tor  15   1   2  11
 115 prop tor  15   1  14  13
 116 prop tor  15   1  14  24
 117 prop tor  16   3   4   5
 118 prop tor  16   3   4   9
 119 prop tor  17   5   6   7
 120 prop tor  17   5   6  18
 121 prop tor  18   6   7   8
 122 prop tor  18   6   7  19
 123 prop tor  19   7   8   9
 124 prop tor  19   7   8  20
 125 prop tor  20   8   9   4
 126 prop tor  20   8   9  10
 127 prop tor  21  10  11   2
 128 prop tor  21  10  11  12
 129 prop tor  22  12  13  14
 130 prop tor  22  12  13  23
 131 prop tor  23  13  14   1
 132 prop tor  23  13  14  24
 nber bend=              42
 nber lin bend=           0
 nber prop tor=          64
 nber impr tor=           0
 nber tot redund int=         132
 Eigenvalues of G in red int coords
    Gval -0.00000000 -0.00000000 -0.00000000 -0.00000000 -0.00000000 -0.00000000 -0.00000000 -0.00000000
    Gval -0.00000000 -0.00000000 -0.00000000 -0.00000000 -0.00000000 -0.00000000 -0.00000000 -0.00000000
    Gval -0.00000000 -0.00000000 -0.00000000 -0.00000000 -0.00000000 -0.00000000 -0.00000000 -0.00000000
    Gval -0.00000000 -0.00000000 -0.00000000 -0.00000000 -0.00000000 -0.00000000 -0.00000000 -0.00000000
    Gval -0.00000000 -0.00000000 -0.00000000 -0.00000000  0.00000000  0.00000000  0.00000000  0.00000000
    Gval  0.00000000  0.00000000  0.00000000  0.00000000  0.00000000  0.00000000  0.00000000  0.00000000
    Gval  0.00000000  0.00000000  0.00000000  0.00000000  0.00000000  0.00000000  0.00000000  0.00000000
    Gval  0.00000000  0.00000000  0.00000000  0.00000000  0.00000000  0.00000000  0.00000000  0.00000000
    Gval  0.00000000  0.00000000  0.00000848  0.00000984  0.00002852  0.00003503  0.00003515  0.00004258
    Gval  0.00004867  0.00005247  0.00005615  0.00006518  0.00007366  0.00007849  0.00009198  0.00010065
    Gval  0.00010306  0.00012344  0.00013369  0.00014974  0.00018935  0.00020894  0.00021703  0.00025730
    Gval  0.00029812  0.00031444  0.00032686  0.00037982  0.00039492  0.00041491  0.00041703  0.00047781
    Gval  0.00059310  0.00059315  0.00059679  0.00059720  0.00060850  0.00061704  0.00062743  0.00064026
    Gval  0.00065414  0.00065901  0.00074556  0.00076072  0.00082550  0.00102761  0.00105224  0.00105503
    Gval  0.00111545  0.00111898  0.00111935  0.00112579  0.00116001  0.00116056  0.00117209  0.00117209
    Gval  0.00176593  0.00177115  0.00179684  0.00198748  0.00255963  0.00267118  0.00300951  0.00318023
    Gval  0.00350829  0.00360632  0.00400857  0.00401831
  8.484783624996100E-006  8.484783624996100E-006
  9.840847497100094E-006  8.484783624996100E-006
  2.852246528874825E-005  8.484783624996100E-006
  3.503046955122715E-005  8.484783624996100E-006
  3.514745560951711E-005  8.484783624996100E-006
  4.257683192616473E-005  8.484783624996100E-006
  4.866594620576785E-005  8.484783624996100E-006
  5.247136839569488E-005  8.484783624996100E-006
  5.615318939904334E-005  8.484783624996100E-006
  6.517707054746005E-005  8.484783624996100E-006
  7.366401307273203E-005  8.484783624996100E-006
  7.849425171777928E-005  8.484783624996100E-006
  9.198170030780793E-005  8.484783624996100E-006
  1.006523969165821E-004  8.484783624996100E-006
  1.030636309057891E-004  8.484783624996100E-006
  1.234395647012307E-004  8.484783624996100E-006
  1.336934307039255E-004  8.484783624996100E-006
  1.497416525111700E-004  8.484783624996100E-006
  1.893478230882635E-004  8.484783624996100E-006
  2.089394867697429E-004  8.484783624996100E-006
  2.170279157991261E-004  8.484783624996100E-006
  2.573006159620536E-004  8.484783624996100E-006
  2.981170344888892E-004  8.484783624996100E-006
  3.144389791724747E-004  8.484783624996100E-006
  3.268560035577007E-004  8.484783624996100E-006
  3.798156277238224E-004  8.484783624996100E-006
  3.949236285419796E-004  8.484783624996100E-006
  4.149093903641625E-004  8.484783624996100E-006
  4.170341669753117E-004  8.484783624996100E-006
  4.778093962743751E-004  8.484783624996100E-006
  5.930966219403787E-004  8.484783624996100E-006
  5.931478991592647E-004  8.484783624996100E-006
  5.967885960963019E-004  8.484783624996100E-006
  5.972000820253734E-004  8.484783624996100E-006
  6.084971471721217E-004  8.484783624996100E-006
  6.170405813976417E-004  8.484783624996100E-006
  6.274308973484220E-004  8.484783624996100E-006
  6.402577622570978E-004  8.484783624996100E-006
  6.541380656056098E-004  8.484783624996100E-006
  6.590140134262145E-004  8.484783624996100E-006
  7.455554707621947E-004  8.484783624996100E-006
  7.607197985650563E-004  8.484783624996100E-006
  8.254988220258107E-004  8.484783624996100E-006
  1.027605833985762E-003  8.484783624996100E-006
  1.052236281596674E-003  8.484783624996100E-006
  1.055025482310511E-003  8.484783624996100E-006
  1.115447903874458E-003  8.484783624996100E-006
  1.118984946715850E-003  8.484783624996100E-006
  1.119351904740411E-003  8.484783624996100E-006
  1.125786999659281E-003  8.484783624996100E-006
  1.160014206342009E-003  8.484783624996100E-006
  1.160560215590726E-003  8.484783624996100E-006
  1.172087099814009E-003  8.484783624996100E-006
  1.172089251994718E-003  8.484783624996100E-006
  1.765932123524106E-003  8.484783624996100E-006
  1.771150771567176E-003  8.484783624996100E-006
  1.796837269229380E-003  8.484783624996100E-006
  1.987480543666355E-003  8.484783624996100E-006
  2.559626530554833E-003  8.484783624996100E-006
  2.671179382298484E-003  8.484783624996100E-006
  3.009506386776895E-003  8.484783624996100E-006
  3.180230253561758E-003  8.484783624996100E-006
  3.508293319483979E-003  8.484783624996100E-006
  3.606320748716774E-003  8.484783624996100E-006
  4.008571979774597E-003  8.484783624996100E-006
  4.018310596395011E-003  8.484783624996100E-006
 cut=1d-8, nber non-redundant internal coords=          66
 Check on Eigenvals of non-red overlap matrix:
  0.00000848  0.00000984  0.00002852  0.00003503  0.00003515  0.00004258  0.00004867  0.00005247
  0.00005615  0.00006518  0.00007366  0.00007849  0.00009198  0.00010065  0.00010306  0.00012344
  0.00013369  0.00014974  0.00018935  0.00020894  0.00021703  0.00025730  0.00029812  0.00031444
  0.00032686  0.00037982  0.00039492  0.00041491  0.00041703  0.00047781  0.00059310  0.00059315
  0.00059679  0.00059720  0.00060850  0.00061704  0.00062743  0.00064026  0.00065414  0.00065901
  0.00074556  0.00076072  0.00082550  0.00102761  0.00105224  0.00105503  0.00111545  0.00111898
  0.00111935  0.00112579  0.00116001  0.00116056  0.00117209  0.00117209  0.00176593  0.00177115
  0.00179684  0.00198748  0.00255963  0.00267118  0.00300951  0.00318023  0.00350829  0.00360632
  0.00400857  0.00401831
 d1=
  -0.0  -0.3  -0.0   0.0  -0.0  -1.2   0.0  -0.0  -0.0  -0.0  -0.0  -0.0   2.1   0.0  -0.0   4.3   0.0   0.0   0.0  -2.4
   0.0  -0.0  -0.0  -0.0   0.0  -0.0  -0.0   0.0  -0.7  -0.0  -0.1   0.0  -0.0  -0.0   0.1  -0.0  -0.0   0.3  -0.0   0.0
   0.0  -0.0   0.0   0.0  -0.0   1.3  -0.0  -0.0   0.0  -0.0   0.4   0.0  -0.0   0.0   0.0   0.0   0.0   0.0  -0.0   0.0
  -0.0  -0.0  -0.0  -0.0  -0.0  -0.0
 d2=
  -0.0   0.3  -0.0  -0.0   0.0  -1.3   0.0  -0.0  -0.0   0.1   0.0  -0.0  -2.2   0.0   0.0   4.2   0.0   0.0  -0.0   2.4
  -0.0  -0.0  -0.0   0.0   0.0  -0.0   0.0  -0.0  -0.8   0.0   0.1   0.0  -0.0   0.0  -0.1   0.0   0.0  -0.3   0.0   0.0
   0.0   0.0   0.0  -0.0   0.0   1.3   0.0   0.0   0.0   0.0   0.4  -0.0   0.0  -0.0  -0.0  -0.0  -0.0   0.0   0.0  -0.0
   0.0   0.0   0.0   0.0   0.0   0.0
 curvilinear- renormalizn of Dush matrix done
  mol 1 sym            1  -> mol 2 sym            1
  mol 1 sym            2  -> mol 2 sym            2
  mol 1 sym            3  -> mol 2 sym            3
  mol 1 sym            4  -> mol 2 sym            4
  mol 1 sym            5  -> mol 2 sym            5
  mol 1 sym            6  -> mol 2 sym            6
  mol 1 sym            7  -> mol 2 sym            7
  mol 1 sym            8  -> mol 2 sym            8

 Dushinsky matrix, ncs 2 in terms of ncs 1

   mode   freq    coeff     %      %tot     of    at

   1 B3g    -0.  0.0000     0.0     0.0  13 B3g   396.
   2 B1u    -0. -0.0000     0.0     0.0  10 B1u   236.
   3 B2g    -0.  0.0000     0.0     0.0  11 B2g   269.
   4 B3u    -0. -0.0000     0.0     0.0   7 B3u    91.
   5 B1g     0.  0.0000     0.0     0.0   9 B1g   236.
   6 B2u     0. -0.0000     0.0     0.0  20 B2u   618.
   7 B3u    85. -0.9999   100.0    98.9   7 B3u    91.
   8 Au    119. -0.9998   100.0   101.1   8 Au    121.
   9 B1g   219.  0.9993    99.9    96.8   9 B1g   236.
  10 B1u   234. -1.0000   100.0   100.4  10 B1u   236.
  11 B2g   270. -0.9974    99.5   101.4  11 B2g   269.
  12 B3u   384. -0.9952    99.0    98.8  12 B3u   387.
  13 B3g   387. -0.9976    99.5    99.2  13 B3g   396.
  14 Ag    395.  0.9998   100.0    99.6  14 Ag    398.
  15 B3u   444.  0.9967    99.3    99.7  15 B3u   478.
  16 B1g   461.  0.9924    98.5    99.9  16 B1g   484.
  17 Au    483. -0.9914    98.3    99.4  17 Au    507.
  18 B3g   519. -0.9969    99.4   101.0  18 B3g   536.
  19 B2g   560. -0.9879    97.6    99.1  19 B2g   591.
  20 B2u   610.  0.9995    99.9    99.3  20 B2u   618.
  21 Ag    628.  0.9986    99.7    99.4  21 Ag    642.
  22 B1u   668.  0.9995    99.9   101.1  22 B1u   661.
  23 Au    736.  0.9875    97.5   100.8  24 Au    759.
  24 B2g   757.  0.9824    96.5   100.8  27 B2g   782.
  25 Ag    764.  0.9988    99.8    99.3  25 Ag    763.
  26 B3u   768.  0.9935    98.7   100.6  23 B3u   740.
  27 B1g   775.  0.9921    98.4   100.6  26 B1g   770.
  28 B2u   832. -0.9967    99.3    99.6  28 B2u   821.
  29 B2g   869.  0.9537    90.9   100.4  29 B2g   844.
  30 Au    900. -0.9741    94.9   100.8  30 Au    866.
  31 B1u   916.  0.9992    99.8    99.3  33 B1u   919.
  32 B3g   927. -0.9997    99.9   100.3  34 B3g   929.
  33 B3u   930.  0.9927    98.5    99.7  31 B3u   895.
  34 B2g   943.  0.9719    94.5   100.1  32 B2g   911.
  35 B1g   995.  0.9980    99.6    99.7  35 B1g   967.
  36 B3u  1000.  0.9963    99.3    99.8  36 B3u   972.
  37 Au   1029. -0.9782    95.7   100.2  37 Au    995.
  38 B2g  1030. -0.9785    95.8   100.2  38 B2g   996.
  39 B2u  1051. -0.9789    95.8   100.2  39 B2u  1026.
  40 Ag   1052.  0.9872    97.5   100.1  40 Ag   1031.
  41 B3g  1121. -0.9709    94.3   100.1  41 B3g  1127.
  42 B1u  1159. -0.9937    98.7    99.9  43 B1u  1173.
  43 B2u  1189.  0.8302    68.9   100.1  42 B2u  1159.
                -0.5155    26.6          44 B2u  1189.
  44 Ag   1204.  0.9904    98.1   100.2  45 Ag   1190.
  45 B3g  1210. -0.9613    92.4   100.1  46 B3g  1211.
  46 B2u  1211.  0.5127    26.3   100.1  42 B2u  1159.
                 0.8383    70.3          44 B2u  1189.
  47 Ag   1283. -0.9508    90.4   100.0  47 Ag   1290.
  48 B3g  1302. -0.9843    96.9   100.4  49 B3g  1295.
  49 B1u  1308.  0.9651    93.1   100.2  48 B1u  1291.
  50 B1u  1319. -0.9574    91.7   100.0  50 B1u  1339.
  51 B2u  1375.  0.8692    75.6   100.1  53 B2u  1415.
                 0.3498    12.2          58 B2u  1579.
  52 Ag   1410.  0.9400    88.4   100.0  54 Ag   1428.
  53 B3g  1430. -0.9948    99.0    99.9  52 B3g  1414.
  54 B2u  1432. -0.9822    96.5   100.3  51 B2u  1376.
  55 B2u  1486. -0.4016    16.1   100.0  53 B2u  1415.
                 0.8646    74.8          55 B2u  1482.
  56 B1u  1486.  0.9748    95.0   100.3  56 B1u  1487.
  57 Ag   1535.  0.9588    91.9    99.8  57 Ag   1517.
  58 B3g  1554. -0.4130    17.1   100.0  60 B3g  1624.
                 0.8945    80.0          61 B3g  1668.
  59 B2u  1571.  0.4071    16.6    99.6  55 B2u  1482.
                -0.8835    78.1          58 B2u  1579.
  60 B3g  1574.  0.9060    82.1   100.5  60 B3g  1624.
                 0.4095    16.8          61 B3g  1668.
  61 Ag   1599.  0.9553    91.3   100.1  59 Ag   1594.
  62 B1u  1616. -0.9824    96.5   100.2  62 B1u  1670.
  63 B1u  3176.  0.9638    92.9   100.0  63 B1u  3153.
  64 Ag   3178. -0.9817    96.4   100.0  64 Ag   3155.
  65 B3g  3184.  0.9895    97.9   100.0  65 B3g  3157.
  66 B1u  3184.  0.9523    90.7   100.0  66 B1u  3158.
  67 B2u  3187.  0.9960    99.2   100.0  67 B2u  3161.
  68 Ag   3188.  0.9759    95.2   100.0  68 Ag   3163.
  69 B3g  3198.  0.9895    97.9   100.0  69 B3g  3175.
  70 B1u  3198.  0.9881    97.6   100.0  70 B1u  3175.
  71 B2u  3208.  0.9960    99.2   100.0  71 B2u  3187.
  72 Ag   3208.  0.9942    98.8   100.0  72 Ag   3187.
 nber times 1st assigned=           1           0
 nber times 1st assigned=           2           0
 nber times 1st assigned=           3           0
 nber times 1st assigned=           4           0
 nber times 1st assigned=           5           0
 nber times 1st assigned=           6           0
 nber times 1st assigned=           8           0
 nber times 1st assigned=          12           0
 nber times 1st assigned=          14           0
 nber times 1st assigned=          15           0
 nber times 1st assigned=          16           0
 nber times 1st assigned=          17           0
 nber times 1st assigned=          18           0
 nber times 1st assigned=          19           0
 nber times 1st assigned=          21           0
 nber times 1st assigned=          22           0
 nber times 1st assigned=          23           0
 nber times 1st assigned=          24           0
 nber times 1st assigned=          25           0
 nber times 1st assigned=          26           0
 nber times 1st assigned=          27           0
 nber times 1st assigned=          28           0
 nber times 1st assigned=          29           0
 nber times 1st assigned=          30           0
 nber times 1st assigned=          31           0
 nber times 1st assigned=          32           0
 nber times 1st assigned=          33           0
 nber times 1st assigned=          34           0
 nber times 1st assigned=          35           0
 nber times 1st assigned=          36           0
 nber times 1st assigned=          37           0
 nber times 1st assigned=          38           0
 nber times 1st assigned=          39           0
 nber times 1st assigned=          40           0
 nber times 1st assigned=          41           0
 nber times 1st assigned=          42           0
 nber times 1st assigned=          43           0
 nber times 1st assigned=          44           0
 nber times 1st assigned=          45           0
 nber times 1st assigned=          46           0
 nber times 1st assigned=          47           0
 nber times 1st assigned=          48           0
 nber times 1st assigned=          49           0
 nber times 1st assigned=          50           0
 nber times 1st assigned=          51           0
 nber times 1st assigned=          52           0
 nber times 1st assigned=          53           0
 nber times 1st assigned=          54           0
 nber times 1st assigned=          55           0
 nber times 1st assigned=          56           0
 nber times 1st assigned=          57           0
 nber times 1st assigned=          58           0
 nber times 1st assigned=          59           0
 nber times 1st assigned=          60           0
 nber times 1st assigned=          61           0
 nber times 1st assigned=          62           0
 nber times 1st assigned=          63           0
 nber times 1st assigned=          64           0
 nber times 1st assigned=          65           0
 nber times 1st assigned=          66           0
 nber times 1st assigned=          67           0
 nber times 1st assigned=          68           0
 nber times 1st assigned=          69           0
 nber times 1st assigned=          70           0
 nber times 1st assigned=          71           0
 nber times 1st assigned=          72           0
 Dushinsky matrix written to .out file
 modes represented=   65.9934775595447     

 Dushinsky matrix, ncs 1 in terms of ncs 2

   mode   freq    coeff     %      %tot     of    at

   7 B3u    91. -0.9999   100.0    99.0   7 B3u    85.
   8 Au    121. -0.9998   100.0   101.3   8 Au    119.
   9 B1g   236.  0.9993    99.9    96.7   9 B1g   219.
  10 B1u   236. -1.0000   100.0   100.5  10 B1u   234.
  11 B2g   269. -0.9974    99.5   101.5  11 B2g   270.
  12 B3u   387. -0.9952    99.0    98.6  12 B3u   384.
  13 B3g   396. -0.9976    99.5    99.2  13 B3g   387.
  14 Ag    398.  0.9998   100.0    99.7  14 Ag    395.
  15 B3u   478.  0.9967    99.3    99.7  15 B3u   444.
  16 B1g   484.  0.9924    98.5    99.9  16 B1g   461.
  17 Au    507. -0.9914    98.3    99.3  17 Au    483.
  18 B3g   536. -0.9969    99.4   101.3  18 B3g   519.
  19 B2g   591. -0.9879    97.6    98.9  19 B2g   560.
  20 B2u   618.  0.9995    99.9    99.3  20 B2u   610.
  21 Ag    642.  0.9986    99.7    99.5  21 Ag    628.
  22 B1u   661.  0.9995    99.9   101.1  22 B1u   668.
  23 B3u   740.  0.9935    98.7   100.6  26 B3u   768.
  24 Au    759.  0.9875    97.5   100.7  23 Au    736.
  25 Ag    763.  0.9988    99.8    99.3  25 Ag    764.
  26 B1g   770.  0.9921    98.4   100.6  27 B1g   775.
  27 B2g   782.  0.9824    96.5   100.6  24 B2g   757.
  28 B2u   821. -0.9967    99.3    99.7  28 B2u   832.
  29 B2g   844.  0.9537    90.9   100.8  29 B2g   869.
  30 Au    866. -0.9741    94.9   101.0  30 Au    900.
  31 B3u   895.  0.9927    98.5    99.7  33 B3u   930.
  32 B2g   911.  0.9719    94.5   100.0  34 B2g   943.
  33 B1u   919.  0.9992    99.8    99.3  31 B1u   916.
  34 B3g   929. -0.9997    99.9   100.3  32 B3g   927.
  35 B1g   967.  0.9980    99.6    99.7  35 B1g   995.
  36 B3u   972.  0.9963    99.3    99.7  36 B3u  1000.
  37 Au    995. -0.9782    95.7   100.1  37 Au   1029.
  38 B2g   996. -0.9785    95.8   100.1  38 B2g  1030.
  39 B2u  1026. -0.9789    95.8   100.0  39 B2u  1051.
  40 Ag   1031.  0.9872    97.5   100.0  40 Ag   1052.
  41 B3g  1127. -0.9709    94.3   100.1  41 B3g  1121.
  42 B2u  1159.  0.8302    68.9   100.0  43 B2u  1189.
                 0.5127    26.3          46 B2u  1211.
  43 B1u  1173. -0.9937    98.7    99.8  42 B1u  1159.
  44 B2u  1189. -0.5155    26.6   100.2  43 B2u  1189.
                 0.8383    70.3          46 B2u  1211.
  45 Ag   1190.  0.9904    98.1   100.1  44 Ag   1204.
  46 B3g  1211. -0.9613    92.4   100.0  45 B3g  1210.
  47 Ag   1290. -0.9508    90.4   100.0  47 Ag   1283.
  48 B1u  1291.  0.9651    93.1   100.1  49 B1u  1308.
  49 B3g  1295. -0.9843    96.9   100.3  48 B3g  1302.
  50 B1u  1339. -0.9574    91.7    99.9  50 B1u  1319.
  51 B2u  1376. -0.9822    96.5   100.4  54 B2u  1432.
  52 B3g  1414. -0.9948    99.0    99.8  53 B3g  1430.
  53 B2u  1415.  0.8692    75.6   100.1  51 B2u  1375.
                -0.4016    16.1          55 B2u  1486.
  54 Ag   1428.  0.9400    88.4    99.9  52 Ag   1410.
  55 B2u  1482.  0.8646    74.8    99.7  55 B2u  1486.
                 0.4071    16.6          59 B2u  1571.
  56 B1u  1487.  0.9748    95.0   100.3  56 B1u  1486.
  57 Ag   1517.  0.9588    91.9    99.6  57 Ag   1535.
  58 B2u  1579.  0.3498    12.2    99.9  51 B2u  1375.
                -0.8835    78.1          59 B2u  1571.
  59 Ag   1594.  0.9553    91.3   100.4  61 Ag   1599.
  60 B3g  1624. -0.4130    17.1   100.4  58 B3g  1554.
                 0.9060    82.1          60 B3g  1574.
  61 B3g  1668.  0.8945    80.0   100.2  58 B3g  1554.
                 0.4095    16.8          60 B3g  1574.
  62 B1u  1670. -0.9824    96.5   100.4  62 B1u  1616.
  63 B1u  3153.  0.9638    92.9   100.0  63 B1u  3176.
  64 Ag   3155. -0.9817    96.4   100.0  64 Ag   3178.
  65 B3g  3157.  0.9895    97.9   100.0  65 B3g  3184.
  66 B1u  3158.  0.9523    90.7   100.0  66 B1u  3184.
  67 B2u  3161.  0.9960    99.2   100.0  67 B2u  3187.
  68 Ag   3163.  0.9759    95.2   100.0  68 Ag   3188.
  69 B3g  3175.  0.9895    97.9   100.0  69 B3g  3198.
  70 B1u  3175.  0.9881    97.6   100.0  70 B1u  3198.
  71 B2u  3187.  0.9960    99.2   100.0  71 B2u  3208.
  72 Ag   3187.  0.9942    98.8   100.0  72 Ag   3208.
 nber times 1st assigned=           1           0
 nber times 1st assigned=           2           0
 nber times 1st assigned=           3           0
 nber times 1st assigned=           4           0
 nber times 1st assigned=           5           0
 nber times 1st assigned=           6           0
 nber times 1st assigned=           7           0
 nber times 1st assigned=           8           0
 nber times 1st assigned=           9           0
 nber times 1st assigned=          10           0
 nber times 1st assigned=          11           0
 nber times 1st assigned=          12           0
 nber times 1st assigned=          13           0
 nber times 1st assigned=          14           0
 nber times 1st assigned=          15           0
 nber times 1st assigned=          16           0
 nber times 1st assigned=          17           0
 nber times 1st assigned=          18           0
 nber times 1st assigned=          19           0
 nber times 1st assigned=          20           0
 nber times 1st assigned=          21           0
 nber times 1st assigned=          22           0
 nber times 1st assigned=          23           0
 nber times 1st assigned=          24           0
 nber times 1st assigned=          25           0
 nber times 1st assigned=          26           0
 nber times 1st assigned=          27           0
 nber times 1st assigned=          28           0
 nber times 1st assigned=          29           0
 nber times 1st assigned=          30           0
 nber times 1st assigned=          31           0
 nber times 1st assigned=          32           0
 nber times 1st assigned=          33           0
 nber times 1st assigned=          34           0
 nber times 1st assigned=          35           0
 nber times 1st assigned=          36           0
 nber times 1st assigned=          37           0
 nber times 1st assigned=          38           0
 nber times 1st assigned=          39           0
 nber times 1st assigned=          40           0
 nber times 1st assigned=          41           0
 nber times 1st assigned=          42           0
 nber times 1st assigned=          43           0
 nber times 1st assigned=          44           0
 nber times 1st assigned=          45           0
 nber times 1st assigned=          46           0
 nber times 1st assigned=          47           0
 nber times 1st assigned=          48           0
 nber times 1st assigned=          49           0
 nber times 1st assigned=          50           0
 nber times 1st assigned=          51           0
 nber times 1st assigned=          52           0
 nber times 1st assigned=          53           0
 nber times 1st assigned=          54           0
 nber times 1st assigned=          55           0
 nber times 1st assigned=          56           0
 nber times 1st assigned=          57           0
 nber times 1st assigned=          58           0
 nber times 1st assigned=          59           0
 nber times 1st assigned=          60           0
 nber times 1st assigned=          61           0
 nber times 1st assigned=          62           0
 nber times 1st assigned=          63           0
 nber times 1st assigned=          64           0
 nber times 1st assigned=          65           0
 nber times 1st assigned=          66           0
 nber times 1st assigned=          67           0
 nber times 1st assigned=          68           0
 nber times 1st assigned=          69           0
 nber times 1st assigned=          70           0
 nber times 1st assigned=          71           0
 nber times 1st assigned=          72           0
 modes represented=   65.9934775595447     
 p1=
   -0.    0.   -0.   -0.    0.   -0.   -0.    0.   -0.   -0.   -0.   -0.   -0.    0.   -0.   -0.    0.   -0.   -0.    0.
    0.    0.    0.    0.   -1.    0.   -0.    0.   -0.   -0.    0.    0.   -0.   -0.   -0.   -0.    0.    0.    0.    1.
    0.   -0.    0.   -0.   -2.   -0.    2.    0.   -0.    0.    0.    0.   -0.   -3.    0.   -0.    1.    0.    4.   -0.
   -0.   -0.   -0.   -0.   -0.    0.   -0.   -0.    0.   -0.    0.   -0.
 p2=
    0.   -0.    0.   -0.    0.   -0.   -0.    0.    0.   -0.   -0.   -0.   -0.   -0.    0.    0.    0.   -0.   -0.   -0.
   -0.   -0.   -0.    0.    1.   -0.   -0.    0.    0.   -0.    0.   -0.   -0.   -0.    0.    0.    0.    0.    0.    0.
   -0.    0.    0.    2.    0.    0.    1.    0.    0.    0.   -0.    4.   -0.   -0.    0.    0.   -2.    0.    0.   -0.
   -3.   -0.   -0.   -0.    0.   -0.   -0.    0.   -0.    0.    0.    0.

 Displacement: in terms of nc of 1 THEN of nc of 2

   1 B3g freq=    -0. Q= -0.000 lam=    -0.0 B3g freq=    -0. Q= -0.000 lam=    -0.0
   2 B3u freq=    -0. Q=  0.000 lam=    -0.0 B1u freq=    -0. Q=  0.000 lam=    -0.0
   3 B1g freq=     0. Q= -0.000 lam=     0.0 B2g freq=    -0. Q= -0.000 lam=    -0.0
   4 B2u freq=     0. Q= -0.000 lam=     0.0 B3u freq=    -0. Q= -0.000 lam=    -0.0
   5 B2g freq=     0. Q=  0.000 lam=     0.0 B1g freq=     0. Q=  0.000 lam=     0.0
   6 B1u freq=     0. Q= -0.000 lam=     0.0 B2u freq=     0. Q= -0.000 lam=     0.0
   7 B3u freq=    91. Q= -0.000 lam=     0.0 B3u freq=    85. Q= -0.000 lam=     0.0
   8 Au  freq=   121. Q=  0.000 lam=     0.0 Au  freq=   119. Q=  0.000 lam=     0.0
   9 B1g freq=   236. Q= -0.000 lam=     0.0 B1g freq=   219. Q= -0.000 lam=     0.0
  10 B1u freq=   236. Q= -0.000 lam=     0.0 B1u freq=   234. Q= -0.000 lam=     0.0
  11 B2g freq=   269. Q= -0.000 lam=     0.0 B2g freq=   270. Q= -0.000 lam=     0.0
  12 B3u freq=   387. Q= -0.000 lam=     0.0 B3u freq=   384. Q= -0.000 lam=     0.0
  13 B3g freq=   396. Q= -0.000 lam=     0.0 B3g freq=   387. Q= -0.000 lam=     0.0
  14 Ag  freq=   398. Q=  0.012 lam=     0.0 Ag  freq=   395. Q=  0.019 lam=     0.1
  15 B3u freq=   478. Q= -0.000 lam=     0.0 B3u freq=   444. Q= -0.000 lam=     0.0
  16 B1g freq=   484. Q= -0.000 lam=     0.0 B1g freq=   461. Q= -0.000 lam=     0.0
  17 Au  freq=   507. Q=  0.000 lam=     0.0 Au  freq=   483. Q=  0.000 lam=     0.0
  18 B3g freq=   536. Q= -0.000 lam=     0.0 B3g freq=   519. Q= -0.000 lam=     0.0
  19 B2g freq=   591. Q= -0.000 lam=     0.0 B2g freq=   560. Q= -0.000 lam=     0.0
  20 B2u freq=   618. Q=  0.000 lam=     0.0 B2u freq=   610. Q=  0.000 lam=     0.0
  21 Ag  freq=   642. Q=  0.023 lam=     0.2 Ag  freq=   628. Q=  0.020 lam=     0.1
  22 B1u freq=   661. Q=  0.000 lam=     0.0 B1u freq=   668. Q=  0.000 lam=     0.0
  23 B3u freq=   740. Q=  0.000 lam=     0.0 Au  freq=   736. Q=  0.000 lam=     0.0
  24 Au  freq=   759. Q=  0.000 lam=     0.0 B2g freq=   757. Q=  0.000 lam=     0.0
  25 Ag  freq=   763. Q= -0.089 lam=     3.0 Ag  freq=   764. Q= -0.079 lam=     2.4
  26 B1g freq=   770. Q=  0.000 lam=     0.0 B3u freq=   768. Q=  0.000 lam=     0.0
  27 B2g freq=   782. Q= -0.000 lam=     0.0 B1g freq=   775. Q= -0.000 lam=     0.0
  28 B2u freq=   821. Q=  0.000 lam=     0.0 B2u freq=   832. Q=  0.000 lam=     0.0
  29 B2g freq=   844. Q= -0.000 lam=     0.0 B2g freq=   869. Q= -0.000 lam=     0.0
  30 Au  freq=   866. Q= -0.000 lam=     0.0 Au  freq=   900. Q= -0.000 lam=     0.0
  31 B3u freq=   895. Q=  0.000 lam=     0.0 B1u freq=   916. Q=  0.000 lam=     0.0
  32 B2g freq=   911. Q=  0.000 lam=     0.0 B3g freq=   927. Q=  0.000 lam=     0.0
  33 B1u freq=   919. Q= -0.000 lam=     0.0 B3u freq=   930. Q= -0.000 lam=     0.0
  34 B3g freq=   929. Q= -0.000 lam=     0.0 B2g freq=   943. Q= -0.000 lam=     0.0
  35 B1g freq=   967. Q= -0.000 lam=     0.0 B1g freq=   995. Q= -0.000 lam=     0.0
  36 B3u freq=   972. Q= -0.000 lam=     0.0 B3u freq=  1000. Q= -0.000 lam=     0.0
  37 Au  freq=   995. Q=  0.000 lam=     0.0 Au  freq=  1029. Q=  0.000 lam=     0.0
  38 B2g freq=   996. Q=  0.000 lam=     0.0 B2g freq=  1030. Q=  0.000 lam=     0.0
  39 B2u freq=  1026. Q=  0.000 lam=     0.0 B2u freq=  1051. Q=  0.000 lam=     0.0
  40 Ag  freq=  1031. Q=  0.079 lam=     3.3 Ag  freq=  1052. Q=  0.001 lam=     0.0
  41 B3g freq=  1127. Q=  0.000 lam=     0.0 B3g freq=  1121. Q=  0.000 lam=     0.0
  42 B2u freq=  1159. Q= -0.000 lam=     0.0 B1u freq=  1159. Q= -0.000 lam=     0.0
  43 B1u freq=  1173. Q=  0.000 lam=     0.0 B2u freq=  1189. Q=  0.000 lam=     0.0
  44 B2u freq=  1189. Q= -0.000 lam=     0.0 Ag  freq=  1204. Q= -0.246 lam=    36.4
  45 Ag  freq=  1190. Q= -0.221 lam=    29.0 B3g freq=  1210. Q= -0.000 lam=     0.0
  46 B3g freq=  1211. Q= -0.000 lam=     0.0 B2u freq=  1211. Q= -0.000 lam=     0.0
  47 Ag  freq=  1290. Q=  0.331 lam=    70.6 Ag  freq=  1283. Q=  0.208 lam=    27.8
  48 B1u freq=  1291. Q=  0.000 lam=     0.0 B3g freq=  1302. Q=  0.000 lam=     0.0
  49 B3g freq=  1295. Q= -0.000 lam=     0.0 B1u freq=  1308. Q= -0.000 lam=     0.0
  50 B1u freq=  1339. Q=  0.000 lam=     0.0 B1u freq=  1319. Q=  0.000 lam=     0.0
  51 B2u freq=  1376. Q=  0.000 lam=     0.0 B2u freq=  1375. Q=  0.000 lam=     0.0
  52 B3g freq=  1414. Q=  0.000 lam=     0.0 Ag  freq=  1410. Q=  0.568 lam=   227.8
  53 B2u freq=  1415. Q= -0.000 lam=     0.0 B3g freq=  1430. Q= -0.000 lam=     0.0
  54 Ag  freq=  1428. Q= -0.449 lam=   143.6 B2u freq=  1432. Q= -0.000 lam=     0.0
  55 B2u freq=  1482. Q=  0.000 lam=     0.0 B2u freq=  1486. Q=  0.000 lam=     0.0
  56 B1u freq=  1487. Q= -0.000 lam=     0.0 B1u freq=  1486. Q= -0.000 lam=     0.0
  57 Ag  freq=  1517. Q=  0.134 lam=    13.6 Ag  freq=  1535. Q=  0.304 lam=    71.0
  58 B2u freq=  1579. Q=  0.000 lam=     0.0 B3g freq=  1554. Q=  0.000 lam=     0.0
  59 Ag  freq=  1594. Q=  0.621 lam=   307.4 B2u freq=  1571. Q=  0.000 lam=     0.0
  60 B3g freq=  1624. Q= -0.000 lam=     0.0 B3g freq=  1574. Q= -0.000 lam=     0.0
  61 B3g freq=  1668. Q= -0.000 lam=     0.0 Ag  freq=  1599. Q= -0.500 lam=   199.6
  62 B1u freq=  1670. Q= -0.000 lam=     0.0 B1u freq=  1616. Q= -0.000 lam=     0.0
  63 B1u freq=  3153. Q= -0.000 lam=     0.0 B1u freq=  3176. Q= -0.000 lam=     0.0
  64 Ag  freq=  3155. Q= -0.008 lam=     0.1 Ag  freq=  3178. Q= -0.013 lam=     0.3
  65 B3g freq=  3157. Q= -0.000 lam=     0.0 B3g freq=  3184. Q= -0.000 lam=     0.0
  66 B1u freq=  3158. Q=  0.000 lam=     0.0 B1u freq=  3184. Q=  0.000 lam=     0.0
  67 B2u freq=  3161. Q= -0.000 lam=     0.0 B2u freq=  3187. Q= -0.000 lam=     0.0
  68 Ag  freq=  3163. Q= -0.013 lam=     0.3 Ag  freq=  3188. Q= -0.015 lam=     0.4
  69 B3g freq=  3175. Q=  0.000 lam=     0.0 B3g freq=  3198. Q=  0.000 lam=     0.0
  70 B1u freq=  3175. Q= -0.000 lam=     0.0 B1u freq=  3198. Q= -0.000 lam=     0.0
  71 B2u freq=  3187. Q=  0.000 lam=     0.0 B2u freq=  3208. Q=  0.000 lam=     0.0
  72 Ag  freq=  3187. Q= -0.035 lam=     1.9 Ag  freq=  3208. Q= -0.028 lam=     1.2

 total reorg energy (cm**-1, kcal/mol)=      573.      567.      1.64      1.62
 Nber of molecules processed=           2
