 Enter ifcurve (0=recti, 1=orth curvi, 2=apprx curvi, -1 = skip
 And atom ordering flag, 0= never changes, 1= use the first order thenceforth,
  2= deduce it (does read on fail), 3= always read it
 Reading file: 
 ./PDI_0_C0S0.log                                                               
                                          
  Entering Gaussian System, Link 0=g16                                          
  
 Gaussian format, type: g94, g98, g03= F F F
  #P Geom=AllCheck Guess=TCheck SCRF=Check GenChk RB3LYP/6-311G(d,p) Fre    
 energy type= B3LYP   
 Original G94 input coords:
  6  1.020247 -0.983254 -0.353997
  6  2.226836 -0.087025 -0.056902
  6  3.428634 -0.848532  0.511529
  7  2.607494  0.742442 -1.245288
  6  3.061207  0.105145 -2.407191
  8  3.152343 -1.108153 -2.471254
  6  3.427634  0.967546 -3.560307
  6  3.879854  0.379797 -4.725822
  6  4.231567  1.166174 -5.825518
  6  4.143430  2.556941 -5.796676
  6  4.511123  3.393077 -6.948092
  6  4.971886  2.846530 -8.144243
  6  5.319821  3.646387 -9.234291
  6  5.215583  5.020821 -9.156686
  6  5.592233  5.845977-10.330214
  8  5.995968  5.389518-11.381117
  7  5.452350  7.220670-10.154117
  1  5.705968  7.797511-10.947875
  6  5.007228  7.901459 -9.023348
  8  4.935652  9.114110 -9.013024
  6  4.641363  7.038338 -7.873893
  6  4.188647  7.621128 -6.707133
  6  3.837802  6.831733 -5.610403
  6  3.928196  5.441635 -5.645664
  6  3.560681  4.604726 -4.494714
  6  3.099141  5.145349 -3.295701
  6  2.752253  4.341764 -2.207077
  6  2.858579  2.966623 -2.289265
  6  2.482610  2.138674 -1.115550
  8  2.083141  2.648617 -0.084561
  6  3.321422  2.373065 -3.483518
  6  3.678299  3.185511 -4.601609
  6  4.394345  4.814516 -6.843352
  6  4.751969  5.627974 -7.962679
  1  0.688489 -1.451647  0.576580
  1  1.266043 -1.766990 -1.069266
  1  0.187196 -0.393428 -0.745027
  1  1.922241  0.657946  0.674675
  1  3.771124 -1.627570 -0.168230
  1  3.138742 -1.313643  1.457606
  1  4.257378 -0.165945  0.716561
  1  3.955354 -0.699387 -4.767805
  1  4.580156  0.660978 -6.715504
  1  5.069827  1.775319 -8.251375
  1  5.676315  3.204597-10.156595
  1  4.112227  8.700506 -6.662307
  1  3.488492  7.332246 -4.718197
  1  2.999233  6.215985 -3.183764
  1  2.395707  4.781327 -1.284232
 nber atoms=          49
  SCF Done:  E(RB3LYP) =  -1449.40702752     A.U. after    1 cycles             
  
          23          40 "  -1449.40702752"
After scan for Atom:   Atom  AN      X      Y      Z        X      Y      Z        X      Y      Z   
After scan for Atom:   Atom  AN      X      Y      Z        X      Y      Z        X      Y      Z   
After scan for Atom:   Atom  AN      X      Y      Z        X      Y      Z        X      Y      Z   
After scan for Atom:   Atom  AN      X      Y      Z        X      Y      Z        X      Y      Z   
After scan for Atom:   Atom  AN      X      Y      Z        X      Y      Z        X      Y      Z   
After scan for Atom:   Atom  AN      X      Y      Z        X      Y      Z        X      Y      Z   
After scan for Atom:   Atom  AN      X      Y      Z        X      Y      Z        X      Y      Z   
After scan for Atom:   Atom  AN      X      Y      Z        X      Y      Z        X      Y      Z   
After scan for Atom:   Atom  AN      X      Y      Z        X      Y      Z        X      Y      Z   
After scan for Atom:   Atom  AN      X      Y      Z        X      Y      Z        X      Y      Z   
After scan for Atom:   Atom  AN      X      Y      Z        X      Y      Z        X      Y      Z   
After scan for Atom:   Atom  AN      X      Y      Z        X      Y      Z        X      Y      Z   
After scan for Atom:   Atom  AN      X      Y      Z        X      Y      Z        X      Y      Z   
After scan for Atom:   Atom  AN      X      Y      Z        X      Y      Z        X      Y      Z   
After scan for Atom:   Atom  AN      X      Y      Z        X      Y      Z        X      Y      Z   
After scan for Atom:   Atom  AN      X      Y      Z        X      Y      Z        X      Y      Z   
After scan for Atom:   Atom  AN      X      Y      Z        X      Y      Z        X      Y      Z   
After scan for Atom:   Atom  AN      X      Y      Z        X      Y      Z        X      Y      Z   
After scan for Atom:   Atom  AN      X      Y      Z        X      Y      Z        X      Y      Z   
After scan for Atom:   Atom  AN      X      Y      Z        X      Y      Z        X      Y      Z   
After scan for Atom:   Atom  AN      X      Y      Z        X      Y      Z        X      Y      Z   
After scan for Atom:   Atom  AN      X      Y      Z        X      Y      Z        X      Y      Z   
After scan for Atom:   Atom  AN      X      Y      Z        X      Y      Z        X      Y      Z   
After scan for Atom:   Atom  AN      X      Y      Z        X      Y      Z        X      Y      Z   
After scan for Atom:   Atom  AN      X      Y      Z        X      Y      Z        X      Y      Z   
After scan for Atom:   Atom  AN      X      Y      Z        X      Y      Z        X      Y      Z   
After scan for Atom:   Atom  AN      X      Y      Z        X      Y      Z        X      Y      Z   
After scan for Atom:   Atom  AN      X      Y      Z        X      Y      Z        X      Y      Z   
After scan for Atom:   Atom  AN      X      Y      Z        X      Y      Z        X      Y      Z   
After scan for Atom:   Atom  AN      X      Y      Z        X      Y      Z        X      Y      Z   
After scan for Atom:   Atom  AN      X      Y      Z        X      Y      Z        X      Y      Z   
After scan for Atom:   Atom  AN      X      Y      Z        X      Y      Z        X      Y      Z   
After scan for Atom:   Atom  AN      X      Y      Z        X      Y      Z        X      Y      Z   
After scan for Atom:   Atom  AN      X      Y      Z        X      Y      Z        X      Y      Z   
After scan for Atom:   Atom  AN      X      Y      Z        X      Y      Z        X      Y      Z   
After scan for Atom:   Atom  AN      X      Y      Z        X      Y      Z        X      Y      Z   
After scan for Atom:   Atom  AN      X      Y      Z        X      Y      Z        X      Y      Z   
After scan for Atom:   Atom  AN      X      Y      Z        X      Y      Z        X      Y      Z   
After scan for Atom:   Atom  AN      X      Y      Z        X      Y      Z        X      Y      Z   
After scan for Atom:   Atom  AN      X      Y      Z        X      Y      Z        X      Y      Z   
After scan for Atom:   Atom  AN      X      Y      Z        X      Y      Z        X      Y      Z   
After scan for Atom:   Atom  AN      X      Y      Z        X      Y      Z        X      Y      Z   
After scan for Atom:   Atom  AN      X      Y      Z        X      Y      Z        X      Y      Z   
After scan for Atom:   Atom  AN      X      Y      Z        X      Y      Z        X      Y      Z   
After scan for Atom:   Atom  AN      X      Y      Z        X      Y      Z        X      Y      Z   
After scan for Atom:   Atom  AN      X      Y      Z        X      Y      Z        X      Y      Z   
After scan for Atom:   Atom  AN      X      Y      Z        X      Y      Z        X      Y      Z   
 g94    frequencies=
     0.0    0.0    0.0    0.0    0.0    0.0   21.1   27.1   52.3   57.7
    78.3   87.7   99.1  113.5  142.4  163.5  186.9  188.3  191.2  208.5
   218.9  234.7  235.9  272.2  278.5  291.1  314.8  347.3  355.9  379.0
   390.8  426.2  430.3  436.1  439.5  446.9  448.2  473.2  477.9  480.4
   491.2  517.1  535.6  546.7  577.0  581.4  582.3  619.9  632.2  644.9
   660.6  667.0  694.2  708.7  717.0  739.2  743.7  759.3  765.1  775.3
   776.6  785.8  806.2  808.3  824.0  845.1  865.2  865.6  870.8  872.9
   873.3  923.4  945.5  957.0  960.8  978.8  992.7  996.8 1001.5 1005.8
  1056.7 1082.0 1101.1 1127.0 1152.4 1155.8 1171.1 1194.1 1202.6 1203.8
  1209.5 1218.4 1224.6 1240.7 1258.5 1277.0 1301.1 1316.2 1325.0 1337.0
  1353.1 1369.3 1374.7 1382.4 1388.7 1400.7 1406.1 1417.3 1419.1 1427.5
  1437.1 1454.1 1474.8 1485.3 1490.1 1498.2 1504.8 1505.3 1522.7 1543.4
  1559.7 1603.2 1615.3 1622.6 1630.5 1631.9 1648.5 1713.6 1751.6 1766.7
  1769.9 3034.9 3038.9 3092.7 3095.9 3113.3 3133.4 3143.7 3193.7 3193.9
  3200.0 3200.3 3208.0 3208.3 3218.9 3219.0 3580.2
 g94    symmetries=
                                                 A      A      A      A
       A      A      A      A      A      A      A      A      A      A
       A      A      A      A      A      A      A      A      A      A
       A      A      A      A      A      A      A      A      A      A
       A      A      A      A      A      A      A      A      A      A
       A      A      A      A      A      A      A      A      A      A
       A      A      A      A      A      A      A      A      A      A
       A      A      A      A      A      A      A      A      A      A
       A      A      A      A      A      A      A      A      A      A
       A      A      A      A      A      A      A      A      A      A
       A      A      A      A      A      A      A      A      A      A
       A      A      A      A      A      A      A      A      A      A
       A      A      A      A      A      A      A      A      A      A
       A      A      A      A      A      A      A      A      A      A
       A      A      A      A      A      A      A
 atomic masses:
 12.0000 12.0000 12.0000 14.0031 12.0000 15.9949 12.0000 12.0000 12.0000 12.0000
 12.0000 12.0000 12.0000 12.0000 12.0000 15.9949 14.0031  1.0078 12.0000 15.9949
 12.0000 12.0000 12.0000 12.0000 12.0000 12.0000 12.0000 12.0000 12.0000 15.9949
 12.0000 12.0000 12.0000 12.0000  1.0078  1.0078  1.0078  1.0078  1.0078  1.0078
  1.0078  1.0078  1.0078  1.0078  1.0078  1.0078  1.0078  1.0078  1.0078
 looking for force constants in 
 ./PDI_0_C0S0.fchk                                                              
  
 Cartesian Force Constants                  R   N=       10878                  
  
 n3=         147       10878
 g94-fc frequencies=
    -6.5   -1.9   -0.0    0.0    0.0    1.0   21.1   27.1   52.3   57.7
    78.3   87.7   99.1  113.5  142.4  163.5  186.9  188.3  191.2  208.5
   218.9  234.7  235.9  272.2  278.6  291.1  314.8  347.4  355.9  379.0
   390.8  426.2  430.3  436.1  439.5  446.9  448.2  473.2  478.0  480.4
   491.2  517.1  535.6  546.7  577.0  581.4  582.3  619.9  632.3  644.9
   660.7  667.1  694.3  708.7  717.0  739.2  743.7  759.3  765.1  775.3
   776.6  785.9  806.2  808.4  824.0  845.1  865.2  865.6  870.8  873.0
   873.3  923.4  945.5  957.1  960.8  978.8  992.7  996.8 1001.5 1005.8
  1056.7 1082.1 1101.2 1127.0 1152.4 1155.9 1171.1 1194.1 1202.7 1203.8
  1209.5 1218.5 1224.6 1240.7 1258.5 1277.0 1301.2 1316.2 1325.0 1337.1
  1353.1 1369.3 1374.7 1382.4 1388.7 1400.8 1406.1 1417.3 1419.1 1427.5
  1437.1 1454.1 1474.9 1485.3 1490.2 1498.2 1504.8 1505.3 1522.7 1543.4
  1559.8 1603.2 1615.3 1622.7 1630.6 1631.9 1648.5 1713.6 1751.6 1766.8
  1769.9 3034.9 3039.0 3092.8 3096.0 3113.4 3133.5 3143.8 3193.8 3194.0
  3200.1 3200.4 3208.1 3208.4 3218.9 3219.1 3580.2
 at 99999: n3=         147
 symm operator            1 :  F  nop=           0
 symm operator            2 :  F  nop=           0
 symm operator            3 :  F  nop=           0
 symm operator            4 :  F  nop=           0
 symm operator            5 :  F  nop=           0
 symm operator            6 :  F  nop=           0
 symm operator            7 :  F  nop=           0
 The point group of the molecule is  C1
 Symmetry rotation matrix:
   1.00000   0.00000   0.00000
   0.00000   1.00000   0.00000
   0.00000   0.00000   1.00000

 Projecting out zero-frequency components
 generating redundant internal coords
         300        3600          49
 search for int coords
   1 str   2   1   1.532
   2 str   3   2   1.532
   3 str   4   2   1.498
   4 str   5   4   1.401
   5 str   6   5   1.218
   6 str   7   5   1.486
   7 str   8   7   1.381
   8 str   9   8   1.397
   9 str  10   9   1.394
  10 str  11  10   1.470
  11 str  12  11   1.393
  12 str  13  12   1.396
  13 str  14  13   1.381
  14 str  15  14   1.483
  15 str  16  15   1.215
  16 str  17  15   1.393
  17 str  18  16   2.464
  18 str  18  17   1.013
  19 str  19  17   1.393
  20 str  20  18   2.464
  21 str  20  19   1.215
  22 str  21  19   1.483
  23 str  22  21   1.381
  24 str  23  22   1.396
  25 str  24  23   1.393
  26 str  25  24   1.470
  27 str  26  25   1.394
  28 str  27  26   1.397
  29 str  28  27   1.382
  30 str  29   4   1.408
  31 str  29  28   1.485
  32 str  30  29   1.218
  33 str  31   7   1.412
  34 str  31  28   1.412
  35 str  32  10   1.428
  36 str  32  25   1.428
  37 str  32  31   1.427
  38 str  33  11   1.430
  39 str  33  24   1.430
  40 str  34  14   1.417
  41 str  34  21   1.417
  42 str  34  33   1.429
  43 str  35   1   1.093
  44 str  36   1   1.089
  45 str  37   1   1.093
  46 str  38   2   1.088
  47 str  39   3   1.089
  48 str  40   3   1.093
  49 str  41   3   1.093
  50 str  42   8   1.083
  51 str  43   9   1.081
  52 str  44  12   1.081
  53 str  45  13   1.083
  54 str  46  22   1.083
  55 str  47  23   1.081
  56 str  48  26   1.081
  57 str  49  27   1.083
 nber stretches=          57
  58 ben   1   2   3
  59 prop tor   1   2   3  39
  60 prop tor   1   2   3  40
  61 prop tor   1   2   3  41
  62 ben   1   2   4
  63 prop tor   1   2   4   5
  64 prop tor   1   2   4  29
  65 ben   1   2  38
  66 ben   2   1  35
  67 ben   2   1  36
  68 ben   2   1  37
  69 ben   2   3  39
  70 ben   2   3  40
  71 ben   2   3  41
  72 ben   2   4   5
  73 prop tor   2   4   5   6
  74 prop tor   2   4   5   7
  75 ben   2   4  29
  76 prop tor   2   4  29  28
  77 prop tor   2   4  29  30
  78 ben   3   2   4
  79 prop tor   3   2   4   5
  80 prop tor   3   2   4  29
  81 ben   3   2  38
  82 prop tor   4   2   3  39
  83 prop tor   4   2   3  40
  84 prop tor   4   2   3  41
  85 ben   4   2  38
  86 ben   4   5   6
  87 ben   4   5   7
  88 prop tor   4   5   7   8
  89 prop tor   4   5   7  31
  90 ben   4  29  28
  91 ben   4  29  30
  92 ben   5   4  29
  93 prop tor   5   4  29  28
  94 prop tor   5   4  29  30
  95 ben   5   7   8
  96 prop tor   5   7   8   9
  97 prop tor   5   7   8  42
  98 ben   5   7  31
  99 prop tor   5   7  31  28
 100 prop tor   5   7  31  32
 101 ben   6   5   7
 102 prop tor   6   5   7   8
 103 prop tor   6   5   7  31
 104 ben   7   8   9
 105 prop tor   7   8   9  10
 106 prop tor   7   8   9  43
 107 ben   7   8  42
 108 ben   7  31  28
 109 ben   7  31  32
 110 prop tor   7  31  32  10
 111 prop tor   7  31  32  25
 112 ben   8   7  31
 113 prop tor   8   7  31  28
 114 prop tor   8   7  31  32
 115 ben   8   9  10
 116 prop tor   8   9  10  11
 117 prop tor   8   9  10  32
 118 ben   8   9  43
 119 ben   9   8  42
 120 ben   9  10  11
 121 prop tor   9  10  11  12
 122 prop tor   9  10  11  33
 123 ben   9  10  32
 124 prop tor   9  10  32  25
 125 prop tor   9  10  32  31
 126 ben  10   9  43
 127 ben  10  11  12
 128 prop tor  10  11  12  13
 129 prop tor  10  11  12  44
 130 ben  10  11  33
 131 prop tor  10  11  33  24
 132 prop tor  10  11  33  34
 133 ben  10  32  25
 134 ben  10  32  31
 135 ben  11  10  32
 136 prop tor  11  10  32  25
 137 prop tor  11  10  32  31
 138 ben  11  12  13
 139 prop tor  11  12  13  14
 140 prop tor  11  12  13  45
 141 ben  11  12  44
 142 ben  11  33  24
 143 ben  11  33  34
 144 prop tor  11  33  34  14
 145 prop tor  11  33  34  21
 146 ben  12  11  33
 147 prop tor  12  11  33  24
 148 prop tor  12  11  33  34
 149 ben  12  13  14
 150 prop tor  12  13  14  15
 151 prop tor  12  13  14  34
 152 ben  12  13  45
 153 ben  13  12  44
 154 ben  13  14  15
 155 prop tor  13  14  15  16
 156 prop tor  13  14  15  17
 157 ben  13  14  34
 158 prop tor  13  14  34  21
 159 prop tor  13  14  34  33
 160 ben  14  13  45
 161 ben  14  15  16
 162 prop tor  14  15  16  18
 163 ben  14  15  17
 164 prop tor  14  15  17  18
 165 prop tor  14  15  17  19
 166 ben  14  34  21
 167 ben  14  34  33
 168 ben  15  14  34
 169 prop tor  15  14  34  21
 170 prop tor  15  14  34  33
 171 ben  15  16  18
 172 prop tor  15  16  18  17
 173 prop tor  15  16  18  20
 174 ben  15  17  18
 175 prop tor  15  17  18  16
 176 prop tor  15  17  18  20
 177 ben  15  17  19
 178 prop tor  15  17  19  20
 179 prop tor  15  17  19  21
 180 ben  16  15  17
 181 prop tor  16  15  17  18
 182 prop tor  16  15  17  19
 183 ben  16  18  17
 184 ben  16  18  20
 185 prop tor  16  18  20  19
 186 prop tor  17  15  16  18
 187 ben  17  18  20
 188 prop tor  17  18  20  19
 189 ben  17  19  20
 190 prop tor  17  19  20  18
 191 ben  17  19  21
 192 prop tor  17  19  21  22
 193 prop tor  17  19  21  34
 194 ben  18  17  19
 195 prop tor  18  17  19  20
 196 prop tor  18  17  19  21
 197 ben  18  20  19
 198 prop tor  19  17  18  16
 199 prop tor  19  17  18  20
 200 ben  19  21  22
 201 prop tor  19  21  22  23
 202 prop tor  19  21  22  46
 203 ben  19  21  34
 204 prop tor  19  21  34  14
 205 prop tor  19  21  34  33
 206 ben  20  19  21
 207 prop tor  20  19  21  22
 208 prop tor  20  19  21  34
 209 prop tor  21  19  20  18
 210 ben  21  22  23
 211 prop tor  21  22  23  24
 212 prop tor  21  22  23  47
 213 ben  21  22  46
 214 ben  21  34  33
 215 ben  22  21  34
 216 prop tor  22  21  34  14
 217 prop tor  22  21  34  33
 218 ben  22  23  24
 219 prop tor  22  23  24  25
 220 prop tor  22  23  24  33
 221 ben  22  23  47
 222 ben  23  22  46
 223 ben  23  24  25
 224 prop tor  23  24  25  26
 225 prop tor  23  24  25  32
 226 ben  23  24  33
 227 prop tor  23  24  33  11
 228 prop tor  23  24  33  34
 229 ben  24  23  47
 230 ben  24  25  26
 231 prop tor  24  25  26  27
 232 prop tor  24  25  26  48
 233 ben  24  25  32
 234 prop tor  24  25  32  10
 235 prop tor  24  25  32  31
 236 ben  24  33  34
 237 prop tor  24  33  34  14
 238 prop tor  24  33  34  21
 239 ben  25  24  33
 240 prop tor  25  24  33  11
 241 prop tor  25  24  33  34
 242 ben  25  26  27
 243 prop tor  25  26  27  28
 244 prop tor  25  26  27  49
 245 ben  25  26  48
 246 ben  25  32  31
 247 ben  26  25  32
 248 prop tor  26  25  32  10
 249 prop tor  26  25  32  31
 250 ben  26  27  28
 251 prop tor  26  27  28  29
 252 prop tor  26  27  28  31
 253 ben  26  27  49
 254 ben  27  26  48
 255 ben  27  28  29
 256 prop tor  27  28  29   4
 257 prop tor  27  28  29  30
 258 ben  27  28  31
 259 prop tor  27  28  31   7
 260 prop tor  27  28  31  32
 261 ben  28  27  49
 262 ben  28  29  30
 263 ben  28  31  32
 264 prop tor  28  31  32  10
 265 prop tor  28  31  32  25
 266 prop tor  29   4   5   6
 267 prop tor  29   4   5   7
 268 ben  29  28  31
 269 prop tor  29  28  31   7
 270 prop tor  29  28  31  32
 271 prop tor  31   7   8   9
 272 prop tor  31   7   8  42
 273 prop tor  31  28  29   4
 274 prop tor  31  28  29  30
 275 prop tor  32  10  11  12
 276 prop tor  32  10  11  33
 277 prop tor  32  25  26  27
 278 prop tor  32  25  26  48
 279 prop tor  33  11  12  13
 280 prop tor  33  11  12  44
 281 prop tor  33  24  25  26
 282 prop tor  33  24  25  32
 283 prop tor  34  14  15  16
 284 prop tor  34  14  15  17
 285 prop tor  34  21  22  23
 286 prop tor  34  21  22  46
 287 prop tor  35   1   2   3
 288 prop tor  35   1   2   4
 289 prop tor  35   1   2  38
 290 ben  35   1  36
 291 ben  35   1  37
 292 prop tor  36   1   2   3
 293 prop tor  36   1   2   4
 294 prop tor  36   1   2  38
 295 ben  36   1  37
 296 prop tor  37   1   2   3
 297 prop tor  37   1   2   4
 298 prop tor  37   1   2  38
 299 prop tor  38   2   3  39
 300 prop tor  38   2   3  40
 301 prop tor  38   2   3  41
 302 prop tor  38   2   4   5
 303 prop tor  38   2   4  29
 304 ben  39   3  40
 305 ben  39   3  41
 306 ben  40   3  41
 307 prop tor  42   8   9  10
 308 prop tor  42   8   9  43
 309 prop tor  43   9  10  11
 310 prop tor  43   9  10  32
 311 prop tor  44  12  13  14
 312 prop tor  44  12  13  45
 313 prop tor  45  13  14  15
 314 prop tor  45  13  14  34
 315 prop tor  46  22  23  24
 316 prop tor  46  22  23  47
 317 prop tor  47  23  24  25
 318 prop tor  47  23  24  33
 319 prop tor  48  26  27  28
 320 prop tor  48  26  27  49
 321 prop tor  49  27  28  29
 322 prop tor  49  27  28  31
 nber bend=             101
 nber lin bend=           0
 nber prop tor=         164
 nber impr tor=           0
 nber tot redund int=         322
 Eigenvalues of G in red int coords
    Gval -0.00000000 -0.00000000 -0.00000000 -0.00000000 -0.00000000 -0.00000000 -0.00000000 -0.00000000
    Gval -0.00000000 -0.00000000 -0.00000000 -0.00000000 -0.00000000 -0.00000000 -0.00000000 -0.00000000
    Gval -0.00000000 -0.00000000 -0.00000000 -0.00000000 -0.00000000 -0.00000000 -0.00000000 -0.00000000
    Gval -0.00000000 -0.00000000 -0.00000000 -0.00000000 -0.00000000 -0.00000000 -0.00000000 -0.00000000
    Gval -0.00000000 -0.00000000 -0.00000000 -0.00000000 -0.00000000 -0.00000000 -0.00000000 -0.00000000
    Gval -0.00000000 -0.00000000 -0.00000000 -0.00000000 -0.00000000 -0.00000000 -0.00000000 -0.00000000
    Gval -0.00000000 -0.00000000 -0.00000000 -0.00000000 -0.00000000 -0.00000000 -0.00000000 -0.00000000
    Gval -0.00000000 -0.00000000 -0.00000000 -0.00000000 -0.00000000 -0.00000000 -0.00000000 -0.00000000
    Gval -0.00000000 -0.00000000 -0.00000000 -0.00000000 -0.00000000 -0.00000000 -0.00000000 -0.00000000
    Gval -0.00000000 -0.00000000 -0.00000000 -0.00000000 -0.00000000 -0.00000000 -0.00000000 -0.00000000
    Gval -0.00000000 -0.00000000 -0.00000000 -0.00000000 -0.00000000 -0.00000000 -0.00000000 -0.00000000
    Gval -0.00000000 -0.00000000 -0.00000000 -0.00000000 -0.00000000  0.00000000  0.00000000  0.00000000
    Gval  0.00000000  0.00000000  0.00000000  0.00000000  0.00000000  0.00000000  0.00000000  0.00000000
    Gval  0.00000000  0.00000000  0.00000000  0.00000000  0.00000000  0.00000000  0.00000000  0.00000000
    Gval  0.00000000  0.00000000  0.00000000  0.00000000  0.00000000  0.00000000  0.00000000  0.00000000
    Gval  0.00000000  0.00000000  0.00000000  0.00000000  0.00000000  0.00000000  0.00000000  0.00000000
    Gval  0.00000000  0.00000000  0.00000000  0.00000000  0.00000000  0.00000000  0.00000000  0.00000000
    Gval  0.00000000  0.00000000  0.00000000  0.00000000  0.00000000  0.00000000  0.00000000  0.00000000
    Gval  0.00000000  0.00000000  0.00000000  0.00000000  0.00000000  0.00000000  0.00000000  0.00000000
    Gval  0.00000000  0.00000000  0.00000000  0.00000000  0.00000000  0.00000000  0.00000000  0.00000000
    Gval  0.00000000  0.00000000  0.00000000  0.00000000  0.00000000  0.00000000  0.00000000  0.00000000
    Gval  0.00000000  0.00000000  0.00000000  0.00000000  0.00000000  0.00000000  0.00000000  0.00000000
    Gval  0.00000000  0.00000000  0.00000000  0.00000000  0.00000000  0.00000136  0.00000297  0.00000340
    Gval  0.00000533  0.00000882  0.00001050  0.00001118  0.00001433  0.00001514  0.00001581  0.00001783
    Gval  0.00001836  0.00002146  0.00002308  0.00002431  0.00002605  0.00002895  0.00003043  0.00003600
    Gval  0.00003994  0.00004476  0.00005071  0.00005220  0.00005415  0.00005487  0.00005760  0.00005902
    Gval  0.00006395  0.00006925  0.00007267  0.00007520  0.00008135  0.00008258  0.00008557  0.00008816
    Gval  0.00008924  0.00009272  0.00009732  0.00009856  0.00011943  0.00012629  0.00012820  0.00013688
    Gval  0.00013934  0.00014117  0.00014258  0.00016203  0.00016386  0.00016791  0.00018342  0.00018589
    Gval  0.00021383  0.00022448  0.00022683  0.00023322  0.00025034  0.00028177  0.00028723  0.00029674
    Gval  0.00031011  0.00034664  0.00037269  0.00038194  0.00039183  0.00039318  0.00039605  0.00039686
    Gval  0.00042674  0.00043152  0.00043263  0.00043562  0.00044176  0.00044586  0.00046288  0.00046539
    Gval  0.00046728  0.00048190  0.00049172  0.00052330  0.00053437  0.00053717  0.00055345  0.00055414
    Gval  0.00055603  0.00055657  0.00059865  0.00059944  0.00059970  0.00060002  0.00060220  0.00064194
    Gval  0.00064565  0.00064615  0.00064658  0.00064814  0.00067538  0.00069788  0.00069831  0.00081255
    Gval  0.00084612  0.00090668  0.00106304  0.00109540  0.00109639  0.00109709  0.00109765  0.00114370
    Gval  0.00116250  0.00116260  0.00116299  0.00116321  0.00117036  0.00117168  0.00117239  0.00128489
    Gval  0.00129530  0.00132326  0.00134582  0.00153418  0.00156054  0.00176784  0.00178272  0.00191774
    Gval  0.00229217  0.00236428  0.00254178  0.00255081  0.00259323  0.00278493  0.00292285  0.00292711
    Gval  0.00302369  0.00304220  0.00308152  0.00309691  0.00365678  0.00365882  0.00370522  0.00370702
    Gval  0.00394355  0.00546921
  1.358654771008398E-006  1.358654771008398E-006
  2.972672284866659E-006  1.358654771008398E-006
  3.404476690573600E-006  1.358654771008398E-006
  5.332023824848104E-006  1.358654771008398E-006
  8.821547383085115E-006  1.358654771008398E-006
  1.049888229097911E-005  1.358654771008398E-006
  1.117977900242471E-005  1.358654771008398E-006
  1.432822872811881E-005  1.358654771008398E-006
  1.513966828060987E-005  1.358654771008398E-006
  1.580537912260553E-005  1.358654771008398E-006
  1.783402628163516E-005  1.358654771008398E-006
  1.836020980497189E-005  1.358654771008398E-006
  2.146489995408382E-005  1.358654771008398E-006
  2.307546741050580E-005  1.358654771008398E-006
  2.431320302707778E-005  1.358654771008398E-006
  2.604838456659090E-005  1.358654771008398E-006
  2.894822853590809E-005  1.358654771008398E-006
  3.042943462660911E-005  1.358654771008398E-006
  3.599953691732852E-005  1.358654771008398E-006
  3.993598871709675E-005  1.358654771008398E-006
  4.475602408943578E-005  1.358654771008398E-006
  5.070611107215865E-005  1.358654771008398E-006
  5.219926660253061E-005  1.358654771008398E-006
  5.415344071476241E-005  1.358654771008398E-006
  5.487308195242565E-005  1.358654771008398E-006
  5.760129541672855E-005  1.358654771008398E-006
  5.901869899161171E-005  1.358654771008398E-006
  6.395084713019972E-005  1.358654771008398E-006
  6.925292890362620E-005  1.358654771008398E-006
  7.267118732223617E-005  1.358654771008398E-006
  7.520372670087832E-005  1.358654771008398E-006
  8.134756290057682E-005  1.358654771008398E-006
  8.258252229647357E-005  1.358654771008398E-006
  8.556991286986952E-005  1.358654771008398E-006
  8.816159969809858E-005  1.358654771008398E-006
  8.924466588894139E-005  1.358654771008398E-006
  9.272424232500808E-005  1.358654771008398E-006
  9.732019828366864E-005  1.358654771008398E-006
  9.856339900527751E-005  1.358654771008398E-006
  1.194266928686917E-004  1.358654771008398E-006
  1.262943430595452E-004  1.358654771008398E-006
  1.282015777735499E-004  1.358654771008398E-006
  1.368809358317654E-004  1.358654771008398E-006
  1.393385310651119E-004  1.358654771008398E-006
  1.411659112508679E-004  1.358654771008398E-006
  1.425823983188018E-004  1.358654771008398E-006
  1.620277185150026E-004  1.358654771008398E-006
  1.638557066106197E-004  1.358654771008398E-006
  1.679050402687350E-004  1.358654771008398E-006
  1.834226299196869E-004  1.358654771008398E-006
  1.858927892892450E-004  1.358654771008398E-006
  2.138327600310965E-004  1.358654771008398E-006
  2.244755170490817E-004  1.358654771008398E-006
  2.268318830690905E-004  1.358654771008398E-006
  2.332229525092610E-004  1.358654771008398E-006
  2.503410250190852E-004  1.358654771008398E-006
  2.817721154260522E-004  1.358654771008398E-006
  2.872256560923021E-004  1.358654771008398E-006
  2.967427557118034E-004  1.358654771008398E-006
  3.101053072513962E-004  1.358654771008398E-006
  3.466444993834250E-004  1.358654771008398E-006
  3.726895069806084E-004  1.358654771008398E-006
  3.819412817158349E-004  1.358654771008398E-006
  3.918344284197366E-004  1.358654771008398E-006
  3.931799413684037E-004  1.358654771008398E-006
  3.960527494747510E-004  1.358654771008398E-006
  3.968624521805386E-004  1.358654771008398E-006
  4.267439110404451E-004  1.358654771008398E-006
  4.315207358547176E-004  1.358654771008398E-006
  4.326257960808806E-004  1.358654771008398E-006
  4.356193082901286E-004  1.358654771008398E-006
  4.417619141233777E-004  1.358654771008398E-006
  4.458612894689943E-004  1.358654771008398E-006
  4.628836562295528E-004  1.358654771008398E-006
  4.653916370367270E-004  1.358654771008398E-006
  4.672847075803188E-004  1.358654771008398E-006
  4.818984434806866E-004  1.358654771008398E-006
  4.917203984820815E-004  1.358654771008398E-006
  5.233017744582783E-004  1.358654771008398E-006
  5.343726300833107E-004  1.358654771008398E-006
  5.371699000405178E-004  1.358654771008398E-006
  5.534527699236709E-004  1.358654771008398E-006
  5.541364480898401E-004  1.358654771008398E-006
  5.560291229304458E-004  1.358654771008398E-006
  5.565712776082400E-004  1.358654771008398E-006
  5.986542343467824E-004  1.358654771008398E-006
  5.994444304747427E-004  1.358654771008398E-006
  5.996975693969724E-004  1.358654771008398E-006
  6.000234627391416E-004  1.358654771008398E-006
  6.021956667259245E-004  1.358654771008398E-006
  6.419449648666884E-004  1.358654771008398E-006
  6.456505697884573E-004  1.358654771008398E-006
  6.461468310374959E-004  1.358654771008398E-006
  6.465812110431203E-004  1.358654771008398E-006
  6.481388305020050E-004  1.358654771008398E-006
  6.753767499062795E-004  1.358654771008398E-006
  6.978827536945872E-004  1.358654771008398E-006
  6.983102247805547E-004  1.358654771008398E-006
  8.125462791155807E-004  1.358654771008398E-006
  8.461170493614713E-004  1.358654771008398E-006
  9.066823330666295E-004  1.358654771008398E-006
  1.063036238411462E-003  1.358654771008398E-006
  1.095399814775702E-003  1.358654771008398E-006
  1.096385386358647E-003  1.358654771008398E-006
  1.097090609691472E-003  1.358654771008398E-006
  1.097653369597182E-003  1.358654771008398E-006
  1.143697010344150E-003  1.358654771008398E-006
  1.162497541610237E-003  1.358654771008398E-006
  1.162602343602448E-003  1.358654771008398E-006
  1.162992976783197E-003  1.358654771008398E-006
  1.163210846314388E-003  1.358654771008398E-006
  1.170358415752976E-003  1.358654771008398E-006
  1.171684545741321E-003  1.358654771008398E-006
  1.172393094723486E-003  1.358654771008398E-006
  1.284893339899168E-003  1.358654771008398E-006
  1.295296284214656E-003  1.358654771008398E-006
  1.323261480065671E-003  1.358654771008398E-006
  1.345820769258359E-003  1.358654771008398E-006
  1.534183411376731E-003  1.358654771008398E-006
  1.560535627552750E-003  1.358654771008398E-006
  1.767837751485156E-003  1.358654771008398E-006
  1.782719348916548E-003  1.358654771008398E-006
  1.917740044442759E-003  1.358654771008398E-006
  2.292168181071808E-003  1.358654771008398E-006
  2.364277379167338E-003  1.358654771008398E-006
  2.541783595950138E-003  1.358654771008398E-006
  2.550812559866251E-003  1.358654771008398E-006
  2.593225788808650E-003  1.358654771008398E-006
  2.784933858400719E-003  1.358654771008398E-006
  2.922847015559266E-003  1.358654771008398E-006
  2.927111572396709E-003  1.358654771008398E-006
  3.023687000676613E-003  1.358654771008398E-006
  3.042198825418977E-003  1.358654771008398E-006
  3.081515254828878E-003  1.358654771008398E-006
  3.096910060335403E-003  1.358654771008398E-006
  3.656776608350383E-003  1.358654771008398E-006
  3.658823437821456E-003  1.358654771008398E-006
  3.705219908017384E-003  1.358654771008398E-006
  3.707018703166281E-003  1.358654771008398E-006
  3.943548932602120E-003  1.358654771008398E-006
  5.469207694914422E-003  1.358654771008398E-006
 cut=1d-8, nber non-redundant internal coords=         141
 Check on Eigenvals of non-red overlap matrix:
  0.00000136  0.00000297  0.00000340  0.00000533  0.00000882  0.00001050  0.00001118  0.00001433
  0.00001514  0.00001581  0.00001783  0.00001836  0.00002146  0.00002308  0.00002431  0.00002605
  0.00002895  0.00003043  0.00003600  0.00003994  0.00004476  0.00005071  0.00005220  0.00005415
  0.00005487  0.00005760  0.00005902  0.00006395  0.00006925  0.00007267  0.00007520  0.00008135
  0.00008258  0.00008557  0.00008816  0.00008924  0.00009272  0.00009732  0.00009856  0.00011943
  0.00012629  0.00012820  0.00013688  0.00013934  0.00014117  0.00014258  0.00016203  0.00016386
  0.00016791  0.00018342  0.00018589  0.00021383  0.00022448  0.00022683  0.00023322  0.00025034
  0.00028177  0.00028723  0.00029674  0.00031011  0.00034664  0.00037269  0.00038194  0.00039183
  0.00039318  0.00039605  0.00039686  0.00042674  0.00043152  0.00043263  0.00043562  0.00044176
  0.00044586  0.00046288  0.00046539  0.00046728  0.00048190  0.00049172  0.00052330  0.00053437
  0.00053717  0.00055345  0.00055414  0.00055603  0.00055657  0.00059865  0.00059944  0.00059970
  0.00060002  0.00060220  0.00064194  0.00064565  0.00064615  0.00064658  0.00064814  0.00067538
  0.00069788  0.00069831  0.00081255  0.00084612  0.00090668  0.00106304  0.00109540  0.00109639
  0.00109709  0.00109765  0.00114370  0.00116250  0.00116260  0.00116299  0.00116321  0.00117036
  0.00117168  0.00117239  0.00128489  0.00129530  0.00132326  0.00134582  0.00153418  0.00156054
  0.00176784  0.00178272  0.00191774  0.00229217  0.00236428  0.00254178  0.00255081  0.00259323
  0.00278493  0.00292285  0.00292711  0.00302369  0.00304220  0.00308152  0.00309691  0.00365678
  0.00365882  0.00370522  0.00370702  0.00394355  0.00546921
 Checking for correct frequencies
 recalc frequencies=
    -0.0   -0.0   -0.0    0.0    0.0    0.0   21.1   27.1   52.3   57.7
    78.3   87.7   99.1  113.5  142.4  163.5  186.9  188.3  191.2  208.5
   218.9  234.7  235.9  272.2  278.6  291.1  314.8  347.4  355.9  379.0
   390.8  426.2  430.3  436.1  439.5  446.9  448.2  473.2  478.0  480.4
   491.2  517.1  535.6  546.7  577.0  581.4  582.3  619.9  632.3  644.9
   660.7  667.1  694.3  708.7  717.0  739.2  743.7  759.3  765.1  775.3
   776.6  785.9  806.2  808.4  824.0  845.1  865.2  865.6  870.8  873.0
   873.3  923.4  945.5  957.1  960.8  978.8  992.7  996.8 1001.5 1005.8
  1056.7 1082.1 1101.2 1127.0 1152.4 1155.9 1171.1 1194.1 1202.7 1203.8
  1209.5 1218.5 1224.6 1240.7 1258.5 1277.0 1301.2 1316.2 1325.0 1337.1
  1353.1 1369.3 1374.7 1382.4 1388.7 1400.8 1406.1 1417.3 1419.1 1427.5
  1437.1 1454.1 1474.9 1485.3 1490.2 1498.2 1504.8 1505.3 1522.7 1543.4
  1559.8 1603.2 1615.3 1622.7 1630.6 1631.9 1648.5 1713.6 1751.6 1766.8
  1769.9 3034.9 3039.0 3092.8 3096.0 3113.4 3133.5 3143.8 3193.8 3194.0
  3200.1 3200.4 3208.1 3208.4 3218.9 3219.1 3580.2
 recalc symmetries=
                                                                       
                                                                       
                                                                       
                                                                       
                                                                       
                                                                       
                                                                       
                                                                       
                                                                       
                                                                       
                                                                       
                                                                       
                                                                       
                                                                       
                                                  
 recalc freqs check OK
 Zero-point lengths:
 10.0000 10.0000 10.0000 10.0000 10.0000 10.0000 54.0081 47.6292 34.2742 32.6306
 28.0173 26.4685 24.8993 23.2717 20.7777 19.3889 18.1342 18.0657 17.9293 17.1678
 16.7551 16.1811 16.1425 15.0270 14.8540 14.5303 13.9730 13.3018 13.1407 12.7341
 12.5406 12.0090 11.9505 11.8718 11.8258 11.7269 11.7098 11.3970 11.3397 11.3106
 11.1855 10.9016 10.7121 10.6028 10.3207 10.2817 10.2737  9.9570  9.8594  9.7624
  9.6452  9.5987  9.4088  9.3125  9.2585  9.1183  9.0906  8.9967  8.9627  8.9033
  8.8961  8.8435  8.7311  8.7195  8.6364  8.5279  8.4283  8.4264  8.4012  8.3907
  8.3892  8.1583  8.0622  8.0136  7.9980  7.9239  7.8684  7.8520  7.8337  7.8170
  7.6263  7.5365  7.4708  7.3846  7.3028  7.2920  7.2444  7.1743  7.1486  7.1452
  7.1283  7.1022  7.0843  7.0381  6.9881  6.9375  6.8727  6.8334  6.8106  6.7798
  6.7395  6.6995  6.6864  6.6678  6.6525  6.6239  6.6112  6.5852  6.5809  6.5615
  6.5396  6.5012  6.4554  6.4326  6.4221  6.4049  6.3908  6.3897  6.3531  6.3103
  6.2772  6.1915  6.1683  6.1543  6.1394  6.1369  6.1059  5.9888  5.9235  5.8980
  5.8928  4.5001  4.4971  4.4578  4.4555  4.4431  4.4287  4.4215  4.3868  4.3866
  4.3824  4.3822  4.3770  4.3767  4.3696  4.3695  4.1432
 highest evec of mol 1
  0.0000  0.0000 -0.0000
  0.0000  0.0000 -0.0000
 -0.0000  0.0000 -0.0000
 -0.0000 -0.0000  0.0000
  0.0000  0.0001 -0.0001
 -0.0000 -0.0001  0.0000
 -0.0000 -0.0000  0.0001
  0.0000  0.0000 -0.0000
 -0.0000 -0.0000  0.0000
  0.0000  0.0000 -0.0000
  0.0000 -0.0000 -0.0000
 -0.0001  0.0001  0.0002
  0.0001  0.0001 -0.0002
 -0.0004 -0.0016  0.0013
  0.0005 -0.0023 -0.0010
  0.0001  0.0001 -0.0003
  0.0658  0.1495 -0.2058
 -0.2415 -0.5492  0.7557
 -0.0007  0.0018  0.0017
  0.0001  0.0003 -0.0002
 -0.0006 -0.0007  0.0019
  0.0001  0.0001 -0.0002
  0.0000 -0.0002 -0.0000
 -0.0000  0.0001  0.0000
  0.0000  0.0000 -0.0000
 -0.0000 -0.0000  0.0000
  0.0000  0.0000 -0.0000
 -0.0000 -0.0001  0.0001
  0.0000  0.0001 -0.0001
 -0.0000  0.0000  0.0001
 -0.0000 -0.0000  0.0000
 -0.0000 -0.0000  0.0000
  0.0000  0.0001 -0.0001
 -0.0001 -0.0001  0.0002
 -0.0000 -0.0000  0.0001
  0.0000  0.0000 -0.0000
  0.0000  0.0000 -0.0000
 -0.0000  0.0000  0.0000
  0.0000  0.0000 -0.0000
 -0.0000 -0.0000  0.0001
 -0.0000  0.0000 -0.0000
  0.0000 -0.0000  0.0000
  0.0000  0.0000 -0.0000
  0.0000 -0.0003 -0.0000
 -0.0001  0.0002  0.0004
  0.0000 -0.0004 -0.0001
 -0.0001  0.0001  0.0002
  0.0000  0.0000 -0.0000
 -0.0000  0.0000  0.0000
 generating redundant internal coords
         300        3600          49
 Adding extra bonds for z output only
           6           6           6           7           6           8
           6           6           6           6           6           6
           6           6           6           8           7           1
           6           8           6           6           6           6
           6           6           6           6           6           8
           6           6           6           6           1           1
           1           1           1           1           1           1
           1           1           1           1           1           1
           1
 search for int coords
   1 str   2   1   1.532
   2 str   3   2   1.532
   3 str   4   2   1.498
   4 str   5   4   1.401
   5 str   6   5   1.218
   6 str   7   5   1.486
   7 str   8   7   1.381
   8 str   9   8   1.397
   9 str  10   9   1.394
  10 str  11  10   1.470
  11 str  12  11   1.393
  12 str  13  12   1.396
  13 str  14  13   1.381
  14 str  15  14   1.483
  15 str  16  15   1.215
  16 str  17  15   1.393
  17 str  18  16   2.464
  18 str  18  17   1.013
  19 str  19  17   1.393
  20 str  20  18   2.464
  21 str  20  19   1.215
  22 str  21  19   1.483
  23 str  22  21   1.381
  24 str  23  22   1.396
  25 str  24  23   1.393
  26 str  25  24   1.470
  27 str  26  25   1.394
  28 str  27  26   1.397
  29 str  28  27   1.382
  30 str  29   4   1.408
  31 str  29  28   1.485
  32 str  30  29   1.218
  33 str  31   7   1.412
  34 str  31  28   1.412
  35 str  32  10   1.428
  36 str  32  25   1.428
  37 str  32  31   1.427
  38 str  33  11   1.430
  39 str  33  24   1.430
  40 str  34  14   1.417
  41 str  34  21   1.417
  42 str  34  33   1.429
  43 str  35   1   1.093
  44 str  36   1   1.089
  45 str  37   1   1.093
  46 str  38   2   1.088
  47 str  39   3   1.089
  48 str  40   3   1.093
  49 str  41   3   1.093
  50 str  42   8   1.083
  51 str  43   9   1.081
  52 str  44  12   1.081
  53 str  45  13   1.083
  54 str  46  22   1.083
  55 str  47  23   1.081
  56 str  48  26   1.081
  57 str  49  27   1.083
 nber stretches=          57
  58 ben   1   2   3
  59 prop tor   1   2   3  39
  60 prop tor   1   2   3  40
  61 prop tor   1   2   3  41
  62 ben   1   2   4
  63 prop tor   1   2   4   5
  64 prop tor   1   2   4  29
  65 ben   1   2  38
  66 ben   2   1  35
  67 ben   2   1  36
  68 ben   2   1  37
  69 ben   2   3  39
  70 ben   2   3  40
  71 ben   2   3  41
  72 ben   2   4   5
  73 prop tor   2   4   5   6
  74 prop tor   2   4   5   7
  75 ben   2   4  29
  76 prop tor   2   4  29  28
  77 prop tor   2   4  29  30
  78 ben   3   2   4
  79 prop tor   3   2   4   5
  80 prop tor   3   2   4  29
  81 ben   3   2  38
  82 prop tor   4   2   3  39
  83 prop tor   4   2   3  40
  84 prop tor   4   2   3  41
  85 ben   4   2  38
  86 ben   4   5   6
  87 ben   4   5   7
  88 prop tor   4   5   7   8
  89 prop tor   4   5   7  31
  90 ben   4  29  28
  91 ben   4  29  30
  92 ben   5   4  29
  93 prop tor   5   4  29  28
  94 prop tor   5   4  29  30
  95 ben   5   7   8
  96 prop tor   5   7   8   9
  97 prop tor   5   7   8  42
  98 ben   5   7  31
  99 prop tor   5   7  31  28
 100 prop tor   5   7  31  32
 101 ben   6   5   7
 102 prop tor   6   5   7   8
 103 prop tor   6   5   7  31
 104 ben   7   8   9
 105 prop tor   7   8   9  10
 106 prop tor   7   8   9  43
 107 ben   7   8  42
 108 ben   7  31  28
 109 ben   7  31  32
 110 prop tor   7  31  32  10
 111 prop tor   7  31  32  25
 112 ben   8   7  31
 113 prop tor   8   7  31  28
 114 prop tor   8   7  31  32
 115 ben   8   9  10
 116 prop tor   8   9  10  11
 117 prop tor   8   9  10  32
 118 ben   8   9  43
 119 ben   9   8  42
 120 ben   9  10  11
 121 prop tor   9  10  11  12
 122 prop tor   9  10  11  33
 123 ben   9  10  32
 124 prop tor   9  10  32  25
 125 prop tor   9  10  32  31
 126 ben  10   9  43
 127 ben  10  11  12
 128 prop tor  10  11  12  13
 129 prop tor  10  11  12  44
 130 ben  10  11  33
 131 prop tor  10  11  33  24
 132 prop tor  10  11  33  34
 133 ben  10  32  25
 134 ben  10  32  31
 135 ben  11  10  32
 136 prop tor  11  10  32  25
 137 prop tor  11  10  32  31
 138 ben  11  12  13
 139 prop tor  11  12  13  14
 140 prop tor  11  12  13  45
 141 ben  11  12  44
 142 ben  11  33  24
 143 ben  11  33  34
 144 prop tor  11  33  34  14
 145 prop tor  11  33  34  21
 146 ben  12  11  33
 147 prop tor  12  11  33  24
 148 prop tor  12  11  33  34
 149 ben  12  13  14
 150 prop tor  12  13  14  15
 151 prop tor  12  13  14  34
 152 ben  12  13  45
 153 ben  13  12  44
 154 ben  13  14  15
 155 prop tor  13  14  15  16
 156 prop tor  13  14  15  17
 157 ben  13  14  34
 158 prop tor  13  14  34  21
 159 prop tor  13  14  34  33
 160 ben  14  13  45
 161 ben  14  15  16
 162 prop tor  14  15  16  18
 163 ben  14  15  17
 164 prop tor  14  15  17  18
 165 prop tor  14  15  17  19
 166 ben  14  34  21
 167 ben  14  34  33
 168 ben  15  14  34
 169 prop tor  15  14  34  21
 170 prop tor  15  14  34  33
 171 ben  15  16  18
 172 prop tor  15  16  18  17
 173 prop tor  15  16  18  20
 174 ben  15  17  18
 175 prop tor  15  17  18  16
 176 prop tor  15  17  18  20
 177 ben  15  17  19
 178 prop tor  15  17  19  20
 179 prop tor  15  17  19  21
 180 ben  16  15  17
 181 prop tor  16  15  17  18
 182 prop tor  16  15  17  19
 183 ben  16  18  17
 184 ben  16  18  20
 185 prop tor  16  18  20  19
 186 prop tor  17  15  16  18
 187 ben  17  18  20
 188 prop tor  17  18  20  19
 189 ben  17  19  20
 190 prop tor  17  19  20  18
 191 ben  17  19  21
 192 prop tor  17  19  21  22
 193 prop tor  17  19  21  34
 194 ben  18  17  19
 195 prop tor  18  17  19  20
 196 prop tor  18  17  19  21
 197 ben  18  20  19
 198 prop tor  19  17  18  16
 199 prop tor  19  17  18  20
 200 ben  19  21  22
 201 prop tor  19  21  22  23
 202 prop tor  19  21  22  46
 203 ben  19  21  34
 204 prop tor  19  21  34  14
 205 prop tor  19  21  34  33
 206 ben  20  19  21
 207 prop tor  20  19  21  22
 208 prop tor  20  19  21  34
 209 prop tor  21  19  20  18
 210 ben  21  22  23
 211 prop tor  21  22  23  24
 212 prop tor  21  22  23  47
 213 ben  21  22  46
 214 ben  21  34  33
 215 ben  22  21  34
 216 prop tor  22  21  34  14
 217 prop tor  22  21  34  33
 218 ben  22  23  24
 219 prop tor  22  23  24  25
 220 prop tor  22  23  24  33
 221 ben  22  23  47
 222 ben  23  22  46
 223 ben  23  24  25
 224 prop tor  23  24  25  26
 225 prop tor  23  24  25  32
 226 ben  23  24  33
 227 prop tor  23  24  33  11
 228 prop tor  23  24  33  34
 229 ben  24  23  47
 230 ben  24  25  26
 231 prop tor  24  25  26  27
 232 prop tor  24  25  26  48
 233 ben  24  25  32
 234 prop tor  24  25  32  10
 235 prop tor  24  25  32  31
 236 ben  24  33  34
 237 prop tor  24  33  34  14
 238 prop tor  24  33  34  21
 239 ben  25  24  33
 240 prop tor  25  24  33  11
 241 prop tor  25  24  33  34
 242 ben  25  26  27
 243 prop tor  25  26  27  28
 244 prop tor  25  26  27  49
 245 ben  25  26  48
 246 ben  25  32  31
 247 ben  26  25  32
 248 prop tor  26  25  32  10
 249 prop tor  26  25  32  31
 250 ben  26  27  28
 251 prop tor  26  27  28  29
 252 prop tor  26  27  28  31
 253 ben  26  27  49
 254 ben  27  26  48
 255 ben  27  28  29
 256 prop tor  27  28  29   4
 257 prop tor  27  28  29  30
 258 ben  27  28  31
 259 prop tor  27  28  31   7
 260 prop tor  27  28  31  32
 261 ben  28  27  49
 262 ben  28  29  30
 263 ben  28  31  32
 264 prop tor  28  31  32  10
 265 prop tor  28  31  32  25
 266 prop tor  29   4   5   6
 267 prop tor  29   4   5   7
 268 ben  29  28  31
 269 prop tor  29  28  31   7
 270 prop tor  29  28  31  32
 271 prop tor  31   7   8   9
 272 prop tor  31   7   8  42
 273 prop tor  31  28  29   4
 274 prop tor  31  28  29  30
 275 prop tor  32  10  11  12
 276 prop tor  32  10  11  33
 277 prop tor  32  25  26  27
 278 prop tor  32  25  26  48
 279 prop tor  33  11  12  13
 280 prop tor  33  11  12  44
 281 prop tor  33  24  25  26
 282 prop tor  33  24  25  32
 283 prop tor  34  14  15  16
 284 prop tor  34  14  15  17
 285 prop tor  34  21  22  23
 286 prop tor  34  21  22  46
 287 prop tor  35   1   2   3
 288 prop tor  35   1   2   4
 289 prop tor  35   1   2  38
 290 ben  35   1  36
 291 ben  35   1  37
 292 prop tor  36   1   2   3
 293 prop tor  36   1   2   4
 294 prop tor  36   1   2  38
 295 ben  36   1  37
 296 prop tor  37   1   2   3
 297 prop tor  37   1   2   4
 298 prop tor  37   1   2  38
 299 prop tor  38   2   3  39
 300 prop tor  38   2   3  40
 301 prop tor  38   2   3  41
 302 prop tor  38   2   4   5
 303 prop tor  38   2   4  29
 304 ben  39   3  40
 305 ben  39   3  41
 306 ben  40   3  41
 307 prop tor  42   8   9  10
 308 prop tor  42   8   9  43
 309 prop tor  43   9  10  11
 310 prop tor  43   9  10  32
 311 prop tor  44  12  13  14
 312 prop tor  44  12  13  45
 313 prop tor  45  13  14  15
 314 prop tor  45  13  14  34
 315 prop tor  46  22  23  24
 316 prop tor  46  22  23  47
 317 prop tor  47  23  24  25
 318 prop tor  47  23  24  33
 319 prop tor  48  26  27  28
 320 prop tor  48  26  27  49
 321 prop tor  49  27  28  29
 322 prop tor  49  27  28  31
 nber bend=             101
 nber lin bend=           0
 nber prop tor=         164
 nber impr tor=           0
 nber tot redund int=         322
 Reading file: 
 ./PDI_0_C0S1.log                                                               
                                          
  Entering Gaussian System, Link 0=g16                                          
  
 Gaussian format, type: g94, g98, g03= F F F
  #P Geom=AllCheck Guess=TCheck SCRF=Check GenChk RB3LYP TD(FC,Read)/6-3    
 energy type= TD      
 Original G94 input coords:
  6  1.005637  0.241714  0.098414
  6  2.509993 -0.045104  0.143676
  6  3.096443 -0.011307  1.558695
  7  2.852608 -1.318678 -0.567075
  6  2.359097 -2.531747 -0.072261
  8  1.655199 -2.575663  0.926048
  6  2.723172 -3.763117 -0.805894
  6  2.248023 -4.995832 -0.342025
  6  2.570129 -6.163187 -1.003547
  6  3.387427 -6.161092 -2.168043
  6  3.732192 -7.372517 -2.868648
  6  3.275526 -8.648492 -2.438624
  6  3.611572 -9.802274 -3.116285
  6  4.419325 -9.745169 -4.256673
  6  4.760876-10.998757 -4.959216
  8  4.379729-12.100903 -4.606687
  7  5.568548-10.844136 -6.082752
  1  5.811285-11.695850 -6.575454
  6  6.084336 -9.664485 -6.613815
  8  6.783116 -9.678570 -7.611699
  6  5.718520 -8.435825 -5.880851
  6  6.190908 -7.202227 -6.340651
  6  5.866060 -6.037090 -5.677068
  6  5.048283 -6.045515 -4.514082
  6  4.702760 -4.834569 -3.813151
  6  5.155692 -3.554697 -4.238037
  6  4.817461 -2.403063 -3.557235
  6  4.009126 -2.464791 -2.415309
  6  3.666587 -1.212222 -1.710346
  8  4.075031 -0.131495 -2.106503
  6  3.536548 -3.712122 -1.957026
  6  3.878303 -4.912046 -2.651657
  6  4.557871 -7.297184 -4.031613
  6  4.900306 -8.498697 -4.726566
  1  0.823322  1.244319  0.494790
  1  0.440470 -0.475341  0.692395
  1  0.638363  0.218918 -0.930858
  1  3.016863  0.711592 -0.450991
  1  2.616702 -0.739552  2.211336
  1  2.948596  0.986534  1.980608
  1  4.171572 -0.207296  1.536510
  1  1.625942 -5.004680  0.543616
  1  2.185404 -7.096036 -0.616700
  1  2.649730 -8.729769 -1.561404
  1  3.261375-10.771670 -2.784805
  1  6.814069 -7.190258 -7.225967
  1  6.248642 -5.101950 -6.060358
  1  5.781231 -3.468070 -5.115022
  1  5.166038 -1.432942 -3.886920
 nber atoms=          49
  Total Energy, E(TD-HF/TD-DFT) =  -1449.32260599                               
  
          32          49 "  -1449.32260599"
After scan for Atom:   Atom  AN      X      Y      Z        X      Y      Z        X      Y      Z   
After scan for Atom:   Atom  AN      X      Y      Z        X      Y      Z        X      Y      Z   
After scan for Atom:   Atom  AN      X      Y      Z        X      Y      Z        X      Y      Z   
After scan for Atom:   Atom  AN      X      Y      Z        X      Y      Z        X      Y      Z   
After scan for Atom:   Atom  AN      X      Y      Z        X      Y      Z        X      Y      Z   
After scan for Atom:   Atom  AN      X      Y      Z        X      Y      Z        X      Y      Z   
After scan for Atom:   Atom  AN      X      Y      Z        X      Y      Z        X      Y      Z   
After scan for Atom:   Atom  AN      X      Y      Z        X      Y      Z        X      Y      Z   
After scan for Atom:   Atom  AN      X      Y      Z        X      Y      Z        X      Y      Z   
After scan for Atom:   Atom  AN      X      Y      Z        X      Y      Z        X      Y      Z   
After scan for Atom:   Atom  AN      X      Y      Z        X      Y      Z        X      Y      Z   
After scan for Atom:   Atom  AN      X      Y      Z        X      Y      Z        X      Y      Z   
After scan for Atom:   Atom  AN      X      Y      Z        X      Y      Z        X      Y      Z   
After scan for Atom:   Atom  AN      X      Y      Z        X      Y      Z        X      Y      Z   
After scan for Atom:   Atom  AN      X      Y      Z        X      Y      Z        X      Y      Z   
After scan for Atom:   Atom  AN      X      Y      Z        X      Y      Z        X      Y      Z   
After scan for Atom:   Atom  AN      X      Y      Z        X      Y      Z        X      Y      Z   
After scan for Atom:   Atom  AN      X      Y      Z        X      Y      Z        X      Y      Z   
After scan for Atom:   Atom  AN      X      Y      Z        X      Y      Z        X      Y      Z   
After scan for Atom:   Atom  AN      X      Y      Z        X      Y      Z        X      Y      Z   
After scan for Atom:   Atom  AN      X      Y      Z        X      Y      Z        X      Y      Z   
After scan for Atom:   Atom  AN      X      Y      Z        X      Y      Z        X      Y      Z   
After scan for Atom:   Atom  AN      X      Y      Z        X      Y      Z        X      Y      Z   
After scan for Atom:   Atom  AN      X      Y      Z        X      Y      Z        X      Y      Z   
After scan for Atom:   Atom  AN      X      Y      Z        X      Y      Z        X      Y      Z   
After scan for Atom:   Atom  AN      X      Y      Z        X      Y      Z        X      Y      Z   
After scan for Atom:   Atom  AN      X      Y      Z        X      Y      Z        X      Y      Z   
After scan for Atom:   Atom  AN      X      Y      Z        X      Y      Z        X      Y      Z   
After scan for Atom:   Atom  AN      X      Y      Z        X      Y      Z        X      Y      Z   
After scan for Atom:   Atom  AN      X      Y      Z        X      Y      Z        X      Y      Z   
After scan for Atom:   Atom  AN      X      Y      Z        X      Y      Z        X      Y      Z   
After scan for Atom:   Atom  AN      X      Y      Z        X      Y      Z        X      Y      Z   
After scan for Atom:   Atom  AN      X      Y      Z        X      Y      Z        X      Y      Z   
After scan for Atom:   Atom  AN      X      Y      Z        X      Y      Z        X      Y      Z   
After scan for Atom:   Atom  AN      X      Y      Z        X      Y      Z        X      Y      Z   
After scan for Atom:   Atom  AN      X      Y      Z        X      Y      Z        X      Y      Z   
After scan for Atom:   Atom  AN      X      Y      Z        X      Y      Z        X      Y      Z   
After scan for Atom:   Atom  AN      X      Y      Z        X      Y      Z        X      Y      Z   
After scan for Atom:   Atom  AN      X      Y      Z        X      Y      Z        X      Y      Z   
After scan for Atom:   Atom  AN      X      Y      Z        X      Y      Z        X      Y      Z   
After scan for Atom:   Atom  AN      X      Y      Z        X      Y      Z        X      Y      Z   
After scan for Atom:   Atom  AN      X      Y      Z        X      Y      Z        X      Y      Z   
After scan for Atom:   Atom  AN      X      Y      Z        X      Y      Z        X      Y      Z   
After scan for Atom:   Atom  AN      X      Y      Z        X      Y      Z        X      Y      Z   
After scan for Atom:   Atom  AN      X      Y      Z        X      Y      Z        X      Y      Z   
After scan for Atom:   Atom  AN      X      Y      Z        X      Y      Z        X      Y      Z   
After scan for Atom:   Atom  AN      X      Y      Z        X      Y      Z        X      Y      Z   
 g94    frequencies=
     0.0    0.0    0.0    0.0    0.0    0.0   25.3   28.9   53.7   57.1
    79.4   91.1   97.9  110.4  147.4  167.7  185.7  190.5  200.8  208.0
   212.8  234.8  235.8  257.3  278.2  291.0  302.6  325.4  348.9  376.9
   389.2  417.9  423.3  433.1  436.3  439.1  447.0  474.9  483.1  487.9
   494.2  506.9  514.2  545.4  560.4  573.1  576.4  605.7  612.4  626.2
   652.8  655.8  675.5  689.5  690.1  712.4  728.7  736.8  754.3  761.0
   764.2  770.2  778.0  802.2  813.9  815.1  821.4  831.3  833.6  845.1
   862.6  913.2  926.6  945.3  956.6  974.5  974.6  976.3  987.6  988.2
  1053.1 1083.3 1093.6 1121.4 1152.1 1155.4 1159.6 1175.9 1185.9 1196.0
  1200.0 1205.8 1224.1 1232.6 1243.1 1263.8 1296.3 1311.4 1318.4 1349.2
  1355.8 1363.8 1382.1 1382.2 1392.3 1400.2 1401.0 1413.1 1416.3 1430.2
  1439.6 1441.3 1460.5 1467.1 1484.9 1489.6 1497.6 1505.2 1512.3 1522.5
  1547.0 1556.9 1568.1 1578.7 1597.7 1598.3 1622.3 1685.6 1725.0 1742.8
  1744.8 3034.3 3038.4 3092.2 3095.4 3112.5 3132.5 3142.9 3197.5 3197.8
  3203.5 3203.7 3212.4 3212.5 3224.6 3224.9 3580.1
 g94    symmetries=
                                                 A      A      A      A
       A      A      A      A      A      A      A      A      A      A
       A      A      A      A      A      A      A      A      A      A
       A      A      A      A      A      A      A      A      A      A
       A      A      A      A      A      A      A      A      A      A
       A      A      A      A      A      A      A      A      A      A
       A      A      A      A      A      A      A      A      A      A
       A      A      A      A      A      A      A      A      A      A
       A      A      A      A      A      A      A      A      A      A
       A      A      A      A      A      A      A      A      A      A
       A      A      A      A      A      A      A      A      A      A
       A      A      A      A      A      A      A      A      A      A
       A      A      A      A      A      A      A      A      A      A
       A      A      A      A      A      A      A      A      A      A
       A      A      A      A      A      A      A
 atomic masses:
 12.0000 12.0000 12.0000 14.0031 12.0000 15.9949 12.0000 12.0000 12.0000 12.0000
 12.0000 12.0000 12.0000 12.0000 12.0000 15.9949 14.0031  1.0078 12.0000 15.9949
 12.0000 12.0000 12.0000 12.0000 12.0000 12.0000 12.0000 12.0000 12.0000 15.9949
 12.0000 12.0000 12.0000 12.0000  1.0078  1.0078  1.0078  1.0078  1.0078  1.0078
  1.0078  1.0078  1.0078  1.0078  1.0078  1.0078  1.0078  1.0078  1.0078
 looking for force constants in 
 ./PDI_0_C0S1.fchk                                                              
  
 Cartesian Force Constants                  R   N=       10878                  
  
 n3=         147       10878
 g94-fc frequencies=
    -2.3   -0.0    0.0    0.0    1.0    2.5   25.4   28.9   53.7   57.1
    79.4   91.1   97.9  110.4  147.4  167.7  185.7  190.5  200.8  208.0
   212.8  234.8  235.8  257.3  278.2  291.0  302.6  325.4  348.9  376.9
   389.2  417.9  423.3  433.1  436.3  439.1  447.0  474.9  483.1  487.9
   494.2  507.0  514.2  545.4  560.4  573.1  576.4  605.8  612.4  626.2
   652.8  655.8  675.6  689.5  690.1  712.4  728.8  736.8  754.4  761.1
   764.2  770.2  778.0  802.2  813.9  815.1  821.4  831.3  833.6  845.1
   862.6  913.2  926.6  945.3  956.6  974.5  974.7  976.3  987.6  988.3
  1053.1 1083.4 1093.6 1121.5 1152.2 1155.5 1159.7 1175.9 1186.0 1196.0
  1200.0 1205.8 1224.2 1232.6 1243.1 1263.8 1296.3 1311.4 1318.4 1349.2
  1355.9 1363.9 1382.1 1382.3 1392.4 1400.3 1401.1 1413.1 1416.4 1430.2
  1439.6 1441.3 1460.5 1467.1 1484.9 1489.7 1497.6 1505.2 1512.4 1522.5
  1547.1 1556.9 1568.1 1578.8 1597.8 1598.4 1622.3 1685.6 1725.1 1742.9
  1744.9 3034.3 3038.4 3092.3 3095.5 3112.5 3132.6 3142.9 3197.5 3197.9
  3203.6 3203.8 3212.5 3212.6 3224.6 3224.9 3580.1
 at 99999: n3=         147
 symm operator            1 :  F  nop=           0
 symm operator            2 :  F  nop=           0
 symm operator            3 :  F  nop=           0
 symm operator            4 :  F  nop=           0
 symm operator            5 :  F  nop=           0
 symm operator            6 :  F  nop=           0
 symm operator            7 :  F  nop=           0
 The point group of the molecule is  C1
 Symmetry rotation matrix:
   1.00000   0.00000   0.00000
   0.00000   1.00000   0.00000
   0.00000   0.00000   1.00000

 Projecting out zero-frequency components
 generating redundant internal coords
         300        3600          49
 search for int coords
   1 str   2   1   1.532
   2 str   3   2   1.532
   3 str   4   2   1.498
   4 str   5   4   1.400
   5 str   6   5   1.222
   6 str   7   5   1.479
   7 str   8   7   1.400
   8 str   9   8   1.380
   9 str  10   9   1.423
  10 str  11  10   1.441
  11 str  12  11   1.422
  12 str  13  12   1.380
  13 str  14  13   1.399
  14 str  15  14   1.477
  15 str  16  15   1.218
  16 str  17  15   1.392
  17 str  18  16   2.468
  18 str  18  17   1.013
  19 str  19  17   1.393
  20 str  20  18   2.467
  21 str  20  19   1.218
  22 str  21  19   1.477
  23 str  22  21   1.399
  24 str  23  22   1.380
  25 str  24  23   1.422
  26 str  25  24   1.441
  27 str  26  25   1.423
  28 str  27  26   1.380
  29 str  28  27   1.400
  30 str  29   4   1.407
  31 str  29  28   1.478
  32 str  30  29   1.221
  33 str  31   7   1.410
  34 str  31  28   1.410
  35 str  32  10   1.427
  36 str  32  25   1.426
  37 str  32  31   1.428
  38 str  33  11   1.428
  39 str  33  24   1.428
  40 str  34  14   1.416
  41 str  34  21   1.416
  42 str  34  33   1.430
  43 str  35   1   1.093
  44 str  36   1   1.089
  45 str  37   1   1.093
  46 str  38   2   1.088
  47 str  39   3   1.089
  48 str  40   3   1.093
  49 str  41   3   1.093
  50 str  42   8   1.082
  51 str  43   9   1.081
  52 str  44  12   1.081
  53 str  45  13   1.083
  54 str  46  22   1.083
  55 str  47  23   1.081
  56 str  48  26   1.081
  57 str  49  27   1.082
 nber stretches=          57
  58 ben   1   2   3
  59 prop tor   1   2   3  39
  60 prop tor   1   2   3  40
  61 prop tor   1   2   3  41
  62 ben   1   2   4
  63 prop tor   1   2   4   5
  64 prop tor   1   2   4  29
  65 ben   1   2  38
  66 ben   2   1  35
  67 ben   2   1  36
  68 ben   2   1  37
  69 ben   2   3  39
  70 ben   2   3  40
  71 ben   2   3  41
  72 ben   2   4   5
  73 prop tor   2   4   5   6
  74 prop tor   2   4   5   7
  75 ben   2   4  29
  76 prop tor   2   4  29  28
  77 prop tor   2   4  29  30
  78 ben   3   2   4
  79 prop tor   3   2   4   5
  80 prop tor   3   2   4  29
  81 ben   3   2  38
  82 prop tor   4   2   3  39
  83 prop tor   4   2   3  40
  84 prop tor   4   2   3  41
  85 ben   4   2  38
  86 ben   4   5   6
  87 ben   4   5   7
  88 prop tor   4   5   7   8
  89 prop tor   4   5   7  31
  90 ben   4  29  28
  91 ben   4  29  30
  92 ben   5   4  29
  93 prop tor   5   4  29  28
  94 prop tor   5   4  29  30
  95 ben   5   7   8
  96 prop tor   5   7   8   9
  97 prop tor   5   7   8  42
  98 ben   5   7  31
  99 prop tor   5   7  31  28
 100 prop tor   5   7  31  32
 101 ben   6   5   7
 102 prop tor   6   5   7   8
 103 prop tor   6   5   7  31
 104 ben   7   8   9
 105 prop tor   7   8   9  10
 106 prop tor   7   8   9  43
 107 ben   7   8  42
 108 ben   7  31  28
 109 ben   7  31  32
 110 prop tor   7  31  32  10
 111 prop tor   7  31  32  25
 112 ben   8   7  31
 113 prop tor   8   7  31  28
 114 prop tor   8   7  31  32
 115 ben   8   9  10
 116 prop tor   8   9  10  11
 117 prop tor   8   9  10  32
 118 ben   8   9  43
 119 ben   9   8  42
 120 ben   9  10  11
 121 prop tor   9  10  11  12
 122 prop tor   9  10  11  33
 123 ben   9  10  32
 124 prop tor   9  10  32  25
 125 prop tor   9  10  32  31
 126 ben  10   9  43
 127 ben  10  11  12
 128 prop tor  10  11  12  13
 129 prop tor  10  11  12  44
 130 ben  10  11  33
 131 prop tor  10  11  33  24
 132 prop tor  10  11  33  34
 133 ben  10  32  25
 134 ben  10  32  31
 135 ben  11  10  32
 136 prop tor  11  10  32  25
 137 prop tor  11  10  32  31
 138 ben  11  12  13
 139 prop tor  11  12  13  14
 140 prop tor  11  12  13  45
 141 ben  11  12  44
 142 ben  11  33  24
 143 ben  11  33  34
 144 prop tor  11  33  34  14
 145 prop tor  11  33  34  21
 146 ben  12  11  33
 147 prop tor  12  11  33  24
 148 prop tor  12  11  33  34
 149 ben  12  13  14
 150 prop tor  12  13  14  15
 151 prop tor  12  13  14  34
 152 ben  12  13  45
 153 ben  13  12  44
 154 ben  13  14  15
 155 prop tor  13  14  15  16
 156 prop tor  13  14  15  17
 157 ben  13  14  34
 158 prop tor  13  14  34  21
 159 prop tor  13  14  34  33
 160 ben  14  13  45
 161 ben  14  15  16
 162 prop tor  14  15  16  18
 163 ben  14  15  17
 164 prop tor  14  15  17  18
 165 prop tor  14  15  17  19
 166 ben  14  34  21
 167 ben  14  34  33
 168 ben  15  14  34
 169 prop tor  15  14  34  21
 170 prop tor  15  14  34  33
 171 ben  15  16  18
 172 prop tor  15  16  18  17
 173 prop tor  15  16  18  20
 174 ben  15  17  18
 175 prop tor  15  17  18  16
 176 prop tor  15  17  18  20
 177 ben  15  17  19
 178 prop tor  15  17  19  20
 179 prop tor  15  17  19  21
 180 ben  16  15  17
 181 prop tor  16  15  17  18
 182 prop tor  16  15  17  19
 183 ben  16  18  17
 184 ben  16  18  20
 185 prop tor  16  18  20  19
 186 prop tor  17  15  16  18
 187 ben  17  18  20
 188 prop tor  17  18  20  19
 189 ben  17  19  20
 190 prop tor  17  19  20  18
 191 ben  17  19  21
 192 prop tor  17  19  21  22
 193 prop tor  17  19  21  34
 194 ben  18  17  19
 195 prop tor  18  17  19  20
 196 prop tor  18  17  19  21
 197 ben  18  20  19
 198 prop tor  19  17  18  16
 199 prop tor  19  17  18  20
 200 ben  19  21  22
 201 prop tor  19  21  22  23
 202 prop tor  19  21  22  46
 203 ben  19  21  34
 204 prop tor  19  21  34  14
 205 prop tor  19  21  34  33
 206 ben  20  19  21
 207 prop tor  20  19  21  22
 208 prop tor  20  19  21  34
 209 prop tor  21  19  20  18
 210 ben  21  22  23
 211 prop tor  21  22  23  24
 212 prop tor  21  22  23  47
 213 ben  21  22  46
 214 ben  21  34  33
 215 ben  22  21  34
 216 prop tor  22  21  34  14
 217 prop tor  22  21  34  33
 218 ben  22  23  24
 219 prop tor  22  23  24  25
 220 prop tor  22  23  24  33
 221 ben  22  23  47
 222 ben  23  22  46
 223 ben  23  24  25
 224 prop tor  23  24  25  26
 225 prop tor  23  24  25  32
 226 ben  23  24  33
 227 prop tor  23  24  33  11
 228 prop tor  23  24  33  34
 229 ben  24  23  47
 230 ben  24  25  26
 231 prop tor  24  25  26  27
 232 prop tor  24  25  26  48
 233 ben  24  25  32
 234 prop tor  24  25  32  10
 235 prop tor  24  25  32  31
 236 ben  24  33  34
 237 prop tor  24  33  34  14
 238 prop tor  24  33  34  21
 239 ben  25  24  33
 240 prop tor  25  24  33  11
 241 prop tor  25  24  33  34
 242 ben  25  26  27
 243 prop tor  25  26  27  28
 244 prop tor  25  26  27  49
 245 ben  25  26  48
 246 ben  25  32  31
 247 ben  26  25  32
 248 prop tor  26  25  32  10
 249 prop tor  26  25  32  31
 250 ben  26  27  28
 251 prop tor  26  27  28  29
 252 prop tor  26  27  28  31
 253 ben  26  27  49
 254 ben  27  26  48
 255 ben  27  28  29
 256 prop tor  27  28  29   4
 257 prop tor  27  28  29  30
 258 ben  27  28  31
 259 prop tor  27  28  31   7
 260 prop tor  27  28  31  32
 261 ben  28  27  49
 262 ben  28  29  30
 263 ben  28  31  32
 264 prop tor  28  31  32  10
 265 prop tor  28  31  32  25
 266 prop tor  29   4   5   6
 267 prop tor  29   4   5   7
 268 ben  29  28  31
 269 prop tor  29  28  31   7
 270 prop tor  29  28  31  32
 271 prop tor  31   7   8   9
 272 prop tor  31   7   8  42
 273 prop tor  31  28  29   4
 274 prop tor  31  28  29  30
 275 prop tor  32  10  11  12
 276 prop tor  32  10  11  33
 277 prop tor  32  25  26  27
 278 prop tor  32  25  26  48
 279 prop tor  33  11  12  13
 280 prop tor  33  11  12  44
 281 prop tor  33  24  25  26
 282 prop tor  33  24  25  32
 283 prop tor  34  14  15  16
 284 prop tor  34  14  15  17
 285 prop tor  34  21  22  23
 286 prop tor  34  21  22  46
 287 prop tor  35   1   2   3
 288 prop tor  35   1   2   4
 289 prop tor  35   1   2  38
 290 ben  35   1  36
 291 ben  35   1  37
 292 prop tor  36   1   2   3
 293 prop tor  36   1   2   4
 294 prop tor  36   1   2  38
 295 ben  36   1  37
 296 prop tor  37   1   2   3
 297 prop tor  37   1   2   4
 298 prop tor  37   1   2  38
 299 prop tor  38   2   3  39
 300 prop tor  38   2   3  40
 301 prop tor  38   2   3  41
 302 prop tor  38   2   4   5
 303 prop tor  38   2   4  29
 304 ben  39   3  40
 305 ben  39   3  41
 306 ben  40   3  41
 307 prop tor  42   8   9  10
 308 prop tor  42   8   9  43
 309 prop tor  43   9  10  11
 310 prop tor  43   9  10  32
 311 prop tor  44  12  13  14
 312 prop tor  44  12  13  45
 313 prop tor  45  13  14  15
 314 prop tor  45  13  14  34
 315 prop tor  46  22  23  24
 316 prop tor  46  22  23  47
 317 prop tor  47  23  24  25
 318 prop tor  47  23  24  33
 319 prop tor  48  26  27  28
 320 prop tor  48  26  27  49
 321 prop tor  49  27  28  29
 322 prop tor  49  27  28  31
 nber bend=             101
 nber lin bend=           0
 nber prop tor=         164
 nber impr tor=           0
 nber tot redund int=         322
 Eigenvalues of G in red int coords
    Gval -0.00000000 -0.00000000 -0.00000000 -0.00000000 -0.00000000 -0.00000000 -0.00000000 -0.00000000
    Gval -0.00000000 -0.00000000 -0.00000000 -0.00000000 -0.00000000 -0.00000000 -0.00000000 -0.00000000
    Gval -0.00000000 -0.00000000 -0.00000000 -0.00000000 -0.00000000 -0.00000000 -0.00000000 -0.00000000
    Gval -0.00000000 -0.00000000 -0.00000000 -0.00000000 -0.00000000 -0.00000000 -0.00000000 -0.00000000
    Gval -0.00000000 -0.00000000 -0.00000000 -0.00000000 -0.00000000 -0.00000000 -0.00000000 -0.00000000
    Gval -0.00000000 -0.00000000 -0.00000000 -0.00000000 -0.00000000 -0.00000000 -0.00000000 -0.00000000
    Gval -0.00000000 -0.00000000 -0.00000000 -0.00000000 -0.00000000 -0.00000000 -0.00000000 -0.00000000
    Gval -0.00000000 -0.00000000 -0.00000000 -0.00000000 -0.00000000 -0.00000000 -0.00000000 -0.00000000
    Gval -0.00000000 -0.00000000 -0.00000000 -0.00000000 -0.00000000 -0.00000000 -0.00000000 -0.00000000
    Gval -0.00000000 -0.00000000 -0.00000000 -0.00000000 -0.00000000 -0.00000000 -0.00000000 -0.00000000
    Gval -0.00000000 -0.00000000 -0.00000000 -0.00000000 -0.00000000 -0.00000000 -0.00000000 -0.00000000
    Gval -0.00000000  0.00000000  0.00000000  0.00000000  0.00000000  0.00000000  0.00000000  0.00000000
    Gval  0.00000000  0.00000000  0.00000000  0.00000000  0.00000000  0.00000000  0.00000000  0.00000000
    Gval  0.00000000  0.00000000  0.00000000  0.00000000  0.00000000  0.00000000  0.00000000  0.00000000
    Gval  0.00000000  0.00000000  0.00000000  0.00000000  0.00000000  0.00000000  0.00000000  0.00000000
    Gval  0.00000000  0.00000000  0.00000000  0.00000000  0.00000000  0.00000000  0.00000000  0.00000000
    Gval  0.00000000  0.00000000  0.00000000  0.00000000  0.00000000  0.00000000  0.00000000  0.00000000
    Gval  0.00000000  0.00000000  0.00000000  0.00000000  0.00000000  0.00000000  0.00000000  0.00000000
    Gval  0.00000000  0.00000000  0.00000000  0.00000000  0.00000000  0.00000000  0.00000000  0.00000000
    Gval  0.00000000  0.00000000  0.00000000  0.00000000  0.00000000  0.00000000  0.00000000  0.00000000
    Gval  0.00000000  0.00000000  0.00000000  0.00000000  0.00000000  0.00000000  0.00000000  0.00000000
    Gval  0.00000000  0.00000000  0.00000000  0.00000000  0.00000000  0.00000000  0.00000000  0.00000000
    Gval  0.00000000  0.00000000  0.00000000  0.00000000  0.00000000  0.00000136  0.00000297  0.00000342
    Gval  0.00000534  0.00000881  0.00001050  0.00001119  0.00001437  0.00001511  0.00001577  0.00001779
    Gval  0.00001834  0.00002137  0.00002301  0.00002419  0.00002609  0.00002890  0.00003047  0.00003593
    Gval  0.00003994  0.00004473  0.00005041  0.00005230  0.00005418  0.00005472  0.00005747  0.00005905
    Gval  0.00006392  0.00006925  0.00007267  0.00007525  0.00008134  0.00008258  0.00008561  0.00008740
    Gval  0.00008916  0.00009271  0.00009792  0.00009906  0.00011922  0.00012616  0.00012829  0.00013670
    Gval  0.00013962  0.00013998  0.00014109  0.00016038  0.00016314  0.00016768  0.00018180  0.00018644
    Gval  0.00021080  0.00022479  0.00022623  0.00023324  0.00024875  0.00028024  0.00028936  0.00029403
    Gval  0.00030950  0.00034561  0.00037150  0.00038098  0.00039014  0.00039429  0.00039561  0.00039695
    Gval  0.00042733  0.00043487  0.00043496  0.00043540  0.00044182  0.00044459  0.00046275  0.00046605
    Gval  0.00046958  0.00048052  0.00049481  0.00052646  0.00053445  0.00053716  0.00055410  0.00055446
    Gval  0.00055601  0.00055700  0.00059850  0.00059924  0.00059957  0.00059986  0.00060219  0.00064076
    Gval  0.00064273  0.00064427  0.00064500  0.00064685  0.00067407  0.00069716  0.00069774  0.00080325
    Gval  0.00084700  0.00089724  0.00105737  0.00109321  0.00109415  0.00109482  0.00109535  0.00114291
    Gval  0.00116535  0.00116552  0.00116583  0.00116607  0.00116870  0.00117124  0.00117193  0.00128523
    Gval  0.00129540  0.00132511  0.00134387  0.00153608  0.00155061  0.00175982  0.00178513  0.00192395
    Gval  0.00227953  0.00234964  0.00252666  0.00254215  0.00258811  0.00278800  0.00292176  0.00292811
    Gval  0.00302350  0.00304207  0.00308123  0.00309621  0.00367642  0.00367834  0.00372295  0.00372477
    Gval  0.00394537  0.00546858
  1.360837761096878E-006  1.360837761096878E-006
  2.965107552110773E-006  1.360837761096878E-006
  3.417844363131507E-006  1.360837761096878E-006
  5.342765260199398E-006  1.360837761096878E-006
  8.813260434244647E-006  1.360837761096878E-006
  1.049553325446039E-005  1.360837761096878E-006
  1.119378863551788E-005  1.360837761096878E-006
  1.436656937498137E-005  1.360837761096878E-006
  1.510713543972652E-005  1.360837761096878E-006
  1.577020943634391E-005  1.360837761096878E-006
  1.779272303595767E-005  1.360837761096878E-006
  1.834312490523933E-005  1.360837761096878E-006
  2.136658219161780E-005  1.360837761096878E-006
  2.301418934500676E-005  1.360837761096878E-006
  2.418835264834192E-005  1.360837761096878E-006
  2.608538412411114E-005  1.360837761096878E-006
  2.890418169719657E-005  1.360837761096878E-006
  3.047313603117042E-005  1.360837761096878E-006
  3.592930505373362E-005  1.360837761096878E-006
  3.994085940556691E-005  1.360837761096878E-006
  4.473459482697854E-005  1.360837761096878E-006
  5.040713415922840E-005  1.360837761096878E-006
  5.230036942296558E-005  1.360837761096878E-006
  5.418462698990945E-005  1.360837761096878E-006
  5.472308015171195E-005  1.360837761096878E-006
  5.746718208316250E-005  1.360837761096878E-006
  5.905372110792923E-005  1.360837761096878E-006
  6.391648355028932E-005  1.360837761096878E-006
  6.924610716070739E-005  1.360837761096878E-006
  7.267177267476817E-005  1.360837761096878E-006
  7.525464211547086E-005  1.360837761096878E-006
  8.134115691006305E-005  1.360837761096878E-006
  8.257628418525805E-005  1.360837761096878E-006
  8.561030707755952E-005  1.360837761096878E-006
  8.739542207185575E-005  1.360837761096878E-006
  8.916360060920275E-005  1.360837761096878E-006
  9.271071356637152E-005  1.360837761096878E-006
  9.791686051862397E-005  1.360837761096878E-006
  9.905824039346760E-005  1.360837761096878E-006
  1.192184446758464E-004  1.360837761096878E-006
  1.261581414838844E-004  1.360837761096878E-006
  1.282895756255887E-004  1.360837761096878E-006
  1.366986433167655E-004  1.360837761096878E-006
  1.396215593400373E-004  1.360837761096878E-006
  1.399846911702984E-004  1.360837761096878E-006
  1.410914879532522E-004  1.360837761096878E-006
  1.603804078776193E-004  1.360837761096878E-006
  1.631421006736905E-004  1.360837761096878E-006
  1.676821338068554E-004  1.360837761096878E-006
  1.817975133967409E-004  1.360837761096878E-006
  1.864376149530126E-004  1.360837761096878E-006
  2.107985019187272E-004  1.360837761096878E-006
  2.247872617372784E-004  1.360837761096878E-006
  2.262330679793259E-004  1.360837761096878E-006
  2.332382328809731E-004  1.360837761096878E-006
  2.487532980997705E-004  1.360837761096878E-006
  2.802405059889308E-004  1.360837761096878E-006
  2.893561685029911E-004  1.360837761096878E-006
  2.940295605329997E-004  1.360837761096878E-006
  3.095016235439550E-004  1.360837761096878E-006
  3.456131385898149E-004  1.360837761096878E-006
  3.714970937019703E-004  1.360837761096878E-006
  3.809847916612834E-004  1.360837761096878E-006
  3.901436915954105E-004  1.360837761096878E-006
  3.942892896675416E-004  1.360837761096878E-006
  3.956133443808803E-004  1.360837761096878E-006
  3.969534861383856E-004  1.360837761096878E-006
  4.273347740731623E-004  1.360837761096878E-006
  4.348704251045906E-004  1.360837761096878E-006
  4.349583347477436E-004  1.360837761096878E-006
  4.353961593711052E-004  1.360837761096878E-006
  4.418162350990211E-004  1.360837761096878E-006
  4.445860210917518E-004  1.360837761096878E-006
  4.627451959281050E-004  1.360837761096878E-006
  4.660533963495570E-004  1.360837761096878E-006
  4.695803847195979E-004  1.360837761096878E-006
  4.805228648010506E-004  1.360837761096878E-006
  4.948080076725851E-004  1.360837761096878E-006
  5.264597382202985E-004  1.360837761096878E-006
  5.344540615068791E-004  1.360837761096878E-006
  5.371631070375533E-004  1.360837761096878E-006
  5.540969083927202E-004  1.360837761096878E-006
  5.544579896206643E-004  1.360837761096878E-006
  5.560144820344111E-004  1.360837761096878E-006
  5.570001927744542E-004  1.360837761096878E-006
  5.984999356537392E-004  1.360837761096878E-006
  5.992448814283578E-004  1.360837761096878E-006
  5.995723754532971E-004  1.360837761096878E-006
  5.998561497153092E-004  1.360837761096878E-006
  6.021871059104293E-004  1.360837761096878E-006
  6.407604713518247E-004  1.360837761096878E-006
  6.427339634507560E-004  1.360837761096878E-006
  6.442715296116213E-004  1.360837761096878E-006
  6.450038309459729E-004  1.360837761096878E-006
  6.468477575737139E-004  1.360837761096878E-006
  6.740707516851923E-004  1.360837761096878E-006
  6.971562817766173E-004  1.360837761096878E-006
  6.977379675509727E-004  1.360837761096878E-006
  8.032456546775064E-004  1.360837761096878E-006
  8.469994992352475E-004  1.360837761096878E-006
  8.972391878960584E-004  1.360837761096878E-006
  1.057365258888111E-003  1.360837761096878E-006
  1.093205753059245E-003  1.360837761096878E-006
  1.094149285359207E-003  1.360837761096878E-006
  1.094824267011084E-003  1.360837761096878E-006
  1.095353367669959E-003  1.360837761096878E-006
  1.142907103068366E-003  1.360837761096878E-006
  1.165354655735819E-003  1.360837761096878E-006
  1.165517319580769E-003  1.360837761096878E-006
  1.165827696462410E-003  1.360837761096878E-006
  1.166072474856364E-003  1.360837761096878E-006
  1.168700716063905E-003  1.360837761096878E-006
  1.171240156190102E-003  1.360837761096878E-006
  1.171925682535892E-003  1.360837761096878E-006
  1.285226542953369E-003  1.360837761096878E-006
  1.295398954807226E-003  1.360837761096878E-006
  1.325110361706488E-003  1.360837761096878E-006
  1.343869742798116E-003  1.360837761096878E-006
  1.536083599385766E-003  1.360837761096878E-006
  1.550606881434603E-003  1.360837761096878E-006
  1.759821153485822E-003  1.360837761096878E-006
  1.785129976090618E-003  1.360837761096878E-006
  1.923947537236182E-003  1.360837761096878E-006
  2.279533583771857E-003  1.360837761096878E-006
  2.349642067361590E-003  1.360837761096878E-006
  2.526658695044705E-003  1.360837761096878E-006
  2.542153545873120E-003  1.360837761096878E-006
  2.588110281314230E-003  1.360837761096878E-006
  2.788002370345591E-003  1.360837761096878E-006
  2.921757453604529E-003  1.360837761096878E-006
  2.928107781639432E-003  1.360837761096878E-006
  3.023500380203785E-003  1.360837761096878E-006
  3.042068387954023E-003  1.360837761096878E-006
  3.081233230293394E-003  1.360837761096878E-006
  3.096211793917314E-003  1.360837761096878E-006
  3.676423269153686E-003  1.360837761096878E-006
  3.678338128905715E-003  1.360837761096878E-006
  3.722954934216859E-003  1.360837761096878E-006
  3.724771034847799E-003  1.360837761096878E-006
  3.945371811286276E-003  1.360837761096878E-006
  5.468581486057694E-003  1.360837761096878E-006
 cut=1d-8, nber non-redundant internal coords=         141
 Check on Eigenvals of non-red overlap matrix:
  0.00000136  0.00000297  0.00000342  0.00000534  0.00000881  0.00001050  0.00001119  0.00001437
  0.00001511  0.00001577  0.00001779  0.00001834  0.00002137  0.00002301  0.00002419  0.00002609
  0.00002890  0.00003047  0.00003593  0.00003994  0.00004473  0.00005041  0.00005230  0.00005418
  0.00005472  0.00005747  0.00005905  0.00006392  0.00006925  0.00007267  0.00007525  0.00008134
  0.00008258  0.00008561  0.00008740  0.00008916  0.00009271  0.00009792  0.00009906  0.00011922
  0.00012616  0.00012829  0.00013670  0.00013962  0.00013998  0.00014109  0.00016038  0.00016314
  0.00016768  0.00018180  0.00018644  0.00021080  0.00022479  0.00022623  0.00023324  0.00024875
  0.00028024  0.00028936  0.00029403  0.00030950  0.00034561  0.00037150  0.00038098  0.00039014
  0.00039429  0.00039561  0.00039695  0.00042733  0.00043487  0.00043496  0.00043540  0.00044182
  0.00044459  0.00046275  0.00046605  0.00046958  0.00048052  0.00049481  0.00052646  0.00053445
[...]
 nber times 1st assigned=          39           0
 nber times 1st assigned=          40           0
 nber times 1st assigned=          41           0
 nber times 1st assigned=          42           0
 nber times 1st assigned=          43           0
 nber times 1st assigned=          44           0
 nber times 1st assigned=          45           0
 nber times 1st assigned=          46           0
 nber times 1st assigned=          47           0
 nber times 1st assigned=          48           0
 nber times 1st assigned=          49           0
 nber times 1st assigned=          50           0
 nber times 1st assigned=          51           0
 nber times 1st assigned=          52           0
 nber times 1st assigned=          53           0
 nber times 1st assigned=          54           0
 nber times 1st assigned=          55           0
 nber times 1st assigned=          56           0
 nber times 1st assigned=          57           0
 nber times 1st assigned=          58           0
 nber times 1st assigned=          59           0
 nber times 1st assigned=          60           0
 nber times 1st assigned=          61           0
 nber times 1st assigned=          62           0
 nber times 1st assigned=          63           0
 nber times 1st assigned=          64           0
 nber times 1st assigned=          65           0
 nber times 1st assigned=          66           0
 nber times 1st assigned=          67           0
 nber times 1st assigned=          68           0
 nber times 1st assigned=          69           0
 nber times 1st assigned=          70           0
 nber times 1st assigned=          71           0
 nber times 1st assigned=          72           0
 nber times 1st assigned=          73           0
 nber times 1st assigned=          74           0
 nber times 1st assigned=          75           0
 nber times 1st assigned=          76           0
 nber times 1st assigned=          77           0
 nber times 1st assigned=          78           0
 nber times 1st assigned=          79           0
 nber times 1st assigned=          80           0
 nber times 1st assigned=          81           0
 nber times 1st assigned=          82           0
 nber times 1st assigned=          83           0
 nber times 1st assigned=          84           0
 nber times 1st assigned=          85           0
 nber times 1st assigned=          86           0
 nber times 1st assigned=          87           0
 nber times 1st assigned=          88           0
 nber times 1st assigned=          89           0
 nber times 1st assigned=          90           0
 nber times 1st assigned=          91           0
 nber times 1st assigned=          92           0
 nber times 1st assigned=          93           0
 nber times 1st assigned=          94           0
 nber times 1st assigned=          95           0
 nber times 1st assigned=          96           0
 nber times 1st assigned=          97           0
 nber times 1st assigned=          98           0
 nber times 1st assigned=          99           0
 nber times 1st assigned=         100           0
 nber times 1st assigned=         101           0
 nber times 1st assigned=         102           0
 nber times 1st assigned=         103           0
 nber times 1st assigned=         104           0
 nber times 1st assigned=         105           0
 nber times 1st assigned=         106           0
 nber times 1st assigned=         107           0
 nber times 1st assigned=         108           0
 nber times 1st assigned=         109           0
 nber times 1st assigned=         110           0
 nber times 1st assigned=         111           0
 nber times 1st assigned=         112           0
 nber times 1st assigned=         113           0
 nber times 1st assigned=         114           0
 nber times 1st assigned=         115           0
 nber times 1st assigned=         116           0
 nber times 1st assigned=         117           0
 nber times 1st assigned=         118           0
 nber times 1st assigned=         119           0
 nber times 1st assigned=         120           0
 nber times 1st assigned=         121           0
 nber times 1st assigned=         122           0
 nber times 1st assigned=         123           0
 nber times 1st assigned=         124           0
 nber times 1st assigned=         125           0
 nber times 1st assigned=         126           0
 nber times 1st assigned=         127           0
 nber times 1st assigned=         128           0
 nber times 1st assigned=         129           0
 nber times 1st assigned=         130           0
 nber times 1st assigned=         131           0
 nber times 1st assigned=         132           0
 nber times 1st assigned=         133           0
 nber times 1st assigned=         134           0
 nber times 1st assigned=         135           0
 nber times 1st assigned=         136           0
 nber times 1st assigned=         137           0
 nber times 1st assigned=         138           0
 nber times 1st assigned=         139           0
 nber times 1st assigned=         140           0
 nber times 1st assigned=         141           0
 nber times 1st assigned=         142           0
 nber times 1st assigned=         143           0
 nber times 1st assigned=         144           0
 nber times 1st assigned=         145           0
 nber times 1st assigned=         146           0
 nber times 1st assigned=         147           0
 modes represented=   140.899569579686     
 p1=
   -0.   -0.   -0.   -0.   -0.   -0.   -1.    0.   -0.   -0.   -0.   -0.   -0.    1.   -0.    0.    0.   -0.   10.    8.
   -0.    0.   -1.    0.    2.   -4.   -0.   -0.   -0.    1.   -0.   -1.   -0.   -0.    0.   -0.    0.   -0.    2.   -0.
    0.   -0.   -0.    4.   -0.   -3.   -0.    0.    0.   -0.    1.    0.    0.    0.   -0.   -1.   -0.   -0.   -0.   -0.
    0.   -0.    1.    0.   -1.    0.    0.   -0.    0.    0.    0.    1.    0.   -0.   -0.   -0.    0.    0.    0.    0.
   -0.    1.    0.    0.   -0.   -0.    0.   -0.    0.   -1.   -0.    0.    0.   -0.   -0.   -0.   -1.    0.    4.    0.
    0.    0.   -1.   -0.   -2.    0.    2.    0.   -0.   -0.    0.   -0.   -1.   -0.    0.   -0.   -0.   -0.   -0.    0.
    0.   -3.   -1.   -2.    0.    0.   -0.   -0.    0.   -0.   -0.   -0.   -0.    0.   -0.   -0.    0.   -0.    0.   -0.
    0.   -0.   -0.    0.    0.   -0.   -0.
 p2=
    0.    0.    0.   -0.   -0.   -0.    1.    1.   -0.   -0.    0.    0.    0.   -1.   -0.   -0.    0.   10.   -0.   -9.
    0.    0.    1.    0.    2.    4.    0.    0.   -0.   -1.   -0.    0.    1.    0.   -0.    0.    0.    2.   -0.   -1.
   -0.   -0.   -0.    4.    0.    0.   -3.    0.   -0.   -0.   -0.   -1.    0.   -0.   -0.   -0.    0.    1.    0.    0.
   -0.   -0.   -0.    0.    0.   -0.   -1.    0.    0.    0.   -0.    0.   -0.    0.    0.   -0.   -0.   -0.    0.   -0.
    0.    0.   -0.   -0.    0.   -0.   -0.    0.    0.    0.    0.    1.   -1.    0.   -0.   -0.   -4.    2.   -0.   -0.
    0.    0.   -0.   -2.   -1.    0.   -0.   -0.   -0.   -2.    1.    0.   -0.   -0.   -0.   -1.    0.   -0.   -0.    0.
   -0.    1.   -0.   -0.    0.   -0.   -4.    0.    0.    0.   -0.    0.   -0.    0.   -0.    0.   -0.    0.   -0.    0.
    0.   -0.    0.    0.    0.    0.   -0.

 Displacement: in terms of nc of 1 THEN of nc of 2

   1     freq=    -0. Q= -0.000 lam=    -0.0     freq=    -0. Q= -0.000 lam=    -0.0
   2     freq=    -0. Q= -0.000 lam=    -0.0     freq=    -0. Q= -0.000 lam=    -0.0
   3     freq=    -0. Q= -0.000 lam=    -0.0     freq=    -0. Q= -0.000 lam=    -0.0
   4     freq=     0. Q= -0.000 lam=     0.0     freq=     0. Q= -0.000 lam=     0.0
   5     freq=     0. Q= -0.000 lam=     0.0     freq=     0. Q= -0.000 lam=     0.0
   6     freq=     0. Q= -0.000 lam=     0.0     freq=     0. Q= -0.000 lam=     0.0
   7     freq=    21. Q= -0.013 lam=     0.0     freq=    25. Q= -0.014 lam=     0.0
   8     freq=    27. Q=  0.010 lam=     0.0     freq=    29. Q=  0.012 lam=     0.0
   9     freq=    52. Q= -0.012 lam=     0.0     freq=    54. Q= -0.006 lam=     0.0
  10     freq=    58. Q= -0.013 lam=     0.0     freq=    57. Q= -0.015 lam=     0.0
  11     freq=    78. Q= -0.004 lam=     0.0     freq=    79. Q= -0.003 lam=     0.0
  12     freq=    88. Q= -0.002 lam=     0.0     freq=    91. Q= -0.002 lam=     0.0
  13     freq=    99. Q= -0.003 lam=     0.0     freq=    98. Q= -0.002 lam=     0.0
  14     freq=   113. Q=  0.057 lam=     0.2     freq=   110. Q=  0.055 lam=     0.2
  15     freq=   142. Q= -0.002 lam=     0.0     freq=   147. Q= -0.002 lam=     0.0
  16     freq=   163. Q=  0.005 lam=     0.0     freq=   168. Q=  0.004 lam=     0.0
  17     freq=   187. Q=  0.005 lam=     0.0     freq=   186. Q=  0.004 lam=     0.0
  18     freq=   188. Q= -0.014 lam=     0.0     freq=   190. Q= -0.540 lam=    27.7
  19     freq=   191. Q=  0.566 lam=    30.6     freq=   201. Q=  0.002 lam=     0.0
  20     freq=   209. Q=  0.488 lam=    24.8     freq=   208. Q=  0.522 lam=    28.4
  21     freq=   219. Q= -0.000 lam=     0.0     freq=   213. Q= -0.000 lam=     0.0
  22     freq=   235. Q=  0.022 lam=     0.1     freq=   235. Q=  0.001 lam=     0.0
  23     freq=   236. Q= -0.039 lam=     0.2     freq=   236. Q= -0.050 lam=     0.3
  24     freq=   272. Q=  0.000 lam=     0.0     freq=   257. Q=  0.000 lam=     0.0
  25     freq=   279. Q=  0.147 lam=     3.0     freq=   278. Q=  0.142 lam=     2.8
  26     freq=   291. Q= -0.303 lam=    13.4     freq=   291. Q= -0.308 lam=    13.8
  27     freq=   315. Q= -0.000 lam=     0.0     freq=   303. Q= -0.000 lam=     0.0
  28     freq=   347. Q= -0.000 lam=     0.0     freq=   325. Q= -0.001 lam=     0.0
  29     freq=   356. Q= -0.008 lam=     0.0     freq=   349. Q= -0.009 lam=     0.0
  30     freq=   379. Q=  0.069 lam=     0.9     freq=   377. Q=  0.071 lam=     0.9
  31     freq=   391. Q= -0.008 lam=     0.0     freq=   389. Q= -0.008 lam=     0.0
  32     freq=   426. Q= -0.103 lam=     2.2     freq=   418. Q= -0.000 lam=     0.0
  33     freq=   430. Q= -0.033 lam=     0.2     freq=   423. Q= -0.109 lam=     2.5
  34     freq=   436. Q= -0.008 lam=     0.0     freq=   433. Q= -0.021 lam=     0.1
  35     freq=   439. Q=  0.027 lam=     0.2     freq=   436. Q=  0.008 lam=     0.0
  36     freq=   447. Q= -0.000 lam=     0.0     freq=   439. Q= -0.014 lam=     0.0
  37     freq=   448. Q=  0.000 lam=     0.0     freq=   447. Q=  0.000 lam=     0.0
  38     freq=   473. Q= -0.001 lam=     0.0     freq=   475. Q= -0.147 lam=     5.1
  39     freq=   478. Q=  0.139 lam=     4.6     freq=   483. Q=  0.000 lam=     0.0
  40     freq=   480. Q= -0.000 lam=     0.0     freq=   488. Q= -0.054 lam=     0.7
  41     freq=   491. Q=  0.041 lam=     0.4     freq=   494. Q=  0.000 lam=     0.0
  42     freq=   517. Q= -0.010 lam=     0.0     freq=   507. Q= -0.000 lam=     0.0
  43     freq=   536. Q= -0.000 lam=     0.0     freq=   514. Q= -0.010 lam=     0.0
  44     freq=   547. Q=  0.360 lam=    35.4     freq=   545. Q=  0.375 lam=    38.3
  45     freq=   577. Q= -0.015 lam=     0.1     freq=   560. Q= -0.000 lam=     0.0
  46     freq=   581. Q= -0.291 lam=    24.6     freq=   573. Q= -0.017 lam=     0.1
  47     freq=   582. Q= -0.004 lam=     0.0     freq=   576. Q= -0.271 lam=    21.2
  48     freq=   620. Q=  0.017 lam=     0.1     freq=   606. Q=  0.000 lam=     0.0
  49     freq=   632. Q=  0.000 lam=     0.0     freq=   612. Q=  0.017 lam=     0.1
  50     freq=   645. Q= -0.000 lam=     0.0     freq=   626. Q= -0.000 lam=     0.0
  51     freq=   661. Q=  0.130 lam=     5.6     freq=   653. Q=  0.000 lam=     0.0
  52     freq=   667. Q=  0.000 lam=     0.0     freq=   656. Q=  0.139 lam=     6.3
  53     freq=   694. Q=  0.010 lam=     0.0     freq=   676. Q=  0.000 lam=     0.0
  54     freq=   709. Q=  0.000 lam=     0.0     freq=   690. Q=  0.011 lam=     0.0
  55     freq=   717. Q= -0.020 lam=     0.1     freq=   690. Q= -0.000 lam=     0.0
  56     freq=   739. Q= -0.126 lam=     5.8     freq=   712. Q= -0.011 lam=     0.0
  57     freq=   744. Q= -0.000 lam=     0.0     freq=   729. Q= -0.000 lam=     0.0
  58     freq=   759. Q= -0.000 lam=     0.0     freq=   737. Q= -0.124 lam=     5.6
  59     freq=   765. Q= -0.000 lam=     0.0     freq=   754. Q= -0.000 lam=     0.0
  60     freq=   775. Q= -0.020 lam=     0.1     freq=   761. Q= -0.000 lam=     0.0
  61     freq=   777. Q=  0.001 lam=     0.0     freq=   764. Q=  0.001 lam=     0.0
  62     freq=   786. Q= -0.000 lam=     0.0     freq=   770. Q= -0.019 lam=     0.1
  63     freq=   806. Q=  0.058 lam=     1.4     freq=   778. Q=  0.000 lam=     0.0
  64     freq=   808. Q=  0.000 lam=     0.0     freq=   802. Q=  0.056 lam=     1.3
  65     freq=   824. Q= -0.071 lam=     2.1     freq=   814. Q= -0.001 lam=     0.0
  66     freq=   845. Q=  0.036 lam=     0.5     freq=   815. Q=  0.000 lam=     0.0
  67     freq=   865. Q=  0.001 lam=     0.0     freq=   821. Q=  0.080 lam=     2.6
  68     freq=   866. Q= -0.000 lam=     0.0     freq=   831. Q= -0.000 lam=     0.0
  69     freq=   871. Q=  0.000 lam=     0.0     freq=   834. Q=  0.000 lam=     0.0
  70     freq=   873. Q=  0.000 lam=     0.0     freq=   845. Q=  0.024 lam=     0.2
  71     freq=   873. Q=  0.018 lam=     0.1     freq=   863. Q=  0.017 lam=     0.1
  72     freq=   923. Q=  0.062 lam=     1.8     freq=   913. Q=  0.044 lam=     0.9
  73     freq=   946. Q=  0.000 lam=     0.0     freq=   927. Q=  0.037 lam=     0.6
  74     freq=   957. Q= -0.000 lam=     0.0     freq=   945. Q= -0.000 lam=     0.0
  75     freq=   961. Q= -0.004 lam=     0.0     freq=   957. Q= -0.000 lam=     0.0
  76     freq=   979. Q= -0.039 lam=     0.8     freq=   974. Q= -0.004 lam=     0.0
  77     freq=   993. Q=  0.000 lam=     0.0     freq=   975. Q=  0.038 lam=     0.7
  78     freq=   997. Q=  0.000 lam=     0.0     freq=   976. Q=  0.000 lam=     0.0
  79     freq=  1001. Q=  0.000 lam=     0.0     freq=   988. Q=  0.000 lam=     0.0
  80     freq=  1006. Q=  0.000 lam=     0.0     freq=   988. Q=  0.000 lam=     0.0
  81     freq=  1057. Q= -0.012 lam=     0.1     freq=  1053. Q= -0.006 lam=     0.0
  82     freq=  1082. Q=  0.125 lam=     8.4     freq=  1083. Q=  0.046 lam=     1.1
  83     freq=  1101. Q=  0.018 lam=     0.2     freq=  1094. Q=  0.012 lam=     0.1
  84     freq=  1127. Q=  0.001 lam=     0.0     freq=  1121. Q=  0.002 lam=     0.0
  85     freq=  1152. Q= -0.004 lam=     0.0     freq=  1152. Q= -0.003 lam=     0.0
  86     freq=  1156. Q= -0.000 lam=     0.0     freq=  1155. Q= -0.000 lam=     0.0
  87     freq=  1171. Q=  0.011 lam=     0.1     freq=  1160. Q=  0.004 lam=     0.0
  88     freq=  1194. Q= -0.037 lam=     0.8     freq=  1176. Q= -0.006 lam=     0.0
  89     freq=  1203. Q=  0.044 lam=     1.2     freq=  1186. Q=  0.034 lam=     0.7
  90     freq=  1204. Q= -0.072 lam=     3.2     freq=  1196. Q= -0.010 lam=     0.1
  91     freq=  1210. Q= -0.002 lam=     0.0     freq=  1200. Q= -0.008 lam=     0.0
  92     freq=  1218. Q=  0.004 lam=     0.0     freq=  1206. Q=  0.117 lam=     8.2
  93     freq=  1225. Q=  0.044 lam=     1.2     freq=  1224. Q=  0.100 lam=     6.2
  94     freq=  1241. Q= -0.006 lam=     0.0     freq=  1233. Q= -0.017 lam=     0.2
  95     freq=  1259. Q= -0.008 lam=     0.0     freq=  1243. Q= -0.007 lam=     0.0
  96     freq=  1277. Q= -0.009 lam=     0.0     freq=  1264. Q= -0.001 lam=     0.0
  97     freq=  1301. Q= -0.165 lam=    17.7     freq=  1296. Q= -0.600 lam=   233.3
  98     freq=  1316. Q=  0.003 lam=     0.0     freq=  1311. Q=  0.328 lam=    70.5
  99     freq=  1325. Q=  0.638 lam=   269.7     freq=  1318. Q=  0.006 lam=     0.0
 100     freq=  1337. Q=  0.001 lam=     0.0     freq=  1349. Q=  0.000 lam=     0.0
 101     freq=  1353. Q=  0.010 lam=     0.1     freq=  1356. Q=  0.018 lam=     0.2
 102     freq=  1369. Q=  0.005 lam=     0.0     freq=  1364. Q=  0.003 lam=     0.0
 103     freq=  1375. Q= -0.086 lam=     5.1     freq=  1382. Q= -0.022 lam=     0.3
 104     freq=  1382. Q= -0.000 lam=     0.0     freq=  1382. Q= -0.274 lam=    51.8
 105     freq=  1389. Q= -0.345 lam=    82.5     freq=  1392. Q= -0.093 lam=     6.0
 106     freq=  1401. Q=  0.000 lam=     0.0     freq=  1400. Q=  0.000 lam=     0.0
 107     freq=  1406. Q=  0.327 lam=    75.1     freq=  1401. Q=  0.010 lam=     0.1
 108     freq=  1417. Q=  0.004 lam=     0.0     freq=  1413. Q=  0.009 lam=     0.1
 109     freq=  1419. Q= -0.001 lam=     0.0     freq=  1416. Q= -0.024 lam=     0.4
 110     freq=  1428. Q= -0.055 lam=     2.2     freq=  1430. Q= -0.246 lam=    43.2
 111     freq=  1437. Q=  0.014 lam=     0.1     freq=  1440. Q=  0.145 lam=    15.0
 112     freq=  1454. Q= -0.022 lam=     0.3     freq=  1441. Q= -0.041 lam=     1.2
 113     freq=  1475. Q= -0.219 lam=    35.5     freq=  1460. Q= -0.005 lam=     0.0
 114     freq=  1485. Q= -0.000 lam=     0.0     freq=  1467. Q= -0.000 lam=     0.0
 115     freq=  1490. Q=  0.001 lam=     0.0     freq=  1485. Q=  0.000 lam=     0.0
 116     freq=  1498. Q= -0.008 lam=     0.1     freq=  1490. Q= -0.194 lam=    27.9
 117     freq=  1505. Q= -0.002 lam=     0.0     freq=  1498. Q= -0.022 lam=     0.4
 118     freq=  1505. Q= -0.000 lam=     0.0     freq=  1505. Q= -0.000 lam=     0.0
 119     freq=  1523. Q= -0.000 lam=     0.0     freq=  1512. Q= -0.000 lam=     0.0
 120     freq=  1543. Q=  0.000 lam=     0.0     freq=  1522. Q=  0.000 lam=     0.0
 121     freq=  1560. Q=  0.001 lam=     0.0     freq=  1547. Q=  0.003 lam=     0.0
 122     freq=  1603. Q= -0.513 lam=   211.1     freq=  1557. Q= -0.119 lam=    11.0
 123     freq=  1615. Q= -0.103 lam=     8.6     freq=  1568. Q= -0.001 lam=     0.0
 124     freq=  1623. Q= -0.298 lam=    71.9     freq=  1579. Q= -0.002 lam=     0.0
 125     freq=  1631. Q=  0.002 lam=     0.0     freq=  1598. Q=  0.000 lam=     0.0
 126     freq=  1632. Q=  0.023 lam=     0.4     freq=  1598. Q=  0.026 lam=     0.5
 127     freq=  1648. Q= -0.001 lam=     0.0     freq=  1622. Q= -0.618 lam=   310.1
 128     freq=  1714. Q= -0.000 lam=     0.0     freq=  1686. Q= -0.000 lam=     0.0
 129     freq=  1752. Q=  0.028 lam=     0.7     freq=  1725. Q=  0.046 lam=     1.8
 130     freq=  1767. Q= -0.000 lam=     0.0     freq=  1743. Q= -0.001 lam=     0.0
 131     freq=  1770. Q= -0.034 lam=     1.0     freq=  1745. Q= -0.063 lam=     3.4
 132     freq=  3035. Q= -0.000 lam=     0.0     freq=  3034. Q= -0.000 lam=     0.0
 133     freq=  3039. Q= -0.001 lam=     0.0     freq=  3038. Q= -0.001 lam=     0.0
 134     freq=  3093. Q=  0.000 lam=     0.0     freq=  3092. Q=  0.000 lam=     0.0
 135     freq=  3096. Q= -0.001 lam=     0.0     freq=  3095. Q= -0.001 lam=     0.0
 136     freq=  3113. Q= -0.001 lam=     0.0     freq=  3112. Q= -0.001 lam=     0.0
 137     freq=  3133. Q=  0.000 lam=     0.0     freq=  3132. Q=  0.000 lam=     0.0
 138     freq=  3144. Q= -0.000 lam=     0.0     freq=  3143. Q= -0.000 lam=     0.0
 139     freq=  3194. Q=  0.002 lam=     0.0     freq=  3197. Q=  0.002 lam=     0.0
 140     freq=  3194. Q= -0.001 lam=     0.0     freq=  3198. Q= -0.000 lam=     0.0
 141     freq=  3200. Q=  0.004 lam=     0.0     freq=  3204. Q=  0.002 lam=     0.0
 142     freq=  3200. Q= -0.002 lam=     0.0     freq=  3204. Q= -0.004 lam=     0.0
 143     freq=  3208. Q= -0.001 lam=     0.0     freq=  3212. Q= -0.001 lam=     0.0
 144     freq=  3208. Q=  0.001 lam=     0.0     freq=  3212. Q=  0.000 lam=     0.0
 145     freq=  3219. Q=  0.008 lam=     0.1     freq=  3225. Q=  0.002 lam=     0.0
 146     freq=  3219. Q= -0.011 lam=     0.2     freq=  3225. Q= -0.009 lam=     0.1
 147     freq=  3580. Q= -0.001 lam=     0.0     freq=  3580. Q= -0.001 lam=     0.0

 total reorg energy (cm**-1, kcal/mol)=      957.      955.      2.74      2.73
 Nber of molecules processed=           2
