 Enter ifcurve (0=recti, 1=orth curvi, 2=apprx curvi, -1 = skip
 And atom ordering flag, 0= never changes, 1= use the first order thenceforth,
  2= deduce it (does read on fail), 3= always read it
 Reading file: 
 ./PDI_7_C1S0.log                                                               
                                          
  Entering Gaussian System, Link 0=g16                                          
  
 Gaussian format, type: g94, g98, g03= F F F
  #P Geom=AllCheck Guess=TCheck SCRF=Check GenChk UB3LYP/6-311G(d,p) Fre    
 energy type= B3LYP   
 Original G94 input coords:
  6  0.896292  0.287520 -0.220340
  6  2.337353 -0.185962 -0.012095
  6  3.313495  0.316084 -1.079499
  7  2.827054  0.133135  1.376799
  6  3.135354 -0.950380  2.211822
  8  3.019658 -2.102883  1.848666
  6  3.620966 -0.642467  3.590555
  6  3.934358 -1.690679  4.443219
  6  4.389091 -1.431997  5.732901
  6  4.547517 -0.123765  6.217632
  6  5.023494  0.159642  7.566344
  6  5.366839 -0.856407  8.470798
  6  5.821824 -0.573862  9.754698
  6  5.942533  0.740973 10.180050
  6  6.425140  1.007064 11.560470
  8  6.680944  0.110844 12.333280
  7  6.571779  2.362744 11.936996
  6  7.088765  2.640954 13.252100
  6  6.339265  3.394518 14.159513
  6  6.845956  3.654142 15.419430
  6  8.110034  3.165160 15.817952
  6  8.640926  3.439809 17.158111
  6  8.290459  4.620436 17.850474
  6  8.798020  4.880837 19.112644
  6  9.658500  3.965371 19.725715
  6 10.012059  2.788011 19.059750
  6  9.517021  2.530665 17.792063
  6  8.844438  2.405048 14.882443
  6  8.346605  2.150389 13.618517
  6  6.216367  3.459018 11.117126
  8  6.302110  4.598931 11.516599
  6  5.747243  3.133878  9.747335
  6  5.443557  4.178907  8.884298
  6  4.993178  3.917247  7.596536
  6  4.832666  2.605380  7.117338
  6  4.359829  2.321550  5.770239
  6  4.024514  3.337260  4.858930
  6  3.572605  3.054686  3.573928
  6  3.439636  1.738848  3.154864
  6  2.950748  1.466820  1.768064
  8  2.677283  2.388935  1.026380
  6  3.763804  0.686894  4.034961
  6  4.228325  0.963697  5.353715
  6  5.150325  1.518477  7.986333
  6  5.610967  1.797435  9.307625
  1  0.535835 -0.099314 -1.176460
  1  0.823055  1.374102 -0.239788
  1  0.240099 -0.101377  0.562313
  1  2.344308 -1.273267 -0.028821
  1  3.334674  1.403765 -1.133328
  1  2.998201 -0.070996 -2.051350
  1  4.324554 -0.052462 -0.888926
  1  3.817750 -2.705587  4.085474
  1  4.620813 -2.277747  6.364973
  1  5.283333 -1.894160  8.180891
  1  6.083166 -1.370453 10.439484
  1  5.364774  3.768946 13.878579
  1  6.240068  4.212011 16.121448
  1  7.647035  5.350757 17.376082
  1  8.532229  5.799201 19.622078
  1 10.050501  4.167770 20.715341
  1 10.668875  2.071579 19.538175
  1  9.776581  1.602257 17.299002
  1  9.832300  2.044946 15.138377
  1  8.931076  1.578453 12.910395
  1  5.559671  5.195535  9.237589
  1  4.763731  4.759884  6.959991
  1  4.112381  4.375748  5.145658
  1  3.318034  3.848562  2.883546
 nber atoms=          69
  SCF Done:  E(UB3LYP) =  -1911.34266209     A.U. after    3 cycles             
  
          23          40 "  -1911.34266209"
After scan for Atom:   Atom  AN      X      Y      Z        X      Y      Z        X      Y      Z   
After scan for Atom:   Atom  AN      X      Y      Z        X      Y      Z        X      Y      Z   
After scan for Atom:   Atom  AN      X      Y      Z        X      Y      Z        X      Y      Z   
After scan for Atom:   Atom  AN      X      Y      Z        X      Y      Z        X      Y      Z   
After scan for Atom:   Atom  AN      X      Y      Z        X      Y      Z        X      Y      Z   
After scan for Atom:   Atom  AN      X      Y      Z        X      Y      Z        X      Y      Z   
After scan for Atom:   Atom  AN      X      Y      Z        X      Y      Z        X      Y      Z   
After scan for Atom:   Atom  AN      X      Y      Z        X      Y      Z        X      Y      Z   
After scan for Atom:   Atom  AN      X      Y      Z        X      Y      Z        X      Y      Z   
After scan for Atom:   Atom  AN      X      Y      Z        X      Y      Z        X      Y      Z   
After scan for Atom:   Atom  AN      X      Y      Z        X      Y      Z        X      Y      Z   
After scan for Atom:   Atom  AN      X      Y      Z        X      Y      Z        X      Y      Z   
After scan for Atom:   Atom  AN      X      Y      Z        X      Y      Z        X      Y      Z   
After scan for Atom:   Atom  AN      X      Y      Z        X      Y      Z        X      Y      Z   
After scan for Atom:   Atom  AN      X      Y      Z        X      Y      Z        X      Y      Z   
After scan for Atom:   Atom  AN      X      Y      Z        X      Y      Z        X      Y      Z   
After scan for Atom:   Atom  AN      X      Y      Z        X      Y      Z        X      Y      Z   
After scan for Atom:   Atom  AN      X      Y      Z        X      Y      Z        X      Y      Z   
After scan for Atom:   Atom  AN      X      Y      Z        X      Y      Z        X      Y      Z   
After scan for Atom:   Atom  AN      X      Y      Z        X      Y      Z        X      Y      Z   
After scan for Atom:   Atom  AN      X      Y      Z        X      Y      Z        X      Y      Z   
After scan for Atom:   Atom  AN      X      Y      Z        X      Y      Z        X      Y      Z   
After scan for Atom:   Atom  AN      X      Y      Z        X      Y      Z        X      Y      Z   
After scan for Atom:   Atom  AN      X      Y      Z        X      Y      Z        X      Y      Z   
After scan for Atom:   Atom  AN      X      Y      Z        X      Y      Z        X      Y      Z   
After scan for Atom:   Atom  AN      X      Y      Z        X      Y      Z        X      Y      Z   
After scan for Atom:   Atom  AN      X      Y      Z        X      Y      Z        X      Y      Z   
After scan for Atom:   Atom  AN      X      Y      Z        X      Y      Z        X      Y      Z   
After scan for Atom:   Atom  AN      X      Y      Z        X      Y      Z        X      Y      Z   
After scan for Atom:   Atom  AN      X      Y      Z        X      Y      Z        X      Y      Z   
After scan for Atom:   Atom  AN      X      Y      Z        X      Y      Z        X      Y      Z   
After scan for Atom:   Atom  AN      X      Y      Z        X      Y      Z        X      Y      Z   
After scan for Atom:   Atom  AN      X      Y      Z        X      Y      Z        X      Y      Z   
After scan for Atom:   Atom  AN      X      Y      Z        X      Y      Z        X      Y      Z   
After scan for Atom:   Atom  AN      X      Y      Z        X      Y      Z        X      Y      Z   
After scan for Atom:   Atom  AN      X      Y      Z        X      Y      Z        X      Y      Z   
After scan for Atom:   Atom  AN      X      Y      Z        X      Y      Z        X      Y      Z   
After scan for Atom:   Atom  AN      X      Y      Z        X      Y      Z        X      Y      Z   
After scan for Atom:   Atom  AN      X      Y      Z        X      Y      Z        X      Y      Z   
After scan for Atom:   Atom  AN      X      Y      Z        X      Y      Z        X      Y      Z   
After scan for Atom:   Atom  AN      X      Y      Z        X      Y      Z        X      Y      Z   
After scan for Atom:   Atom  AN      X      Y      Z        X      Y      Z        X      Y      Z   
After scan for Atom:   Atom  AN      X      Y      Z        X      Y      Z        X      Y      Z   
After scan for Atom:   Atom  AN      X      Y      Z        X      Y      Z        X      Y      Z   
After scan for Atom:   Atom  AN      X      Y      Z        X      Y      Z        X      Y      Z   
After scan for Atom:   Atom  AN      X      Y      Z        X      Y      Z        X      Y      Z   
After scan for Atom:   Atom  AN      X      Y      Z        X      Y      Z        X      Y      Z   
After scan for Atom:   Atom  AN      X      Y      Z        X      Y      Z        X      Y      Z   
After scan for Atom:   Atom  AN      X      Y      Z        X      Y      Z        X      Y      Z   
After scan for Atom:   Atom  AN      X      Y      Z        X      Y      Z        X      Y      Z   
After scan for Atom:   Atom  AN      X      Y      Z        X      Y      Z        X      Y      Z   
After scan for Atom:   Atom  AN      X      Y      Z        X      Y      Z        X      Y      Z   
After scan for Atom:   Atom  AN      X      Y      Z        X      Y      Z        X      Y      Z   
After scan for Atom:   Atom  AN      X      Y      Z        X      Y      Z        X      Y      Z   
After scan for Atom:   Atom  AN      X      Y      Z        X      Y      Z        X      Y      Z   
After scan for Atom:   Atom  AN      X      Y      Z        X      Y      Z        X      Y      Z   
After scan for Atom:   Atom  AN      X      Y      Z        X      Y      Z        X      Y      Z   
After scan for Atom:   Atom  AN      X      Y      Z        X      Y      Z        X      Y      Z   
After scan for Atom:   Atom  AN      X      Y      Z        X      Y      Z        X      Y      Z   
After scan for Atom:   Atom  AN      X      Y      Z        X      Y      Z        X      Y      Z   
After scan for Atom:   Atom  AN      X      Y      Z        X      Y      Z        X      Y      Z   
After scan for Atom:   Atom  AN      X      Y      Z        X      Y      Z        X      Y      Z   
After scan for Atom:   Atom  AN      X      Y      Z        X      Y      Z        X      Y      Z   
After scan for Atom:   Atom  AN      X      Y      Z        X      Y      Z        X      Y      Z   
After scan for Atom:   Atom  AN      X      Y      Z        X      Y      Z        X      Y      Z   
After scan for Atom:   Atom  AN      X      Y      Z        X      Y      Z        X      Y      Z   
After scan for Atom:   Atom  AN      X      Y      Z        X      Y      Z        X      Y      Z   
 g94    frequencies=
     0.0    0.0    0.0    0.0    0.0    0.0   11.0   20.6   21.6   31.3
    33.7   52.5   58.0   70.9   74.7   75.6   87.7   95.4  104.7  122.0
   127.4  152.9  163.8  179.3  185.0  198.7  212.6  222.3  235.3  238.1
   241.3  264.4  280.1  292.5  311.8  324.7  334.6  359.0  372.7  388.5
   394.1  400.6  412.8  415.3  429.1  433.4  434.7  437.2  441.3  446.7
   466.3  471.8  478.6  480.3  505.4  508.3  518.4  527.2  549.3  562.3
   574.5  581.4  586.7  616.6  617.5  622.0  635.5  640.5  649.0  665.0
   690.7  708.6  712.5  718.2  719.8  729.9  743.0  747.9  758.5  768.9
   776.5  783.5  791.9  802.2  812.3  819.3  824.6  833.4  844.9  850.3
   857.3  868.8  870.1  872.6  875.1  905.2  921.3  947.5  949.0  958.0
   966.7  974.6  978.3  983.4  995.9 1005.2 1006.4 1007.6 1014.3 1016.5
  1017.6 1020.6 1030.0 1050.7 1064.4 1084.4 1103.4 1114.5 1145.1 1156.0
  1156.6 1157.7 1166.6 1167.6 1187.5 1191.3 1194.7 1204.7 1209.4 1209.9
  1213.5 1223.1 1238.1 1258.3 1262.2 1277.8 1288.1 1297.6 1313.2 1320.4
  1322.9 1339.2 1339.6 1344.4 1352.3 1365.6 1371.4 1376.2 1378.3 1387.9
  1405.2 1410.3 1412.8 1422.9 1440.6 1444.6 1454.3 1482.7 1485.0 1485.6
  1486.2 1493.7 1500.0 1503.5 1509.3 1521.3 1532.4 1538.8 1561.3 1564.0
  1574.6 1584.4 1588.1 1603.2 1611.6 1612.4 1615.2 1627.0 1630.9 1714.5
  1728.1 1758.8 1763.4 3040.6 3044.0 3100.4 3103.6 3117.5 3134.9 3146.0
  3178.1 3183.9 3190.5 3195.3 3197.9 3201.1 3202.5 3202.8 3204.4 3208.3
  3208.4 3212.3 3215.1 3215.1 3218.2 3226.2 3226.9
 g94    symmetries=
                                                 A      A      A      A
       A      A      A      A      A      A      A      A      A      A
       A      A      A      A      A      A      A      A      A      A
       A      A      A      A      A      A      A      A      A      A
       A      A      A      A      A      A      A      A      A      A
       A      A      A      A      A      A      A      A      A      A
       A      A      A      A      A      A      A      A      A      A
       A      A      A      A      A      A      A      A      A      A
       A      A      A      A      A      A      A      A      A      A
       A      A      A      A      A      A      A      A      A      A
       A      A      A      A      A      A      A      A      A      A
       A      A      A      A      A      A      A      A      A      A
       A      A      A      A      A      A      A      A      A      A
       A      A      A      A      A      A      A      A      A      A
       A      A      A      A      A      A      A      A      A      A
       A      A      A      A      A      A      A      A      A      A
       A      A      A      A      A      A      A      A      A      A
       A      A      A      A      A      A      A      A      A      A
       A      A      A      A      A      A      A      A      A      A
       A      A      A      A      A      A      A      A      A      A
       A      A      A      A      A      A      A
 atomic masses:
 12.0000 12.0000 12.0000 14.0031 12.0000 15.9949 12.0000 12.0000 12.0000 12.0000
 12.0000 12.0000 12.0000 12.0000 12.0000 15.9949 14.0031 12.0000 12.0000 12.0000
 12.0000 12.0000 12.0000 12.0000 12.0000 12.0000 12.0000 12.0000 12.0000 12.0000
 15.9949 12.0000 12.0000 12.0000 12.0000 12.0000 12.0000 12.0000 12.0000 12.0000
 15.9949 12.0000 12.0000 12.0000 12.0000  1.0078  1.0078  1.0078  1.0078  1.0078
  1.0078  1.0078  1.0078  1.0078  1.0078  1.0078  1.0078  1.0078  1.0078  1.0078
  1.0078  1.0078  1.0078  1.0078  1.0078  1.0078  1.0078  1.0078  1.0078
 looking for force constants in 
 ./PDI_7_C1S0.fchk                                                              
  
 Cartesian Force Constants                  R   N=       21528                  
  
 n3=         207       21528
 g94-fc frequencies=
    -3.5   -0.8   -0.1   -0.0   -0.0    0.0   11.0   20.6   21.6   31.3
    33.7   52.5   58.0   70.9   74.7   75.6   87.7   95.4  104.7  122.0
   127.4  152.9  163.8  179.3  185.0  198.8  212.6  222.3  235.3  238.1
   241.3  264.4  280.1  292.5  311.8  324.7  334.6  359.0  372.8  388.5
   394.1  400.7  412.8  415.3  429.1  433.4  434.7  437.2  441.3  446.7
   466.3  471.8  478.7  480.3  505.5  508.3  518.4  527.2  549.3  562.3
   574.5  581.4  586.7  616.7  617.6  622.1  635.6  640.5  649.0  665.0
   690.7  708.6  712.5  718.2  719.8  730.0  743.1  747.9  758.5  768.9
   776.6  783.5  792.0  802.2  812.3  819.3  824.7  833.5  844.9  850.4
   857.3  868.8  870.1  872.6  875.1  905.2  921.3  947.5  949.0  958.0
   966.7  974.6  978.3  983.4  995.9 1005.3 1006.4 1007.6 1014.3 1016.5
  1017.6 1020.6 1030.0 1050.7 1064.4 1084.4 1103.5 1114.5 1145.1 1156.1
  1156.6 1157.7 1166.6 1167.7 1187.5 1191.3 1194.7 1204.8 1209.4 1209.9
  1213.5 1223.1 1238.1 1258.3 1262.3 1277.9 1288.1 1297.6 1313.2 1320.5
  1322.9 1339.2 1339.6 1344.4 1352.4 1365.7 1371.4 1376.2 1378.3 1388.0
  1405.2 1410.3 1412.8 1422.9 1440.7 1444.7 1454.3 1482.7 1485.0 1485.7
  1486.2 1493.7 1500.0 1503.5 1509.3 1521.3 1532.5 1538.8 1561.3 1564.1
  1574.6 1584.5 1588.2 1603.2 1611.7 1612.5 1615.2 1627.0 1631.0 1714.6
  1728.1 1758.8 1763.4 3040.7 3044.1 3100.5 3103.7 3117.5 3134.9 3146.1
  3178.1 3184.0 3190.6 3195.4 3197.9 3201.2 3202.5 3202.9 3204.4 3208.4
  3208.5 3212.3 3215.1 3215.2 3218.2 3226.3 3227.0
 at 99999: n3=         207
 symm operator            1 :  F  nop=           0
 symm operator            2 :  F  nop=           0
 symm operator            3 :  F  nop=           0
 symm operator            4 :  F  nop=           0
 symm operator            5 :  F  nop=           0
 symm operator            6 :  F  nop=           0
 symm operator            7 :  F  nop=           0
 The point group of the molecule is  C1
 Symmetry rotation matrix:
   1.00000   0.00000   0.00000
   0.00000   1.00000   0.00000
   0.00000   0.00000   1.00000

 Projecting out zero-frequency components
 generating redundant internal coords
         300        3600          69
 search for int coords
   1 str   2   1   1.531
   2 str   3   2   1.531
   3 str   4   2   1.507
   4 str   5   4   1.402
   5 str   6   5   1.214
   6 str   7   5   1.494
   7 str   8   7   1.387
   8 str   9   8   1.392
   9 str  10   9   1.404
  10 str  11  10   1.458
  11 str  12  11   1.403
  12 str  13  12   1.391
  13 str  14  13   1.387
  14 str  15  14   1.486
  15 str  16  15   1.211
  16 str  17  15   1.415
  17 str  18  17   1.440
  18 str  19  18   1.398
  19 str  20  19   1.383
  20 str  21  20   1.413
  21 str  22  21   1.467
  22 str  23  22   1.413
  23 str  24  23   1.385
  24 str  25  24   1.398
  25 str  26  25   1.398
  26 str  27  22   1.413
  27 str  27  26   1.385
  28 str  28  21   1.411
  29 str  29  18   1.399
  30 str  29  28   1.382
  31 str  30  17   1.414
  32 str  31  30   1.211
  33 str  32  30   1.484
  34 str  33  32   1.389
  35 str  34  33   1.389
  36 str  35  34   1.406
  37 str  36  35   1.456
  38 str  37  36   1.405
  39 str  38  37   1.391
  40 str  39  38   1.387
  41 str  40   4   1.395
  42 str  40  39   1.495
  43 str  41  40   1.215
  44 str  42   7   1.409
  45 str  42  39   1.409
  46 str  43  10   1.425
  47 str  43  36   1.426
  48 str  43  42   1.425
  49 str  44  11   1.428
  50 str  44  35   1.427
  51 str  45  14   1.410
  52 str  45  32   1.414
  53 str  45  44   1.427
  54 str  46   1   1.093
  55 str  47   1   1.089
  56 str  48   1   1.093
  57 str  49   2   1.087
  58 str  50   3   1.089
  59 str  51   3   1.093
  60 str  52   3   1.093
  61 str  53   8   1.082
  62 str  54   9   1.081
  63 str  55  12   1.081
  64 str  56  13   1.082
  65 str  57  19   1.081
  66 str  58  20   1.082
  67 str  59  23   1.083
  68 str  60  24   1.083
  69 str  61  25   1.084
  70 str  62  26   1.083
  71 str  63  27   1.083
  72 str  64  28   1.082
  73 str  65  29   1.082
  74 str  66  33   1.083
  75 str  67  34   1.081
  76 str  68  37   1.081
  77 str  69  38   1.082
 nber stretches=          77
  78 ben   1   2   3
  79 prop tor   1   2   3  50
  80 prop tor   1   2   3  51
  81 prop tor   1   2   3  52
  82 ben   1   2   4
  83 prop tor   1   2   4   5
  84 prop tor   1   2   4  40
  85 ben   1   2  49
  86 ben   2   1  46
  87 ben   2   1  47
  88 ben   2   1  48
  89 ben   2   3  50
  90 ben   2   3  51
  91 ben   2   3  52
  92 ben   2   4   5
  93 prop tor   2   4   5   6
  94 prop tor   2   4   5   7
  95 ben   2   4  40
  96 prop tor   2   4  40  39
  97 prop tor   2   4  40  41
  98 ben   3   2   4
  99 prop tor   3   2   4   5
 100 prop tor   3   2   4  40
 101 ben   3   2  49
 102 prop tor   4   2   3  50
 103 prop tor   4   2   3  51
 104 prop tor   4   2   3  52
 105 ben   4   2  49
 106 ben   4   5   6
 107 ben   4   5   7
 108 prop tor   4   5   7   8
 109 prop tor   4   5   7  42
 110 ben   4  40  39
 111 ben   4  40  41
 112 ben   5   4  40
 113 prop tor   5   4  40  39
 114 prop tor   5   4  40  41
 115 ben   5   7   8
 116 prop tor   5   7   8   9
 117 prop tor   5   7   8  53
 118 ben   5   7  42
 119 prop tor   5   7  42  39
 120 prop tor   5   7  42  43
 121 ben   6   5   7
 122 prop tor   6   5   7   8
 123 prop tor   6   5   7  42
 124 ben   7   8   9
 125 prop tor   7   8   9  10
 126 prop tor   7   8   9  54
 127 ben   7   8  53
 128 ben   7  42  39
 129 ben   7  42  43
 130 prop tor   7  42  43  10
 131 prop tor   7  42  43  36
 132 ben   8   7  42
 133 prop tor   8   7  42  39
 134 prop tor   8   7  42  43
 135 ben   8   9  10
 136 prop tor   8   9  10  11
 137 prop tor   8   9  10  43
 138 ben   8   9  54
 139 ben   9   8  53
 140 ben   9  10  11
 141 prop tor   9  10  11  12
 142 prop tor   9  10  11  44
 143 ben   9  10  43
 144 prop tor   9  10  43  36
 145 prop tor   9  10  43  42
 146 ben  10   9  54
 147 ben  10  11  12
 148 prop tor  10  11  12  13
 149 prop tor  10  11  12  55
 150 ben  10  11  44
 151 prop tor  10  11  44  35
 152 prop tor  10  11  44  45
 153 ben  10  43  36
 154 ben  10  43  42
 155 ben  11  10  43
 156 prop tor  11  10  43  36
 157 prop tor  11  10  43  42
 158 ben  11  12  13
 159 prop tor  11  12  13  14
 160 prop tor  11  12  13  56
 161 ben  11  12  55
 162 ben  11  44  35
 163 ben  11  44  45
 164 prop tor  11  44  45  14
 165 prop tor  11  44  45  32
 166 ben  12  11  44
 167 prop tor  12  11  44  35
 168 prop tor  12  11  44  45
 169 ben  12  13  14
 170 prop tor  12  13  14  15
 171 prop tor  12  13  14  45
 172 ben  12  13  56
 173 ben  13  12  55
 174 ben  13  14  15
 175 prop tor  13  14  15  16
 176 prop tor  13  14  15  17
 177 ben  13  14  45
 178 prop tor  13  14  45  32
 179 prop tor  13  14  45  44
 180 ben  14  13  56
 181 ben  14  15  16
 182 ben  14  15  17
 183 prop tor  14  15  17  18
 184 prop tor  14  15  17  30
 185 ben  14  45  32
 186 ben  14  45  44
 187 ben  15  14  45
 188 prop tor  15  14  45  32
 189 prop tor  15  14  45  44
 190 ben  15  17  18
 191 prop tor  15  17  18  19
 192 prop tor  15  17  18  29
 193 ben  15  17  30
 194 prop tor  15  17  30  31
 195 prop tor  15  17  30  32
 196 ben  16  15  17
 197 prop tor  16  15  17  18
 198 prop tor  16  15  17  30
 199 ben  17  18  19
 200 prop tor  17  18  19  20
 201 prop tor  17  18  19  57
 202 ben  17  18  29
 203 prop tor  17  18  29  28
 204 prop tor  17  18  29  65
 205 ben  17  30  31
 206 ben  17  30  32
 207 prop tor  17  30  32  33
 208 prop tor  17  30  32  45
 209 ben  18  17  30
 210 prop tor  18  17  30  31
 211 prop tor  18  17  30  32
 212 ben  18  19  20
 213 prop tor  18  19  20  21
 214 prop tor  18  19  20  58
 215 ben  18  19  57
 216 ben  18  29  28
 217 ben  18  29  65
 218 ben  19  18  29
 219 prop tor  19  18  29  28
 220 prop tor  19  18  29  65
 221 ben  19  20  21
 222 prop tor  19  20  21  22
 223 prop tor  19  20  21  28
 224 ben  19  20  58
 225 ben  20  19  57
 226 ben  20  21  22
 227 prop tor  20  21  22  23
 228 prop tor  20  21  22  27
 229 ben  20  21  28
 230 prop tor  20  21  28  29
 231 prop tor  20  21  28  64
 232 ben  21  20  58
 233 ben  21  22  23
 234 prop tor  21  22  23  24
 235 prop tor  21  22  23  59
 236 ben  21  22  27
 237 prop tor  21  22  27  26
 238 prop tor  21  22  27  63
 239 ben  21  28  29
 240 prop tor  21  28  29  18
 241 prop tor  21  28  29  65
 242 ben  21  28  64
 243 ben  22  21  28
 244 prop tor  22  21  28  29
 245 prop tor  22  21  28  64
 246 ben  22  23  24
 247 prop tor  22  23  24  25
 248 prop tor  22  23  24  60
 249 ben  22  23  59
 250 ben  22  27  26
 251 ben  22  27  63
 252 ben  23  22  27
 253 prop tor  23  22  27  26
 254 prop tor  23  22  27  63
 255 ben  23  24  25
 256 prop tor  23  24  25  26
 257 prop tor  23  24  25  61
 258 ben  23  24  60
 259 ben  24  23  59
 260 ben  24  25  26
 261 prop tor  24  25  26  27
 262 prop tor  24  25  26  62
 263 ben  24  25  61
 264 ben  25  24  60
 265 ben  25  26  27
 266 prop tor  25  26  27  22
 267 prop tor  25  26  27  63
 268 ben  25  26  62
 269 ben  26  25  61
 270 ben  26  27  63
 271 prop tor  27  22  23  24
 272 prop tor  27  22  23  59
 273 ben  27  26  62
 274 prop tor  28  21  22  23
 275 prop tor  28  21  22  27
 276 ben  28  29  65
 277 prop tor  29  18  19  20
 278 prop tor  29  18  19  57
 279 ben  29  28  64
 280 prop tor  30  17  18  19
 281 prop tor  30  17  18  29
 282 ben  30  32  33
 283 prop tor  30  32  33  34
 284 prop tor  30  32  33  66
 285 ben  30  32  45
 286 prop tor  30  32  45  14
 287 prop tor  30  32  45  44
 288 ben  31  30  32
 289 prop tor  31  30  32  33
 290 prop tor  31  30  32  45
 291 ben  32  33  34
 292 prop tor  32  33  34  35
 293 prop tor  32  33  34  67
 294 ben  32  33  66
 295 ben  32  45  44
 296 ben  33  32  45
 297 prop tor  33  32  45  14
 298 prop tor  33  32  45  44
 299 ben  33  34  35
 300 prop tor  33  34  35  36
 301 prop tor  33  34  35  44
 302 ben  33  34  67
 303 ben  34  33  66
 304 ben  34  35  36
 305 prop tor  34  35  36  37
 306 prop tor  34  35  36  43
 307 ben  34  35  44
 308 prop tor  34  35  44  11
 309 prop tor  34  35  44  45
 310 ben  35  34  67
 311 ben  35  36  37
 312 prop tor  35  36  37  38
 313 prop tor  35  36  37  68
 314 ben  35  36  43
 315 prop tor  35  36  43  10
 316 prop tor  35  36  43  42
 317 ben  35  44  45
 318 prop tor  35  44  45  14
 319 prop tor  35  44  45  32
 320 ben  36  35  44
 321 prop tor  36  35  44  11
 322 prop tor  36  35  44  45
 323 ben  36  37  38
 324 prop tor  36  37  38  39
 325 prop tor  36  37  38  69
 326 ben  36  37  68
 327 ben  36  43  42
 328 ben  37  36  43
 329 prop tor  37  36  43  10
 330 prop tor  37  36  43  42
 331 ben  37  38  39
 332 prop tor  37  38  39  40
 333 prop tor  37  38  39  42
 334 ben  37  38  69
 335 ben  38  37  68
 336 ben  38  39  40
 337 prop tor  38  39  40   4
 338 prop tor  38  39  40  41
 339 ben  38  39  42
 340 prop tor  38  39  42   7
 341 prop tor  38  39  42  43
 342 ben  39  38  69
 343 ben  39  40  41
 344 ben  39  42  43
 345 prop tor  39  42  43  10
 346 prop tor  39  42  43  36
 347 prop tor  40   4   5   6
 348 prop tor  40   4   5   7
 349 ben  40  39  42
 350 prop tor  40  39  42   7
 351 prop tor  40  39  42  43
 352 prop tor  42   7   8   9
 353 prop tor  42   7   8  53
 354 prop tor  42  39  40   4
 355 prop tor  42  39  40  41
 356 prop tor  43  10  11  12
 357 prop tor  43  10  11  44
 358 prop tor  43  36  37  38
 359 prop tor  43  36  37  68
 360 prop tor  44  11  12  13
 361 prop tor  44  11  12  55
 362 prop tor  44  35  36  37
 363 prop tor  44  35  36  43
 364 prop tor  45  14  15  16
 365 prop tor  45  14  15  17
 366 prop tor  45  32  33  34
 367 prop tor  45  32  33  66
 368 prop tor  46   1   2   3
 369 prop tor  46   1   2   4
 370 prop tor  46   1   2  49
 371 ben  46   1  47
 372 ben  46   1  48
 373 prop tor  47   1   2   3
 374 prop tor  47   1   2   4
 375 prop tor  47   1   2  49
 376 ben  47   1  48
 377 prop tor  48   1   2   3
 378 prop tor  48   1   2   4
 379 prop tor  48   1   2  49
 380 prop tor  49   2   3  50
 381 prop tor  49   2   3  51
 382 prop tor  49   2   3  52
 383 prop tor  49   2   4   5
 384 prop tor  49   2   4  40
 385 ben  50   3  51
 386 ben  50   3  52
 387 ben  51   3  52
 388 prop tor  53   8   9  10
 389 prop tor  53   8   9  54
 390 prop tor  54   9  10  11
 391 prop tor  54   9  10  43
 392 prop tor  55  12  13  14
 393 prop tor  55  12  13  56
 394 prop tor  56  13  14  15
 395 prop tor  56  13  14  45
 396 prop tor  57  19  20  21
 397 prop tor  57  19  20  58
 398 prop tor  58  20  21  22
 399 prop tor  58  20  21  28
 400 prop tor  59  23  24  25
 401 prop tor  59  23  24  60
 402 prop tor  60  24  25  26
 403 prop tor  60  24  25  61
 404 prop tor  61  25  26  27
 405 prop tor  61  25  26  62
 406 prop tor  62  26  27  22
 407 prop tor  62  26  27  63
 408 prop tor  64  28  29  18
 409 prop tor  64  28  29  65
 410 prop tor  66  33  34  35
 411 prop tor  66  33  34  67
 412 prop tor  67  34  35  36
 413 prop tor  67  34  35  44
 414 prop tor  68  37  38  39
 415 prop tor  68  37  38  69
 416 prop tor  69  38  39  40
 417 prop tor  69  38  39  42
 nber bend=             132
 nber lin bend=           0
 nber prop tor=         208
 nber impr tor=           0
 nber tot redund int=         417
 Eigenvalues of G in red int coords
    Gval -0.00000000 -0.00000000 -0.00000000 -0.00000000 -0.00000000 -0.00000000 -0.00000000 -0.00000000
    Gval -0.00000000 -0.00000000 -0.00000000 -0.00000000 -0.00000000 -0.00000000 -0.00000000 -0.00000000
    Gval -0.00000000 -0.00000000 -0.00000000 -0.00000000 -0.00000000 -0.00000000 -0.00000000 -0.00000000
    Gval -0.00000000 -0.00000000 -0.00000000 -0.00000000 -0.00000000 -0.00000000 -0.00000000 -0.00000000
    Gval -0.00000000 -0.00000000 -0.00000000 -0.00000000 -0.00000000 -0.00000000 -0.00000000 -0.00000000
    Gval -0.00000000 -0.00000000 -0.00000000 -0.00000000 -0.00000000 -0.00000000 -0.00000000 -0.00000000
    Gval -0.00000000 -0.00000000 -0.00000000 -0.00000000 -0.00000000 -0.00000000 -0.00000000 -0.00000000
    Gval -0.00000000 -0.00000000 -0.00000000 -0.00000000 -0.00000000 -0.00000000 -0.00000000 -0.00000000
    Gval -0.00000000 -0.00000000 -0.00000000 -0.00000000 -0.00000000 -0.00000000 -0.00000000 -0.00000000
    Gval -0.00000000 -0.00000000 -0.00000000 -0.00000000 -0.00000000 -0.00000000 -0.00000000 -0.00000000
    Gval -0.00000000 -0.00000000 -0.00000000 -0.00000000 -0.00000000 -0.00000000 -0.00000000 -0.00000000
    Gval -0.00000000 -0.00000000 -0.00000000 -0.00000000 -0.00000000 -0.00000000 -0.00000000 -0.00000000
    Gval -0.00000000 -0.00000000 -0.00000000 -0.00000000 -0.00000000 -0.00000000 -0.00000000 -0.00000000
    Gval -0.00000000 -0.00000000  0.00000000  0.00000000  0.00000000  0.00000000  0.00000000  0.00000000
    Gval  0.00000000  0.00000000  0.00000000  0.00000000  0.00000000  0.00000000  0.00000000  0.00000000
    Gval  0.00000000  0.00000000  0.00000000  0.00000000  0.00000000  0.00000000  0.00000000  0.00000000
    Gval  0.00000000  0.00000000  0.00000000  0.00000000  0.00000000  0.00000000  0.00000000  0.00000000
    Gval  0.00000000  0.00000000  0.00000000  0.00000000  0.00000000  0.00000000  0.00000000  0.00000000
    Gval  0.00000000  0.00000000  0.00000000  0.00000000  0.00000000  0.00000000  0.00000000  0.00000000
    Gval  0.00000000  0.00000000  0.00000000  0.00000000  0.00000000  0.00000000  0.00000000  0.00000000
    Gval  0.00000000  0.00000000  0.00000000  0.00000000  0.00000000  0.00000000  0.00000000  0.00000000
    Gval  0.00000000  0.00000000  0.00000000  0.00000000  0.00000000  0.00000000  0.00000000  0.00000000
    Gval  0.00000000  0.00000000  0.00000000  0.00000000  0.00000000  0.00000000  0.00000000  0.00000000
    Gval  0.00000000  0.00000000  0.00000000  0.00000000  0.00000000  0.00000000  0.00000000  0.00000000
    Gval  0.00000000  0.00000000  0.00000000  0.00000000  0.00000000  0.00000000  0.00000000  0.00000000
    Gval  0.00000000  0.00000000  0.00000000  0.00000000  0.00000000  0.00000000  0.00000000  0.00000000
    Gval  0.00000000  0.00000000  0.00000000  0.00000000  0.00000000  0.00000000  0.00000000  0.00000000
    Gval  0.00000022  0.00000040  0.00000123  0.00000153  0.00000279  0.00000390  0.00000476  0.00000621
    Gval  0.00000644  0.00000869  0.00001067  0.00001119  0.00001162  0.00001498  0.00001514  0.00001608
    Gval  0.00001653  0.00001800  0.00001832  0.00001897  0.00002168  0.00002177  0.00002408  0.00002494
    Gval  0.00002555  0.00002892  0.00003002  0.00003460  0.00003629  0.00003993  0.00004383  0.00004898
    Gval  0.00004907  0.00005051  0.00005238  0.00005327  0.00005385  0.00005697  0.00005722  0.00005871
    Gval  0.00006240  0.00006556  0.00006581  0.00006815  0.00006962  0.00007284  0.00007512  0.00008138
    Gval  0.00008252  0.00008528  0.00008831  0.00008875  0.00008891  0.00009322  0.00009490  0.00009897
    Gval  0.00010547  0.00011703  0.00011836  0.00012102  0.00012258  0.00012303  0.00013442  0.00013626
    Gval  0.00013714  0.00013956  0.00014305  0.00015220  0.00015874  0.00016064  0.00017177  0.00017543
    Gval  0.00018087  0.00020167  0.00022267  0.00022580  0.00022998  0.00023317  0.00024168  0.00026277
    Gval  0.00027168  0.00028443  0.00029022  0.00029360  0.00029506  0.00030131  0.00034122  0.00035772
    Gval  0.00036116  0.00036360  0.00037963  0.00038191  0.00038447  0.00039274  0.00039383  0.00039867
    Gval  0.00042337  0.00042824  0.00043167  0.00043506  0.00044117  0.00044303  0.00045973  0.00046229
    Gval  0.00046758  0.00047346  0.00048045  0.00049463  0.00051794  0.00053422  0.00053697  0.00054314
    Gval  0.00055471  0.00055601  0.00055613  0.00056761  0.00057286  0.00059305  0.00059352  0.00059850
    Gval  0.00059859  0.00059934  0.00059963  0.00059993  0.00060036  0.00060216  0.00060438  0.00062347
    Gval  0.00063079  0.00063849  0.00064149  0.00064505  0.00064571  0.00064761  0.00065011  0.00066060
    Gval  0.00067169  0.00069467  0.00069881  0.00073474  0.00079935  0.00081829  0.00093185  0.00099276
    Gval  0.00100055  0.00104245  0.00107878  0.00109505  0.00109603  0.00109675  0.00109730  0.00110973
    Gval  0.00111210  0.00113864  0.00113975  0.00115668  0.00116363  0.00116392  0.00116416  0.00116450
    Gval  0.00117289  0.00117319  0.00117499  0.00117521  0.00117565  0.00120364  0.00126498  0.00129970
    Gval  0.00136803  0.00142890  0.00148764  0.00154170  0.00164864  0.00171873  0.00177696  0.00189666
    Gval  0.00192787  0.00229317  0.00234213  0.00235053  0.00236115  0.00248745  0.00253572  0.00253786
    Gval  0.00256572  0.00279515  0.00291793  0.00302484  0.00304136  0.00307986  0.00310266  0.00312787
    Gval  0.00364895  0.00366280  0.00366463  0.00371100  0.00371262  0.00373890  0.00375661  0.00396100
    Gval  0.00406663
  2.240239389749426E-007  2.240239389749426E-007
  4.040180797261137E-007  2.240239389749426E-007
  1.233143655121152E-006  2.240239389749426E-007
  1.534303697361788E-006  2.240239389749426E-007
  2.788643444794240E-006  2.240239389749426E-007
  3.902311840924349E-006  2.240239389749426E-007
  4.759081211534620E-006  2.240239389749426E-007
  6.211400861434607E-006  2.240239389749426E-007
  6.439317918266595E-006  2.240239389749426E-007
  8.694555422713610E-006  2.240239389749426E-007
  1.067167823896947E-005  2.240239389749426E-007
  1.118724100559295E-005  2.240239389749426E-007
  1.161823008769367E-005  2.240239389749426E-007
  1.497681757960396E-005  2.240239389749426E-007
  1.514138252620919E-005  2.240239389749426E-007
  1.608220608809978E-005  2.240239389749426E-007
  1.652828168918852E-005  2.240239389749426E-007
  1.800069691791480E-005  2.240239389749426E-007
  1.832033928548462E-005  2.240239389749426E-007
  1.896740994774021E-005  2.240239389749426E-007
  2.168051974762632E-005  2.240239389749426E-007
  2.177124048914477E-005  2.240239389749426E-007
  2.408022903505184E-005  2.240239389749426E-007
  2.493581733349537E-005  2.240239389749426E-007
  2.555476186476288E-005  2.240239389749426E-007
  2.892101635560859E-005  2.240239389749426E-007
  3.001572924353308E-005  2.240239389749426E-007
  3.459810073164474E-005  2.240239389749426E-007
  3.629398388866891E-005  2.240239389749426E-007
  3.992616008807290E-005  2.240239389749426E-007
  4.383245269765802E-005  2.240239389749426E-007
  4.898175467762047E-005  2.240239389749426E-007
  4.906548284985342E-005  2.240239389749426E-007
  5.051282480586233E-005  2.240239389749426E-007
  5.237534845580732E-005  2.240239389749426E-007
  5.327494176909117E-005  2.240239389749426E-007
  5.384825445536506E-005  2.240239389749426E-007
  5.696683208758034E-005  2.240239389749426E-007
  5.721840094439207E-005  2.240239389749426E-007
  5.871101316518255E-005  2.240239389749426E-007
  6.240006609613311E-005  2.240239389749426E-007
  6.556213906152452E-005  2.240239389749426E-007
  6.581203413225979E-005  2.240239389749426E-007
  6.815280054581355E-005  2.240239389749426E-007
  6.962314734316266E-005  2.240239389749426E-007
  7.284286806981607E-005  2.240239389749426E-007
  7.512371372492899E-005  2.240239389749426E-007
  8.138180498979696E-005  2.240239389749426E-007
  8.252407717352884E-005  2.240239389749426E-007
  8.527963773910880E-005  2.240239389749426E-007
  8.831234958873051E-005  2.240239389749426E-007
  8.875445120030842E-005  2.240239389749426E-007
  8.891305328425050E-005  2.240239389749426E-007
  9.321624815147408E-005  2.240239389749426E-007
  9.489579903216010E-005  2.240239389749426E-007
  9.897217262714241E-005  2.240239389749426E-007
  1.054682079169349E-004  2.240239389749426E-007
  1.170342610025019E-004  2.240239389749426E-007
  1.183555487145955E-004  2.240239389749426E-007
  1.210231539228792E-004  2.240239389749426E-007
  1.225816964885872E-004  2.240239389749426E-007
  1.230300764633523E-004  2.240239389749426E-007
  1.344213904396274E-004  2.240239389749426E-007
  1.362638703047308E-004  2.240239389749426E-007
  1.371417530429806E-004  2.240239389749426E-007
  1.395597828876694E-004  2.240239389749426E-007
  1.430470817666152E-004  2.240239389749426E-007
  1.522026432776672E-004  2.240239389749426E-007
  1.587438483976542E-004  2.240239389749426E-007
  1.606355502985772E-004  2.240239389749426E-007
  1.717695541933574E-004  2.240239389749426E-007
  1.754306945901747E-004  2.240239389749426E-007
  1.808712043143816E-004  2.240239389749426E-007
  2.016723787325901E-004  2.240239389749426E-007
  2.226663785012387E-004  2.240239389749426E-007
  2.258031894845422E-004  2.240239389749426E-007
  2.299762634100929E-004  2.240239389749426E-007
  2.331677740415081E-004  2.240239389749426E-007
  2.416807181632287E-004  2.240239389749426E-007
  2.627658949338059E-004  2.240239389749426E-007
  2.716756141732523E-004  2.240239389749426E-007
  2.844308537035852E-004  2.240239389749426E-007
  2.902195512040841E-004  2.240239389749426E-007
  2.935993646256482E-004  2.240239389749426E-007
  2.950633078842009E-004  2.240239389749426E-007
  3.013123309694996E-004  2.240239389749426E-007
  3.412213246697591E-004  2.240239389749426E-007
  3.577221723659912E-004  2.240239389749426E-007
  3.611637755675673E-004  2.240239389749426E-007
  3.635976066518782E-004  2.240239389749426E-007
  3.796255318105327E-004  2.240239389749426E-007
  3.819131706236352E-004  2.240239389749426E-007
  3.844701009601095E-004  2.240239389749426E-007
  3.927443377884703E-004  2.240239389749426E-007
  3.938345359320289E-004  2.240239389749426E-007
  3.986653640935600E-004  2.240239389749426E-007
  4.233683169001691E-004  2.240239389749426E-007
  4.282386069723385E-004  2.240239389749426E-007
  4.316691341669648E-004  2.240239389749426E-007
  4.350634130949652E-004  2.240239389749426E-007
  4.411664144639268E-004  2.240239389749426E-007
  4.430269579373737E-004  2.240239389749426E-007
  4.597285120007422E-004  2.240239389749426E-007
  4.622906436527958E-004  2.240239389749426E-007
  4.675819203450898E-004  2.240239389749426E-007
  4.734608013732313E-004  2.240239389749426E-007
  4.804498172974361E-004  2.240239389749426E-007
  4.946328018672168E-004  2.240239389749426E-007
  5.179402545100693E-004  2.240239389749426E-007
  5.342212446919756E-004  2.240239389749426E-007
  5.369723972356826E-004  2.240239389749426E-007
  5.431365996277045E-004  2.240239389749426E-007
  5.547065158578690E-004  2.240239389749426E-007
  5.560145734325006E-004  2.240239389749426E-007
  5.561332200014342E-004  2.240239389749426E-007
  5.676071871037700E-004  2.240239389749426E-007
  5.728637988072772E-004  2.240239389749426E-007
  5.930510465223513E-004  2.240239389749426E-007
  5.935201997960080E-004  2.240239389749426E-007
  5.985016096030002E-004  2.240239389749426E-007
  5.985901483057485E-004  2.240239389749426E-007
  5.993438055236378E-004  2.240239389749426E-007
  5.996293977696258E-004  2.240239389749426E-007
  5.999336505330019E-004  2.240239389749426E-007
  6.003576957966892E-004  2.240239389749426E-007
  6.021627550390493E-004  2.240239389749426E-007
  6.043769626269015E-004  2.240239389749426E-007
  6.234657723798233E-004  2.240239389749426E-007
  6.307887924688032E-004  2.240239389749426E-007
  6.384897599694527E-004  2.240239389749426E-007
  6.414850233863746E-004  2.240239389749426E-007
  6.450492331075839E-004  2.240239389749426E-007
  6.457139027677413E-004  2.240239389749426E-007
  6.476124928368168E-004  2.240239389749426E-007
  6.501074033447635E-004  2.240239389749426E-007
  6.606015002761121E-004  2.240239389749426E-007
  6.716889397901194E-004  2.240239389749426E-007
  6.946650394786241E-004  2.240239389749426E-007
  6.988124775808279E-004  2.240239389749426E-007
  7.347414721646237E-004  2.240239389749426E-007
  7.993466527251442E-004  2.240239389749426E-007
  8.182913454614540E-004  2.240239389749426E-007
  9.318523975225232E-004  2.240239389749426E-007
  9.927648843484392E-004  2.240239389749426E-007
  1.000552368933573E-003  2.240239389749426E-007
  1.042446017946216E-003  2.240239389749426E-007
  1.078776844803339E-003  2.240239389749426E-007
  1.095047762833177E-003  2.240239389749426E-007
  1.096027112995419E-003  2.240239389749426E-007
  1.096748968675681E-003  2.240239389749426E-007
  1.097301958990394E-003  2.240239389749426E-007
  1.109726389476068E-003  2.240239389749426E-007
  1.112104257047358E-003  2.240239389749426E-007
  1.138642621756005E-003  2.240239389749426E-007
  1.139750393162696E-003  2.240239389749426E-007
  1.156677439817852E-003  2.240239389749426E-007
  1.163628334290805E-003  2.240239389749426E-007
  1.163915389479076E-003  2.240239389749426E-007
  1.164157650225756E-003  2.240239389749426E-007
  1.164500444152039E-003  2.240239389749426E-007
  1.172888344483400E-003  2.240239389749426E-007
  1.173188062248658E-003  2.240239389749426E-007
  1.174991363814538E-003  2.240239389749426E-007
  1.175205436812737E-003  2.240239389749426E-007
  1.175647485644365E-003  2.240239389749426E-007
  1.203641806373727E-003  2.240239389749426E-007
  1.264977234424578E-003  2.240239389749426E-007
  1.299703922770243E-003  2.240239389749426E-007
  1.368025130608131E-003  2.240239389749426E-007
  1.428901293093081E-003  2.240239389749426E-007
  1.487640441545099E-003  2.240239389749426E-007
  1.541695726332428E-003  2.240239389749426E-007
  1.648640044689661E-003  2.240239389749426E-007
  1.718725239874671E-003  2.240239389749426E-007
  1.776959843954572E-003  2.240239389749426E-007
  1.896664114457205E-003  2.240239389749426E-007
  1.927870517691884E-003  2.240239389749426E-007
  2.293169518589820E-003  2.240239389749426E-007
  2.342129380291328E-003  2.240239389749426E-007
  2.350529506869420E-003  2.240239389749426E-007
  2.361154617864322E-003  2.240239389749426E-007
  2.487446323546477E-003  2.240239389749426E-007
  2.535717699865052E-003  2.240239389749426E-007
  2.537863731692570E-003  2.240239389749426E-007
  2.565718720099381E-003  2.240239389749426E-007
  2.795151387789894E-003  2.240239389749426E-007
  2.917929030769899E-003  2.240239389749426E-007
  3.024844367503888E-003  2.240239389749426E-007
  3.041359162164227E-003  2.240239389749426E-007
  3.079861461212925E-003  2.240239389749426E-007
  3.102657379402783E-003  2.240239389749426E-007
  3.127869069534442E-003  2.240239389749426E-007
  3.648948230891076E-003  2.240239389749426E-007
  3.662797734966279E-003  2.240239389749426E-007
  3.664631726891205E-003  2.240239389749426E-007
  3.711000618544506E-003  2.240239389749426E-007
  3.712620962507547E-003  2.240239389749426E-007
  3.738904811784284E-003  2.240239389749426E-007
  3.756610232685531E-003  2.240239389749426E-007
  3.961003333613307E-003  2.240239389749426E-007
  4.066632278038636E-003  2.240239389749426E-007
 cut=1d-8, nber non-redundant internal coords=         201
 Check on Eigenvals of non-red overlap matrix:
  0.00000022  0.00000040  0.00000123  0.00000153  0.00000279  0.00000390  0.00000476  0.00000621
  0.00000644  0.00000869  0.00001067  0.00001119  0.00001162  0.00001498  0.00001514  0.00001608
  0.00001653  0.00001800  0.00001832  0.00001897  0.00002168  0.00002177  0.00002408  0.00002494
  0.00002555  0.00002892  0.00003002  0.00003460  0.00003629  0.00003993  0.00004383  0.00004898
  0.00004907  0.00005051  0.00005238  0.00005327  0.00005385  0.00005697  0.00005722  0.00005871
  0.00006240  0.00006556  0.00006581  0.00006815  0.00006962  0.00007284  0.00007512  0.00008138
  0.00008252  0.00008528  0.00008831  0.00008875  0.00008891  0.00009322  0.00009490  0.00009897
  0.00010547  0.00011703  0.00011836  0.00012102  0.00012258  0.00012303  0.00013442  0.00013626
  0.00013714  0.00013956  0.00014305  0.00015220  0.00015874  0.00016064  0.00017177  0.00017543
  0.00018087  0.00020167  0.00022267  0.00022580  0.00022998  0.00023317  0.00024168  0.00026277
  0.00027168  0.00028443  0.00029022  0.00029360  0.00029506  0.00030131  0.00034122  0.00035772
  0.00036116  0.00036360  0.00037963  0.00038191  0.00038447  0.00039274  0.00039383  0.00039867
  0.00042337  0.00042824  0.00043167  0.00043506  0.00044117  0.00044303  0.00045973  0.00046229
  0.00046758  0.00047346  0.00048045  0.00049463  0.00051794  0.00053422  0.00053697  0.00054314
  0.00055471  0.00055601  0.00055613  0.00056761  0.00057286  0.00059305  0.00059352  0.00059850
  0.00059859  0.00059934  0.00059963  0.00059993  0.00060036  0.00060216  0.00060438  0.00062347
  0.00063079  0.00063849  0.00064149  0.00064505  0.00064571  0.00064761  0.00065011  0.00066060
  0.00067169  0.00069467  0.00069881  0.00073474  0.00079935  0.00081829  0.00093185  0.00099276
  0.00100055  0.00104245  0.00107878  0.00109505  0.00109603  0.00109675  0.00109730  0.00110973
  0.00111210  0.00113864  0.00113975  0.00115668  0.00116363  0.00116392  0.00116416  0.00116450
  0.00117289  0.00117319  0.00117499  0.00117521  0.00117565  0.00120364  0.00126498  0.00129970
  0.00136803  0.00142890  0.00148764  0.00154170  0.00164864  0.00171873  0.00177696  0.00189666
  0.00192787  0.00229317  0.00234213  0.00235053  0.00236115  0.00248745  0.00253572  0.00253786
  0.00256572  0.00279515  0.00291793  0.00302484  0.00304136  0.00307986  0.00310266  0.00312787
  0.00364895  0.00366280  0.00366463  0.00371100  0.00371262  0.00373890  0.00375661  0.00396100
  0.00406663
 Checking for correct frequencies
 recalc frequencies=
    -0.0   -0.0   -0.0    0.0    0.0    0.0   11.0   20.6   21.6   31.3
    33.7   52.5   58.0   70.9   74.7   75.6   87.7   95.4  104.7  122.0
   127.4  152.9  163.8  179.3  185.0  198.8  212.6  222.3  235.3  238.1
   241.3  264.4  280.1  292.5  311.8  324.7  334.6  359.0  372.8  388.5
   394.1  400.7  412.8  415.3  429.1  433.4  434.7  437.2  441.3  446.7
   466.3  471.8  478.7  480.3  505.5  508.3  518.4  527.2  549.3  562.3
   574.5  581.4  586.7  616.7  617.6  622.1  635.6  640.5  649.0  665.0
   690.7  708.6  712.5  718.2  719.8  730.0  743.1  747.9  758.5  768.9
   776.6  783.5  792.0  802.2  812.3  819.3  824.7  833.5  844.9  850.4
   857.3  868.8  870.1  872.6  875.1  905.2  921.3  947.5  949.0  958.0
   966.7  974.6  978.3  983.4  995.9 1005.3 1006.4 1007.6 1014.3 1016.5
  1017.6 1020.6 1030.0 1050.7 1064.4 1084.4 1103.5 1114.5 1145.1 1156.1
  1156.6 1157.7 1166.6 1167.7 1187.5 1191.3 1194.7 1204.8 1209.4 1209.9
  1213.5 1223.1 1238.1 1258.3 1262.3 1277.9 1288.1 1297.6 1313.2 1320.5
  1322.9 1339.2 1339.6 1344.4 1352.4 1365.7 1371.4 1376.2 1378.3 1388.0
  1405.2 1410.3 1412.8 1422.9 1440.7 1444.7 1454.3 1482.7 1485.0 1485.7
  1486.2 1493.7 1500.0 1503.5 1509.3 1521.3 1532.5 1538.8 1561.3 1564.1
  1574.6 1584.5 1588.2 1603.2 1611.7 1612.5 1615.2 1627.0 1631.0 1714.6
  1728.1 1758.8 1763.4 3040.7 3044.1 3100.5 3103.7 3117.5 3134.9 3146.1
  3178.1 3184.0 3190.6 3195.4 3197.9 3201.2 3202.5 3202.9 3204.4 3208.4
  3208.5 3212.3 3215.1 3215.2 3218.2 3226.3 3227.0
 recalc symmetries=
                                                                       
                                                                       
                                                                       
                                                                       
                                                                       
                                                                       
                                                                       
                                                                       
                                                                       
                                                                       
                                                                       
                                                                       
                                                                       
                                                                       
                                                                       
                                                                       
                                                                       
                                                                       
                                                                       
                                                                       
                                                  
 recalc freqs check OK
 Zero-point lengths:
 10.0000 10.0000 10.0000 10.0000 10.0000 10.0000 74.7703 54.6853 53.3909 44.3227
 42.7281 34.2167 32.5546 29.4321 28.6854 28.5203 26.4702 25.3862 24.2241 22.4406
 21.9635 20.0500 19.3687 18.5155 18.2255 17.5850 17.0018 16.6278 16.1626 16.0647
 15.9608 15.2462 14.8137 14.4960 14.0404 13.7576 13.5532 13.0837 12.8406 12.5771
 12.4880 12.3854 12.2013 12.1650 11.9676 11.9079 11.8910 11.8561 11.8017 11.7291
 11.4800 11.4134 11.3315 11.3118 11.0270 10.9963 10.8882 10.7966 10.5777 10.4549
 10.3427 10.2817 10.2350  9.9833  9.9760  9.9399  9.8337  9.7958  9.7316  9.6138
  9.4331  9.3129  9.2876  9.2507  9.2404  9.1759  9.0946  9.0650  9.0015  8.9405
  8.8963  8.8567  8.8094  8.7528  8.6984  8.6612  8.6329  8.5873  8.5289  8.5014
  8.4671  8.4109  8.4043  8.3924  8.3804  8.2398  8.1677  8.0537  8.0474  8.0095
  7.9734  7.9411  7.9259  7.9053  7.8556  7.8191  7.8146  7.8101  7.7843  7.7758
  7.7716  7.7601  7.7245  7.6482  7.5986  7.5283  7.4630  7.4261  7.3261  7.2913
  7.2896  7.2860  7.2583  7.2550  7.1941  7.1827  7.1724  7.1424  7.1286  7.1273
  7.1166  7.0887  7.0455  6.9888  6.9779  6.9351  6.9075  6.8821  6.8411  6.8224
  6.8160  6.7745  6.7734  6.7612  6.7414  6.7085  6.6944  6.6828  6.6777  6.6543
  6.6133  6.6014  6.5956  6.5721  6.5315  6.5225  6.5007  6.4382  6.4332  6.4318
  6.4307  6.4145  6.4010  6.3935  6.3813  6.3560  6.3329  6.3197  6.2740  6.2686
  6.2475  6.2281  6.2208  6.1915  6.1753  6.1738  6.1685  6.1461  6.1387  5.9871
  5.9636  5.9114  5.9036  4.4958  4.4933  4.4523  4.4500  4.4401  4.4277  4.4199
  4.3975  4.3935  4.3890  4.3856  4.3839  4.3817  4.3808  4.3805  4.3794  4.3767
  4.3767  4.3741  4.3722  4.3721  4.3701  4.3646  4.3641
 highest evec of mol 1
  0.0000  0.0000 -0.0000
  0.0000 -0.0000  0.0001
 -0.0000  0.0000  0.0000
 -0.0001 -0.0001 -0.0002
 -0.0000  0.0001 -0.0000
  0.0000 -0.0001  0.0000
  0.0000 -0.0003  0.0001
  0.0005  0.0044  0.0016
 -0.0021  0.0079 -0.0058
 -0.0001 -0.0003 -0.0003
  0.0001 -0.0002  0.0004
  0.0009  0.0108  0.0030
 -0.0012  0.0035 -0.0032
 -0.0000 -0.0002 -0.0000
  0.0000  0.0002  0.0000
  0.0000 -0.0001  0.0000
  0.0001 -0.0000  0.0002
  0.0000 -0.0001 -0.0000
  0.0002 -0.0001  0.0000
  0.0002 -0.0001 -0.0001
 -0.0000 -0.0000 -0.0001
  0.0000  0.0000  0.0001
  0.0001 -0.0002  0.0001
  0.0001 -0.0002 -0.0001
 -0.0001 -0.0000 -0.0002
 -0.0001  0.0002 -0.0000
 -0.0001  0.0002  0.0001
 -0.0003  0.0001 -0.0001
 -0.0002  0.0002  0.0002
 -0.0001 -0.0009 -0.0003
 -0.0001  0.0004 -0.0001
 -0.0008  0.0027 -0.0023
 -0.0094 -0.0668 -0.0282
  0.0443 -0.1576  0.1231
  0.0009  0.0042  0.0025
 -0.0011  0.0021 -0.0032
 -0.0151 -0.1679 -0.0490
  0.0163 -0.0452  0.0445
  0.0003  0.0029  0.0009
  0.0002 -0.0007  0.0006
 -0.0000  0.0004 -0.0000
  0.0000  0.0004  0.0000
 -0.0001  0.0013 -0.0001
 -0.0002  0.0014 -0.0004
 -0.0001  0.0004 -0.0002
 -0.0000 -0.0000 -0.0001
  0.0000 -0.0000  0.0000
 -0.0000 -0.0000  0.0001
 -0.0000 -0.0000 -0.0001
 -0.0000 -0.0000  0.0000
 -0.0000 -0.0000 -0.0001
  0.0001 -0.0000  0.0000
 -0.0016 -0.0141 -0.0049
  0.0074 -0.0261  0.0201
 -0.0031 -0.0364 -0.0107
  0.0037 -0.0115  0.0098
 -0.0005  0.0002 -0.0001
 -0.0004  0.0004  0.0005
 -0.0004  0.0005 -0.0003
 -0.0002  0.0006  0.0003
  0.0002  0.0001  0.0004
  0.0004 -0.0004  0.0003
  0.0002 -0.0006 -0.0003
  0.0008 -0.0003  0.0002
  0.0005 -0.0005 -0.0007
  0.0243  0.2145  0.0737
 -0.1486  0.5287 -0.4122
  0.0513  0.5644  0.1655
 -0.0480  0.1512 -0.1300
 generating redundant internal coords
         300        3600          69
 Adding extra bonds for z output only
           6           6           6           7           6           8
           6           6           6           6           6           6
           6           6           6           8           7           6
           6           6           6           6           6           6
           6           6           6           6           6           6
           8           6           6           6           6           6
           6           6           6           6           8           6
           6           6           6           1           1           1
           1           1           1           1           1           1
           1           1           1           1           1           1
           1           1           1           1           1           1
           1           1           1
 search for int coords
   1 str   2   1   1.531
   2 str   3   2   1.531
   3 str   4   2   1.507
   4 str   5   4   1.402
   5 str   6   5   1.214
   6 str   7   5   1.494
   7 str   8   7   1.387
   8 str   9   8   1.392
   9 str  10   9   1.404
  10 str  11  10   1.458
  11 str  12  11   1.403
  12 str  13  12   1.391
  13 str  14  13   1.387
  14 str  15  14   1.486
  15 str  16  15   1.211
  16 str  17  15   1.415
  17 str  18  17   1.440
  18 str  19  18   1.398
  19 str  20  19   1.383
  20 str  21  20   1.413
  21 str  22  21   1.467
  22 str  23  22   1.413
  23 str  24  23   1.385
  24 str  25  24   1.398
  25 str  26  25   1.398
  26 str  27  22   1.413
  27 str  27  26   1.385
  28 str  28  21   1.411
  29 str  29  18   1.399
  30 str  29  28   1.382
  31 str  30  17   1.414
  32 str  31  30   1.211
  33 str  32  30   1.484
  34 str  33  32   1.389
  35 str  34  33   1.389
  36 str  35  34   1.406
  37 str  36  35   1.456
  38 str  37  36   1.405
  39 str  38  37   1.391
  40 str  39  38   1.387
  41 str  40   4   1.395
  42 str  40  39   1.495
  43 str  41  40   1.215
  44 str  42   7   1.409
  45 str  42  39   1.409
  46 str  43  10   1.425
  47 str  43  36   1.426
  48 str  43  42   1.425
  49 str  44  11   1.428
  50 str  44  35   1.427
  51 str  45  14   1.410
  52 str  45  32   1.414
  53 str  45  44   1.427
  54 str  46   1   1.093
  55 str  47   1   1.089
  56 str  48   1   1.093
  57 str  49   2   1.087
  58 str  50   3   1.089
  59 str  51   3   1.093
  60 str  52   3   1.093
  61 str  53   8   1.082
  62 str  54   9   1.081
  63 str  55  12   1.081
  64 str  56  13   1.082
  65 str  57  19   1.081
  66 str  58  20   1.082
  67 str  59  23   1.083
  68 str  60  24   1.083
  69 str  61  25   1.084
  70 str  62  26   1.083
  71 str  63  27   1.083
  72 str  64  28   1.082
  73 str  65  29   1.082
  74 str  66  33   1.083
  75 str  67  34   1.081
  76 str  68  37   1.081
  77 str  69  38   1.082
 nber stretches=          77
  78 ben   1   2   3
  79 prop tor   1   2   3  50
  80 prop tor   1   2   3  51
  81 prop tor   1   2   3  52
  82 ben   1   2   4
  83 prop tor   1   2   4   5
  84 prop tor   1   2   4  40
  85 ben   1   2  49
  86 ben   2   1  46
  87 ben   2   1  47
  88 ben   2   1  48
  89 ben   2   3  50
  90 ben   2   3  51
  91 ben   2   3  52
  92 ben   2   4   5
  93 prop tor   2   4   5   6
  94 prop tor   2   4   5   7
  95 ben   2   4  40
  96 prop tor   2   4  40  39
  97 prop tor   2   4  40  41
  98 ben   3   2   4
  99 prop tor   3   2   4   5
 100 prop tor   3   2   4  40
 101 ben   3   2  49
 102 prop tor   4   2   3  50
 103 prop tor   4   2   3  51
 104 prop tor   4   2   3  52
 105 ben   4   2  49
 106 ben   4   5   6
 107 ben   4   5   7
 108 prop tor   4   5   7   8
 109 prop tor   4   5   7  42
 110 ben   4  40  39
 111 ben   4  40  41
 112 ben   5   4  40
 113 prop tor   5   4  40  39
 114 prop tor   5   4  40  41
 115 ben   5   7   8
 116 prop tor   5   7   8   9
 117 prop tor   5   7   8  53
 118 ben   5   7  42
 119 prop tor   5   7  42  39
 120 prop tor   5   7  42  43
 121 ben   6   5   7
 122 prop tor   6   5   7   8
 123 prop tor   6   5   7  42
 124 ben   7   8   9
 125 prop tor   7   8   9  10
 126 prop tor   7   8   9  54
 127 ben   7   8  53
 128 ben   7  42  39
 129 ben   7  42  43
 130 prop tor   7  42  43  10
 131 prop tor   7  42  43  36
 132 ben   8   7  42
 133 prop tor   8   7  42  39
 134 prop tor   8   7  42  43
 135 ben   8   9  10
 136 prop tor   8   9  10  11
 137 prop tor   8   9  10  43
 138 ben   8   9  54
 139 ben   9   8  53
 140 ben   9  10  11
 141 prop tor   9  10  11  12
 142 prop tor   9  10  11  44
 143 ben   9  10  43
 144 prop tor   9  10  43  36
 145 prop tor   9  10  43  42
 146 ben  10   9  54
 147 ben  10  11  12
 148 prop tor  10  11  12  13
 149 prop tor  10  11  12  55
 150 ben  10  11  44
 151 prop tor  10  11  44  35
 152 prop tor  10  11  44  45
 153 ben  10  43  36
 154 ben  10  43  42
 155 ben  11  10  43
 156 prop tor  11  10  43  36
 157 prop tor  11  10  43  42
 158 ben  11  12  13
 159 prop tor  11  12  13  14
 160 prop tor  11  12  13  56
 161 ben  11  12  55
 162 ben  11  44  35
 163 ben  11  44  45
 164 prop tor  11  44  45  14
 165 prop tor  11  44  45  32
 166 ben  12  11  44
 167 prop tor  12  11  44  35
 168 prop tor  12  11  44  45
 169 ben  12  13  14
 170 prop tor  12  13  14  15
 171 prop tor  12  13  14  45
 172 ben  12  13  56
 173 ben  13  12  55
 174 ben  13  14  15
 175 prop tor  13  14  15  16
 176 prop tor  13  14  15  17
 177 ben  13  14  45
 178 prop tor  13  14  45  32
 179 prop tor  13  14  45  44
 180 ben  14  13  56
 181 ben  14  15  16
 182 ben  14  15  17
 183 prop tor  14  15  17  18
 184 prop tor  14  15  17  30
 185 ben  14  45  32
 186 ben  14  45  44
 187 ben  15  14  45
 188 prop tor  15  14  45  32
 189 prop tor  15  14  45  44
 190 ben  15  17  18
 191 prop tor  15  17  18  19
 192 prop tor  15  17  18  29
 193 ben  15  17  30
 194 prop tor  15  17  30  31
 195 prop tor  15  17  30  32
 196 ben  16  15  17
 197 prop tor  16  15  17  18
 198 prop tor  16  15  17  30
 199 ben  17  18  19
 200 prop tor  17  18  19  20
 201 prop tor  17  18  19  57
 202 ben  17  18  29
 203 prop tor  17  18  29  28
 204 prop tor  17  18  29  65
 205 ben  17  30  31
 206 ben  17  30  32
 207 prop tor  17  30  32  33
 208 prop tor  17  30  32  45
 209 ben  18  17  30
 210 prop tor  18  17  30  31
 211 prop tor  18  17  30  32
 212 ben  18  19  20
 213 prop tor  18  19  20  21
 214 prop tor  18  19  20  58
 215 ben  18  19  57
 216 ben  18  29  28
 217 ben  18  29  65
 218 ben  19  18  29
 219 prop tor  19  18  29  28
 220 prop tor  19  18  29  65
 221 ben  19  20  21
 222 prop tor  19  20  21  22
 223 prop tor  19  20  21  28
 224 ben  19  20  58
 225 ben  20  19  57
 226 ben  20  21  22
 227 prop tor  20  21  22  23
 228 prop tor  20  21  22  27
 229 ben  20  21  28
 230 prop tor  20  21  28  29
 231 prop tor  20  21  28  64
 232 ben  21  20  58
 233 ben  21  22  23
 234 prop tor  21  22  23  24
 235 prop tor  21  22  23  59
 236 ben  21  22  27
 237 prop tor  21  22  27  26
 238 prop tor  21  22  27  63
 239 ben  21  28  29
 240 prop tor  21  28  29  18
 241 prop tor  21  28  29  65
 242 ben  21  28  64
 243 ben  22  21  28
 244 prop tor  22  21  28  29
 245 prop tor  22  21  28  64
 246 ben  22  23  24
 247 prop tor  22  23  24  25
 248 prop tor  22  23  24  60
 249 ben  22  23  59
 250 ben  22  27  26
 251 ben  22  27  63
 252 ben  23  22  27
 253 prop tor  23  22  27  26
 254 prop tor  23  22  27  63
 255 ben  23  24  25
 256 prop tor  23  24  25  26
 257 prop tor  23  24  25  61
 258 ben  23  24  60
 259 ben  24  23  59
 260 ben  24  25  26
 261 prop tor  24  25  26  27
 262 prop tor  24  25  26  62
 263 ben  24  25  61
 264 ben  25  24  60
 265 ben  25  26  27
 266 prop tor  25  26  27  22
 267 prop tor  25  26  27  63
 268 ben  25  26  62
 269 ben  26  25  61
 270 ben  26  27  63
 271 prop tor  27  22  23  24
 272 prop tor  27  22  23  59
 273 ben  27  26  62
 274 prop tor  28  21  22  23
 275 prop tor  28  21  22  27
 276 ben  28  29  65
 277 prop tor  29  18  19  20
 278 prop tor  29  18  19  57
 279 ben  29  28  64
 280 prop tor  30  17  18  19
 281 prop tor  30  17  18  29
 282 ben  30  32  33
 283 prop tor  30  32  33  34
 284 prop tor  30  32  33  66
 285 ben  30  32  45
 286 prop tor  30  32  45  14
 287 prop tor  30  32  45  44
 288 ben  31  30  32
 289 prop tor  31  30  32  33
 290 prop tor  31  30  32  45
 291 ben  32  33  34
 292 prop tor  32  33  34  35
 293 prop tor  32  33  34  67
 294 ben  32  33  66
 295 ben  32  45  44
 296 ben  33  32  45
 297 prop tor  33  32  45  14
 298 prop tor  33  32  45  44
 299 ben  33  34  35
 300 prop tor  33  34  35  36
 301 prop tor  33  34  35  44
 302 ben  33  34  67
 303 ben  34  33  66
 304 ben  34  35  36
 305 prop tor  34  35  36  37
 306 prop tor  34  35  36  43
 307 ben  34  35  44
 308 prop tor  34  35  44  11
 309 prop tor  34  35  44  45
 310 ben  35  34  67
 311 ben  35  36  37
 312 prop tor  35  36  37  38
 313 prop tor  35  36  37  68
 314 ben  35  36  43
 315 prop tor  35  36  43  10
 316 prop tor  35  36  43  42
 317 ben  35  44  45
 318 prop tor  35  44  45  14
 319 prop tor  35  44  45  32
 320 ben  36  35  44
 321 prop tor  36  35  44  11
 322 prop tor  36  35  44  45
 323 ben  36  37  38
 324 prop tor  36  37  38  39
 325 prop tor  36  37  38  69
 326 ben  36  37  68
 327 ben  36  43  42
 328 ben  37  36  43
 329 prop tor  37  36  43  10
 330 prop tor  37  36  43  42
 331 ben  37  38  39
 332 prop tor  37  38  39  40
 333 prop tor  37  38  39  42
 334 ben  37  38  69
 335 ben  38  37  68
 336 ben  38  39  40
 337 prop tor  38  39  40   4
 338 prop tor  38  39  40  41
 339 ben  38  39  42
 340 prop tor  38  39  42   7
 341 prop tor  38  39  42  43
 342 ben  39  38  69
 343 ben  39  40  41
 344 ben  39  42  43
 345 prop tor  39  42  43  10
 346 prop tor  39  42  43  36
 347 prop tor  40   4   5   6
 348 prop tor  40   4   5   7
 349 ben  40  39  42
 350 prop tor  40  39  42   7
 351 prop tor  40  39  42  43
 352 prop tor  42   7   8   9
 353 prop tor  42   7   8  53
 354 prop tor  42  39  40   4
 355 prop tor  42  39  40  41
 356 prop tor  43  10  11  12
 357 prop tor  43  10  11  44
 358 prop tor  43  36  37  38
 359 prop tor  43  36  37  68
 360 prop tor  44  11  12  13
 361 prop tor  44  11  12  55
 362 prop tor  44  35  36  37
 363 prop tor  44  35  36  43
 364 prop tor  45  14  15  16
 365 prop tor  45  14  15  17
 366 prop tor  45  32  33  34
 367 prop tor  45  32  33  66
 368 prop tor  46   1   2   3
 369 prop tor  46   1   2   4
 370 prop tor  46   1   2  49
 371 ben  46   1  47
 372 ben  46   1  48
 373 prop tor  47   1   2   3
 374 prop tor  47   1   2   4
 375 prop tor  47   1   2  49
 376 ben  47   1  48
 377 prop tor  48   1   2   3
 378 prop tor  48   1   2   4
 379 prop tor  48   1   2  49
 380 prop tor  49   2   3  50
 381 prop tor  49   2   3  51
 382 prop tor  49   2   3  52
 383 prop tor  49   2   4   5
 384 prop tor  49   2   4  40
 385 ben  50   3  51
 386 ben  50   3  52
 387 ben  51   3  52
 388 prop tor  53   8   9  10
 389 prop tor  53   8   9  54
 390 prop tor  54   9  10  11
 391 prop tor  54   9  10  43
 392 prop tor  55  12  13  14
 393 prop tor  55  12  13  56
 394 prop tor  56  13  14  15
 395 prop tor  56  13  14  45
 396 prop tor  57  19  20  21
 397 prop tor  57  19  20  58
 398 prop tor  58  20  21  22
 399 prop tor  58  20  21  28
 400 prop tor  59  23  24  25
 401 prop tor  59  23  24  60
 402 prop tor  60  24  25  26
 403 prop tor  60  24  25  61
 404 prop tor  61  25  26  27
 405 prop tor  61  25  26  62
 406 prop tor  62  26  27  22
 407 prop tor  62  26  27  63
 408 prop tor  64  28  29  18
 409 prop tor  64  28  29  65
 410 prop tor  66  33  34  35
 411 prop tor  66  33  34  67
 412 prop tor  67  34  35  36
 413 prop tor  67  34  35  44
 414 prop tor  68  37  38  39
 415 prop tor  68  37  38  69
 416 prop tor  69  38  39  40
 417 prop tor  69  38  39  42
 nber bend=             132
 nber lin bend=           0
 nber prop tor=         208
 nber impr tor=           0
 nber tot redund int=         417
 Reading file: 
 ./PDI_7_C0S0.log                                                               
                                          
  Entering Gaussian System, Link 0=g16                                          
  
 Gaussian format, type: g94, g98, g03= F F F
  #P Geom=AllCheck Guess=TCheck SCRF=Check GenChk RB3LYP/6-311G(d,p) Fre    
 energy type= B3LYP   
 Original G94 input coords:
  6  0.862036  0.377808 -0.209593
  6  2.273107 -0.175007  0.015563
  6  3.272838  0.242072 -1.067962
  7  2.779868  0.141305  1.389458
  6  3.021085 -0.948682  2.247398
  8  2.826567 -2.095861  1.888160
  6  3.523182 -0.642325  3.610307
  6  3.773811 -1.680894  4.486630
  6  4.246938 -1.422207  5.775114
  6  4.483929 -0.125253  6.227501
  6  4.981905  0.157830  7.580803
  6  5.250299 -0.852946  8.501845
  6  5.724213 -0.575041  9.785727
  6  5.943540  0.728990 10.185277
  6  6.448350  0.987211 11.556876
  8  6.679732  0.095556 12.346684
  7  6.650650  2.337971 11.905876
  6  7.143330  2.617120 13.238115
  6  6.253567  2.965723 14.247430
  6  6.729323  3.235652 15.524853
  6  8.098250  3.159996 15.817924
  6  8.604080  3.448362 17.183983
  6  8.080803  4.510104 17.936097
  6  8.555231  4.780873 19.216017
  6  9.562729  3.995286 19.771959
  6 10.091839  2.936776 19.036528
  6  9.617943  2.666487 17.756306
  6  8.975919  2.804677 14.783990
  6  8.505158  2.536545 13.504356
  6  6.411381  3.438206 11.057534
  8  6.610569  4.574094 11.434974
  6  5.908907  3.124665  9.696746
  6  5.657885  4.161436  8.819064
  6  5.184645  3.901279  7.531246
  6  4.948025  2.603679  7.081461
  6  4.449757  2.320480  5.728334
  6  4.180116  3.329574  4.805412
  6  3.706787  3.049902  3.521302
  6  3.489210  1.744893  3.123413
  6  2.985420  1.478855  1.751518
  8  2.760239  2.388629  0.972751
  6  3.747948  0.688717  4.023668
  6  4.231575  0.963727  5.338249
  6  5.200897  1.514861  7.972008
  6  5.685364  1.790049  9.287321
  1  0.478790 -0.003650 -1.159901
  1  0.855866  1.466423 -0.244052
  1  0.184950  0.043249  0.580606
  1  2.213587 -1.261016  0.020118
  1  3.363586  1.325182 -1.138082
  1  2.931521 -0.142814 -2.032763
  1  4.259140 -0.185199 -0.869363
  1  3.596164 -2.695693  4.154008
  1  4.428360 -2.266939  6.425044
  1  5.093959 -1.888702  8.234248
  1  5.927616 -1.373713 10.487953
  1  5.192790  3.018803 14.034159
  1  6.026783  3.484042 16.311575
  1  7.314761  5.143365 17.503163
  1  8.142864  5.612475 19.776580
  1  9.932142  4.206046 20.769127
  1 10.870037  2.313902 19.463466
  1 10.018726  1.824816 17.202915
  1 10.041282  2.762608 14.977447
  1  9.193265  2.271777 12.710652
  1  5.835753  5.176534  9.151199
  1  5.002873  4.744744  6.879811
  1  4.335179  4.365951  5.071500
  1  3.503000  3.847698  2.818364
 nber atoms=          69
  SCF Done:  E(RB3LYP) =  -1911.60747372     A.U. after    1 cycles             
  
          23          40 "  -1911.60747372"
After scan for Atom:   Atom  AN      X      Y      Z        X      Y      Z        X      Y      Z   
After scan for Atom:   Atom  AN      X      Y      Z        X      Y      Z        X      Y      Z   
After scan for Atom:   Atom  AN      X      Y      Z        X      Y      Z        X      Y      Z   
After scan for Atom:   Atom  AN      X      Y      Z        X      Y      Z        X      Y      Z   
After scan for Atom:   Atom  AN      X      Y      Z        X      Y      Z        X      Y      Z   
After scan for Atom:   Atom  AN      X      Y      Z        X      Y      Z        X      Y      Z   
After scan for Atom:   Atom  AN      X      Y      Z        X      Y      Z        X      Y      Z   
After scan for Atom:   Atom  AN      X      Y      Z        X      Y      Z        X      Y      Z   
After scan for Atom:   Atom  AN      X      Y      Z        X      Y      Z        X      Y      Z   
After scan for Atom:   Atom  AN      X      Y      Z        X      Y      Z        X      Y      Z   
After scan for Atom:   Atom  AN      X      Y      Z        X      Y      Z        X      Y      Z   
After scan for Atom:   Atom  AN      X      Y      Z        X      Y      Z        X      Y      Z   
After scan for Atom:   Atom  AN      X      Y      Z        X      Y      Z        X      Y      Z   
After scan for Atom:   Atom  AN      X      Y      Z        X      Y      Z        X      Y      Z   
After scan for Atom:   Atom  AN      X      Y      Z        X      Y      Z        X      Y      Z   
After scan for Atom:   Atom  AN      X      Y      Z        X      Y      Z        X      Y      Z   
After scan for Atom:   Atom  AN      X      Y      Z        X      Y      Z        X      Y      Z   
After scan for Atom:   Atom  AN      X      Y      Z        X      Y      Z        X      Y      Z   
After scan for Atom:   Atom  AN      X      Y      Z        X      Y      Z        X      Y      Z   
After scan for Atom:   Atom  AN      X      Y      Z        X      Y      Z        X      Y      Z   
After scan for Atom:   Atom  AN      X      Y      Z        X      Y      Z        X      Y      Z   
After scan for Atom:   Atom  AN      X      Y      Z        X      Y      Z        X      Y      Z   
After scan for Atom:   Atom  AN      X      Y      Z        X      Y      Z        X      Y      Z   
After scan for Atom:   Atom  AN      X      Y      Z        X      Y      Z        X      Y      Z   
After scan for Atom:   Atom  AN      X      Y      Z        X      Y      Z        X      Y      Z   
After scan for Atom:   Atom  AN      X      Y      Z        X      Y      Z        X      Y      Z   
After scan for Atom:   Atom  AN      X      Y      Z        X      Y      Z        X      Y      Z   
After scan for Atom:   Atom  AN      X      Y      Z        X      Y      Z        X      Y      Z   
After scan for Atom:   Atom  AN      X      Y      Z        X      Y      Z        X      Y      Z   
After scan for Atom:   Atom  AN      X      Y      Z        X      Y      Z        X      Y      Z   
After scan for Atom:   Atom  AN      X      Y      Z        X      Y      Z        X      Y      Z   
After scan for Atom:   Atom  AN      X      Y      Z        X      Y      Z        X      Y      Z   
After scan for Atom:   Atom  AN      X      Y      Z        X      Y      Z        X      Y      Z   
After scan for Atom:   Atom  AN      X      Y      Z        X      Y      Z        X      Y      Z   
After scan for Atom:   Atom  AN      X      Y      Z        X      Y      Z        X      Y      Z   
After scan for Atom:   Atom  AN      X      Y      Z        X      Y      Z        X      Y      Z   
After scan for Atom:   Atom  AN      X      Y      Z        X      Y      Z        X      Y      Z   
After scan for Atom:   Atom  AN      X      Y      Z        X      Y      Z        X      Y      Z   
After scan for Atom:   Atom  AN      X      Y      Z        X      Y      Z        X      Y      Z   
After scan for Atom:   Atom  AN      X      Y      Z        X      Y      Z        X      Y      Z   
After scan for Atom:   Atom  AN      X      Y      Z        X      Y      Z        X      Y      Z   
After scan for Atom:   Atom  AN      X      Y      Z        X      Y      Z        X      Y      Z   
After scan for Atom:   Atom  AN      X      Y      Z        X      Y      Z        X      Y      Z   
After scan for Atom:   Atom  AN      X      Y      Z        X      Y      Z        X      Y      Z   
After scan for Atom:   Atom  AN      X      Y      Z        X      Y      Z        X      Y      Z   
After scan for Atom:   Atom  AN      X      Y      Z        X      Y      Z        X      Y      Z   
After scan for Atom:   Atom  AN      X      Y      Z        X      Y      Z        X      Y      Z   
After scan for Atom:   Atom  AN      X      Y      Z        X      Y      Z        X      Y      Z   
After scan for Atom:   Atom  AN      X      Y      Z        X      Y      Z        X      Y      Z   
After scan for Atom:   Atom  AN      X      Y      Z        X      Y      Z        X      Y      Z   
After scan for Atom:   Atom  AN      X      Y      Z        X      Y      Z        X      Y      Z   
After scan for Atom:   Atom  AN      X      Y      Z        X      Y      Z        X      Y      Z   
After scan for Atom:   Atom  AN      X      Y      Z        X      Y      Z        X      Y      Z   
After scan for Atom:   Atom  AN      X      Y      Z        X      Y      Z        X      Y      Z   
After scan for Atom:   Atom  AN      X      Y      Z        X      Y      Z        X      Y      Z   
After scan for Atom:   Atom  AN      X      Y      Z        X      Y      Z        X      Y      Z   
After scan for Atom:   Atom  AN      X      Y      Z        X      Y      Z        X      Y      Z   
After scan for Atom:   Atom  AN      X      Y      Z        X      Y      Z        X      Y      Z   
After scan for Atom:   Atom  AN      X      Y      Z        X      Y      Z        X      Y      Z   
After scan for Atom:   Atom  AN      X      Y      Z        X      Y      Z        X      Y      Z   
After scan for Atom:   Atom  AN      X      Y      Z        X      Y      Z        X      Y      Z   
After scan for Atom:   Atom  AN      X      Y      Z        X      Y      Z        X      Y      Z   
After scan for Atom:   Atom  AN      X      Y      Z        X      Y      Z        X      Y      Z   
After scan for Atom:   Atom  AN      X      Y      Z        X      Y      Z        X      Y      Z   
After scan for Atom:   Atom  AN      X      Y      Z        X      Y      Z        X      Y      Z   
After scan for Atom:   Atom  AN      X      Y      Z        X      Y      Z        X      Y      Z   
After scan for Atom:   Atom  AN      X      Y      Z        X      Y      Z        X      Y      Z   
 g94    frequencies=
     0.0    0.0    0.0    0.0    0.0    0.0   10.5   11.5   18.9   23.0
    31.6   53.0   59.3   65.6   74.9   77.1   85.2   88.1  104.8  120.2
   126.3  140.5  164.0  182.6  188.9  195.4  217.4  221.5  234.4  235.6
   238.7  271.9  283.3  293.9  314.9  326.1  347.8  359.5  365.4  391.5
   395.3  415.7  418.2  424.2  431.3  436.1  438.3  446.3  448.1  451.7
   469.2  480.1  480.9  482.4  509.6  520.5  525.5  535.1  549.3  569.7
   578.2  585.4  596.8  623.2  631.7  633.5  641.9  651.9  662.2  666.7
   711.9  714.6  714.8  720.0  742.4  745.6  750.3  750.9  763.1  772.3
   779.0  785.7  800.1  804.1  813.9  823.5  840.0  841.6  854.1  856.9
   861.7  864.8  865.4  870.1  872.1  912.6  927.9  934.3  945.6  957.0
   969.1  975.2  979.6  982.6  987.1  992.5  996.7 1001.3 1002.8 1005.7
  1015.4 1026.2 1040.4 1062.3 1063.4 1081.7 1100.9 1103.9 1132.8 1150.5
  1155.9 1160.4 1166.4 1171.9 1182.7 1194.0 1200.7 1201.5 1207.5 1210.5
  1220.7 1221.6 1240.7 1251.3 1259.3 1269.1 1296.1 1302.3 1310.1 1316.2
  1323.3 1326.7 1334.9 1336.7 1356.3 1356.9 1368.7 1374.8 1382.2 1385.4
  1400.6 1406.8 1417.1 1429.0 1433.7 1436.7 1454.8 1477.0 1480.3 1485.4
  1491.3 1498.2 1505.4 1506.2 1521.8 1522.7 1542.7 1548.2 1560.6 1604.0
  1607.2 1614.9 1619.9 1625.0 1631.5 1631.6 1644.5 1649.1 1651.4 1713.1
  1734.3 1751.0 1768.3 3034.7 3038.8 3092.5 3095.7 3113.1 3133.1 3143.5
  3159.6 3166.0 3174.3 3176.5 3177.7 3182.2 3190.0 3192.4 3193.6 3193.8
  3194.7 3200.9 3201.2 3208.1 3208.4 3218.0 3218.2
 g94    symmetries=
                                                 A      A      A      A
       A      A      A      A      A      A      A      A      A      A
       A      A      A      A      A      A      A      A      A      A
       A      A      A      A      A      A      A      A      A      A
       A      A      A      A      A      A      A      A      A      A
       A      A      A      A      A      A      A      A      A      A
       A      A      A      A      A      A      A      A      A      A
       A      A      A      A      A      A      A      A      A      A
       A      A      A      A      A      A      A      A      A      A
       A      A      A      A      A      A      A      A      A      A
       A      A      A      A      A      A      A      A      A      A
       A      A      A      A      A      A      A      A      A      A
       A      A      A      A      A      A      A      A      A      A
       A      A      A      A      A      A      A      A      A      A
       A      A      A      A      A      A      A      A      A      A
       A      A      A      A      A      A      A      A      A      A
       A      A      A      A      A      A      A      A      A      A
       A      A      A      A      A      A      A      A      A      A
       A      A      A      A      A      A      A      A      A      A
       A      A      A      A      A      A      A      A      A      A
       A      A      A      A      A      A      A
 atomic masses:
 12.0000 12.0000 12.0000 14.0031 12.0000 15.9949 12.0000 12.0000 12.0000 12.0000
 12.0000 12.0000 12.0000 12.0000 12.0000 15.9949 14.0031 12.0000 12.0000 12.0000
 12.0000 12.0000 12.0000 12.0000 12.0000 12.0000 12.0000 12.0000 12.0000 12.0000
 15.9949 12.0000 12.0000 12.0000 12.0000 12.0000 12.0000 12.0000 12.0000 12.0000
 15.9949 12.0000 12.0000 12.0000 12.0000  1.0078  1.0078  1.0078  1.0078  1.0078
  1.0078  1.0078  1.0078  1.0078  1.0078  1.0078  1.0078  1.0078  1.0078  1.0078
  1.0078  1.0078  1.0078  1.0078  1.0078  1.0078  1.0078  1.0078  1.0078
 looking for force constants in 
 ./PDI_7_C0S0.fchk                                                              
  
 Cartesian Force Constants                  R   N=       21528                  
  
 n3=         207       21528
 g94-fc frequencies=
    -1.1   -0.0   -0.0    0.0    1.1    5.2   10.5   11.5   18.9   23.0
    31.6   53.0   59.3   65.6   74.9   77.1   85.2   88.1  104.8  120.2
   126.3  140.5  164.0  182.6  188.9  195.4  217.4  221.5  234.4  235.6
   238.7  271.9  283.3  293.9  314.9  326.2  347.8  359.5  365.4  391.5
   395.3  415.7  418.2  424.2  431.3  436.1  438.3  446.3  448.1  451.7
   469.2  480.1  480.9  482.4  509.6  520.5  525.5  535.1  549.4  569.7
   578.2  585.4  596.8  623.2  631.7  633.5  641.9  651.9  662.2  666.7
   711.9  714.6  714.8  720.0  742.4  745.6  750.3  750.9  763.2  772.3
   779.0  785.7  800.1  804.1  813.9  823.5  840.0  841.7  854.1  857.0
   861.7  864.9  865.4  870.1  872.2  912.7  927.9  934.3  945.6  957.0
   969.2  975.3  979.7  982.6  987.1  992.5  996.7 1001.3 1002.8 1005.7
  1015.4 1026.3 1040.4 1062.3 1063.4 1081.7 1100.9 1103.9 1132.8 1150.5
  1155.9 1160.4 1166.4 1171.9 1182.7 1194.0 1200.7 1201.5 1207.5 1210.5
  1220.7 1221.6 1240.7 1251.3 1259.3 1269.1 1296.2 1302.4 1310.1 1316.2
  1323.3 1326.7 1334.9 1336.7 1356.3 1356.9 1368.7 1374.8 1382.3 1385.4
  1400.7 1406.9 1417.1 1429.0 1433.7 1436.7 1454.8 1477.0 1480.3 1485.4
  1491.3 1498.2 1505.4 1506.2 1521.8 1522.7 1542.7 1548.3 1560.6 1604.1
  1607.3 1614.9 1619.9 1625.0 1631.5 1631.6 1644.5 1649.1 1651.4 1713.1
  1734.4 1751.1 1768.3 3034.7 3038.8 3092.6 3095.8 3113.2 3133.2 3143.6
  3159.7 3166.0 3174.3 3176.5 3177.8 3182.2 3190.1 3192.5 3193.7 3193.9
  3194.8 3201.0 3201.3 3208.2 3208.5 3218.1 3218.3
 at 99999: n3=         207
 symm operator            1 :  F  nop=           0
 symm operator            2 :  F  nop=           0
 symm operator            3 :  F  nop=           0
 symm operator            4 :  F  nop=           0
 symm operator            5 :  F  nop=           0
 symm operator            6 :  F  nop=           0
 symm operator            7 :  F  nop=           0
 The point group of the molecule is  C1
 Symmetry rotation matrix:
   1.00000   0.00000   0.00000
   0.00000   1.00000   0.00000
   0.00000   0.00000   1.00000

 Projecting out zero-frequency components
 generating redundant internal coords
         300        3600          69
 search for int coords
   1 str   2   1   1.532
   2 str   3   2   1.532
   3 str   4   2   1.498
   4 str   5   4   1.408
   5 str   6   5   1.218
   6 str   7   5   1.484
   7 str   8   7   1.382
   8 str   9   8   1.397
   9 str  10   9   1.394
  10 str  11  10   1.470
  11 str  12  11   1.394
  12 str  13  12   1.396
  13 str  14  13   1.381
  14 str  15  14   1.484
  15 str  16  15   1.213
  16 str  17  15   1.410
  17 str  18  17   1.448
  18 str  19  18   1.390
  19 str  20  19   1.390
  20 str  21  20   1.402
  21 str  22  21   1.485
  22 str  23  22   1.402
  23 str  24  23   1.392
  24 str  25  24   1.393
  25 str  26  25   1.393
  26 str  27  22   1.402
[...]
    0.   -2.   -0.    0.   -0.    0.   -1.   -0.    0.   -0.    0.    0.    0.   -0.    0.   -0.    0.   -2.    0.    0.
    0.   -0.    0.    1.    0.    0.   -0.   -1.    0.   -1.   -0.   -0.   -0.   -0.    0.    1.    1.    0.   -0.   -0.
   -0.   -0.    0.   -0.    0.   -0.   -0.    0.   -0.   -0.   -0.    0.   -0.   -0.   -0.    0.    1.   -0.    0.    0.
   -0.   -0.    1.   -0.    0.    0.    0.    1.   -0.    0.    0.   -1.   -0.    0.   -0.    0.   -3.   -0.   -0.    2.
   -0.    0.    0.    0.   -0.    0.   -1.   -0.   -0.    0.   -0.    1.   -1.    0.   -0.    0.    0.    0.   -1.    0.
   -0.    0.    0.    0.    0.    0.    0.    1.    0.   -0.    0.    0.    0.    0.    0.   -0.   -0.   -0.   -1.   -0.
    0.   -1.    1.   -0.   -0.   -0.    0.   -0.   -0.    0.   -0.   -0.    0.    0.   -0.    0.    0.    0.   -0.   -0.
   -0.   -0.    0.    0.    0.   -0.    0.
 p2=
    0.    0.   -0.   -0.   -0.   -0.  168.  -85.   16.   10.  -20.    4.   -6.   56.    1.   -5.   -3.   -5.   -9.   -7.
   -8.   -3.   -0.    3.    1.    1.    2.    0.   -0.   -1.   -0.    0.    1.   -3.   -0.    0.   -1.   -0.   -5.    1.
    0.    2.   -0.   -2.    3.    2.   -1.   -0.   -0.   -0.   -1.   -1.    1.    0.    1.   -1.   -0.    0.   -1.    0.
    0.   -1.   -0.   -0.   -0.    0.   -0.    0.    0.   -0.    0.   -0.    0.   -0.   -0.   -0.    0.   -2.    0.    0.
   -0.    0.    0.    1.    0.   -0.    1.   -0.    0.    0.   -0.   -0.   -0.    0.   -0.   -0.   -0.   -0.   -0.   -0.
   -0.   -0.    1.    0.    0.    0.   -0.   -0.    0.    0.    1.    0.    0.   -0.   -0.   -0.    0.    0.   -0.   -0.
   -0.   -0.   -1.   -0.    0.    0.   -0.    0.   -2.    0.    0.   -0.   -0.   -0.    0.    0.    0.   -1.    1.    0.
    0.    2.   -0.   -0.    1.   -0.   -0.    1.   -0.    0.    0.    1.    0.   -0.   -0.    0.   -0.   -1.   -0.    0.
   -0.   -0.    0.   -0.    0.    0.   -0.   -0.    0.   -1.    0.   -0.    0.    0.    0.    0.   -1.   -0.   -1.   -0.
    0.    1.    1.    0.   -0.   -0.    0.    0.   -0.    0.    0.   -0.    0.   -0.    0.    0.   -0.    0.   -0.    0.
   -0.   -0.    0.   -0.    0.    0.    0.

 Displacement: in terms of nc of 1 THEN of nc of 2

   1     freq=    -0. Q=  0.000 lam=    -0.0     freq=    -0. Q=  0.000 lam=    -0.0
   2     freq=    -0. Q=  0.000 lam=    -0.0     freq=    -0. Q=  0.000 lam=    -0.0
   3     freq=    -0. Q=  0.000 lam=    -0.0     freq=    -0. Q=  0.000 lam=    -0.0
   4     freq=     0. Q= -0.000 lam=     0.0     freq=     0. Q= -0.000 lam=     0.0
   5     freq=     0. Q= -0.000 lam=     0.0     freq=     0. Q= -0.000 lam=     0.0
   6     freq=     0. Q=  0.000 lam=     0.0     freq=     0. Q=  0.000 lam=     0.0
   7     freq=    11. Q= -0.813 lam=     3.6     freq=    10. Q= -2.194 lam=    25.2
   8     freq=    21. Q=  1.468 lam=    22.2     freq=    11. Q=  1.169 lam=     7.8
   9     freq=    22. Q= -2.045 lam=    45.1     freq=    19. Q= -0.287 lam=     0.8
  10     freq=    31. Q= -0.219 lam=     0.7     freq=    23. Q= -0.196 lam=     0.4
  11     freq=    34. Q=  2.423 lam=    98.8     freq=    32. Q=  0.463 lam=     3.4
  12     freq=    52. Q= -0.456 lam=     5.4     freq=    53. Q= -0.111 lam=     0.3
  13     freq=    58. Q= -0.043 lam=     0.1     freq=    59. Q= -0.195 lam=     1.1
  14     freq=    71. Q=  2.019 lam=   144.6     freq=    66. Q=  1.843 lam=   111.4
  15     freq=    75. Q=  0.340 lam=     4.3     freq=    75. Q=  0.024 lam=     0.0
  16     freq=    76. Q=  1.526 lam=    88.0     freq=    77. Q=  0.193 lam=     1.4
  17     freq=    88. Q=  0.444 lam=     8.6     freq=    85. Q=  0.119 lam=     0.6
  18     freq=    95. Q=  0.092 lam=     0.4     freq=    88. Q=  0.196 lam=     1.7
  19     freq=   105. Q=  0.301 lam=     4.8     freq=   105. Q=  0.364 lam=     7.0
  20     freq=   122. Q= -0.465 lam=    13.2     freq=   120. Q= -0.320 lam=     6.2
  21     freq=   127. Q=  0.651 lam=    27.0     freq=   126. Q=  0.359 lam=     8.2
  22     freq=   153. Q= -0.223 lam=     3.8     freq=   141. Q= -0.158 lam=     1.8
  23     freq=   164. Q=  0.012 lam=     0.0     freq=   164. Q=  0.000 lam=     0.0
  24     freq=   179. Q= -0.222 lam=     4.4     freq=   183. Q= -0.152 lam=     2.1
  25     freq=   185. Q=  0.017 lam=     0.0     freq=   189. Q=  0.072 lam=     0.5
  26     freq=   199. Q=  0.005 lam=     0.0     freq=   195. Q=  0.062 lam=     0.4
  27     freq=   213. Q=  0.120 lam=     1.5     freq=   217. Q=  0.114 lam=     1.4
  28     freq=   222. Q=  0.179 lam=     3.6     freq=   222. Q=  0.009 lam=     0.0
  29     freq=   235. Q=  0.015 lam=     0.0     freq=   234. Q=  0.007 lam=     0.0
  30     freq=   238. Q=  0.011 lam=     0.0     freq=   236. Q=  0.036 lam=     0.2
  31     freq=   241. Q= -0.013 lam=     0.0     freq=   239. Q= -0.012 lam=     0.0
  32     freq=   264. Q= -0.016 lam=     0.0     freq=   272. Q= -0.014 lam=     0.0
  33     freq=   280. Q= -0.067 lam=     0.6     freq=   283. Q= -0.072 lam=     0.7
  34     freq=   292. Q=  0.197 lam=     5.7     freq=   294. Q=  0.212 lam=     6.6
  35     freq=   312. Q= -0.009 lam=     0.0     freq=   315. Q= -0.018 lam=     0.1
  36     freq=   325. Q= -0.051 lam=     0.4     freq=   326. Q= -0.027 lam=     0.1
  37     freq=   335. Q=  0.057 lam=     0.6     freq=   348. Q=  0.071 lam=     0.9
  38     freq=   359. Q=  0.017 lam=     0.1     freq=   360. Q=  0.020 lam=     0.1
  39     freq=   373. Q= -0.207 lam=     8.0     freq=   365. Q= -0.382 lam=    26.6
  40     freq=   389. Q= -0.003 lam=     0.0     freq=   391. Q= -0.078 lam=     1.2
  41     freq=   394. Q=  0.151 lam=     4.5     freq=   395. Q=  0.040 lam=     0.3
  42     freq=   401. Q= -0.107 lam=     2.3     freq=   416. Q= -0.144 lam=     4.3
  43     freq=   413. Q=  0.007 lam=     0.0     freq=   418. Q=  0.001 lam=     0.0
  44     freq=   415. Q=  0.169 lam=     5.9     freq=   424. Q=  0.157 lam=     5.3
  45     freq=   429. Q= -0.301 lam=    19.4     freq=   431. Q= -0.230 lam=    11.4
  46     freq=   433. Q= -0.134 lam=     3.9     freq=   436. Q= -0.200 lam=     8.7
  47     freq=   435. Q=  0.109 lam=     2.6     freq=   438. Q=  0.089 lam=     1.7
  48     freq=   437. Q=  0.020 lam=     0.1     freq=   446. Q=  0.027 lam=     0.2
  49     freq=   441. Q= -0.016 lam=     0.1     freq=   448. Q= -0.021 lam=     0.1
  50     freq=   447. Q= -0.005 lam=     0.0     freq=   452. Q= -0.006 lam=     0.0
  51     freq=   466. Q= -0.004 lam=     0.0     freq=   469. Q= -0.057 lam=     0.7
  52     freq=   472. Q=  0.084 lam=     1.6     freq=   480. Q=  0.050 lam=     0.6
  53     freq=   479. Q= -0.057 lam=     0.8     freq=   481. Q= -0.112 lam=     3.0
  54     freq=   480. Q= -0.194 lam=     9.0     freq=   482. Q= -0.026 lam=     0.2
  55     freq=   505. Q=  0.004 lam=     0.0     freq=   510. Q=  0.114 lam=     3.3
  56     freq=   508. Q= -0.072 lam=     1.3     freq=   520. Q= -0.075 lam=     1.5
  57     freq=   518. Q= -0.157 lam=     6.4     freq=   525. Q= -0.015 lam=     0.1
  58     freq=   527. Q= -0.000 lam=     0.0     freq=   535. Q= -0.020 lam=     0.1
  59     freq=   549. Q=  0.044 lam=     0.5     freq=   549. Q=  0.072 lam=     1.4
  60     freq=   562. Q= -0.016 lam=     0.1     freq=   570. Q= -0.016 lam=     0.1
  61     freq=   575. Q=  0.001 lam=     0.0     freq=   578. Q=  0.002 lam=     0.0
  62     freq=   581. Q= -0.162 lam=     7.6     freq=   585. Q= -0.136 lam=     5.4
  63     freq=   587. Q= -0.017 lam=     0.1     freq=   597. Q= -0.012 lam=     0.0
  64     freq=   617. Q=  0.002 lam=     0.0     freq=   623. Q=  0.018 lam=     0.1
  65     freq=   618. Q= -0.021 lam=     0.1     freq=   632. Q= -0.016 lam=     0.1
  66     freq=   622. Q=  0.003 lam=     0.0     freq=   633. Q=  0.002 lam=     0.0
  67     freq=   636. Q= -0.051 lam=     0.8     freq=   642. Q= -0.014 lam=     0.1
  68     freq=   640. Q= -0.027 lam=     0.2     freq=   652. Q= -0.008 lam=     0.0
  69     freq=   649. Q=  0.010 lam=     0.0     freq=   662. Q=  0.020 lam=     0.1
  70     freq=   665. Q= -0.001 lam=     0.0     freq=   667. Q= -0.016 lam=     0.1
  71     freq=   691. Q=  0.003 lam=     0.0     freq=   712. Q=  0.047 lam=     0.8
  72     freq=   709. Q=  0.049 lam=     0.8     freq=   715. Q=  0.008 lam=     0.0
  73     freq=   712. Q=  0.010 lam=     0.0     freq=   715. Q=  0.013 lam=     0.1
  74     freq=   718. Q= -0.017 lam=     0.1     freq=   720. Q= -0.010 lam=     0.0
  75     freq=   720. Q=  0.007 lam=     0.0     freq=   742. Q=  0.000 lam=     0.0
  76     freq=   730. Q= -0.006 lam=     0.0     freq=   746. Q= -0.006 lam=     0.0
  77     freq=   743. Q=  0.024 lam=     0.2     freq=   750. Q=  0.006 lam=     0.0
  78     freq=   748. Q= -0.239 lam=    21.4     freq=   751. Q= -0.227 lam=    19.4
  79     freq=   758. Q=  0.021 lam=     0.2     freq=   763. Q=  0.038 lam=     0.6
  80     freq=   769. Q=  0.005 lam=     0.0     freq=   772. Q=  0.036 lam=     0.5
  81     freq=   777. Q=  0.006 lam=     0.0     freq=   779. Q=  0.010 lam=     0.0
  82     freq=   783. Q= -0.026 lam=     0.3     freq=   786. Q= -0.004 lam=     0.0
  83     freq=   792. Q=  0.001 lam=     0.0     freq=   800. Q=  0.008 lam=     0.0
  84     freq=   802. Q=  0.089 lam=     3.2     freq=   804. Q=  0.073 lam=     2.1
  85     freq=   812. Q=  0.029 lam=     0.3     freq=   814. Q=  0.019 lam=     0.1
  86     freq=   819. Q=  0.008 lam=     0.0     freq=   824. Q=  0.011 lam=     0.1
  87     freq=   825. Q= -0.008 lam=     0.0     freq=   840. Q= -0.154 lam=     9.9
  88     freq=   833. Q= -0.093 lam=     3.6     freq=   842. Q= -0.040 lam=     0.7
  89     freq=   845. Q=  0.054 lam=     1.2     freq=   854. Q=  0.030 lam=     0.4
  90     freq=   850. Q= -0.147 lam=     9.2     freq=   857. Q= -0.010 lam=     0.0
  91     freq=   857. Q= -0.057 lam=     1.4     freq=   862. Q= -0.045 lam=     0.9
  92     freq=   869. Q= -0.013 lam=     0.1     freq=   865. Q= -0.007 lam=     0.0
  93     freq=   870. Q= -0.010 lam=     0.0     freq=   865. Q= -0.005 lam=     0.0
  94     freq=   873. Q= -0.002 lam=     0.0     freq=   870. Q= -0.009 lam=     0.0
  95     freq=   875. Q=  0.000 lam=     0.0     freq=   872. Q=  0.012 lam=     0.1
  96     freq=   905. Q=  0.068 lam=     2.1     freq=   913. Q=  0.056 lam=     1.4
  97     freq=   921. Q=  0.067 lam=     2.1     freq=   928. Q=  0.056 lam=     1.5
  98     freq=   948. Q=  0.000 lam=     0.0     freq=   934. Q=  0.004 lam=     0.0
  99     freq=   949. Q= -0.000 lam=     0.0     freq=   946. Q= -0.000 lam=     0.0
 100     freq=   958. Q= -0.000 lam=     0.0     freq=   957. Q= -0.000 lam=     0.0
 101     freq=   967. Q= -0.033 lam=     0.5     freq=   969. Q= -0.013 lam=     0.1
 102     freq=   975. Q= -0.052 lam=     1.3     freq=   975. Q= -0.024 lam=     0.3
 103     freq=   978. Q=  0.009 lam=     0.0     freq=   980. Q=  0.075 lam=     2.7
 104     freq=   983. Q= -0.018 lam=     0.2     freq=   983. Q= -0.005 lam=     0.0
 105     freq=   996. Q=  0.028 lam=     0.4     freq=   987. Q=  0.006 lam=     0.0
 106     freq=  1005. Q= -0.001 lam=     0.0     freq=   992. Q= -0.003 lam=     0.0
 107     freq=  1006. Q= -0.062 lam=     1.9     freq=   997. Q= -0.004 lam=     0.0
 108     freq=  1008. Q=  0.005 lam=     0.0     freq=  1001. Q=  0.004 lam=     0.0
 109     freq=  1014. Q= -0.002 lam=     0.0     freq=  1003. Q= -0.001 lam=     0.0
 110     freq=  1016. Q= -0.002 lam=     0.0     freq=  1006. Q= -0.002 lam=     0.0
 111     freq=  1018. Q= -0.000 lam=     0.0     freq=  1015. Q= -0.083 lam=     3.5
 112     freq=  1021. Q=  0.009 lam=     0.0     freq=  1026. Q=  0.025 lam=     0.3
 113     freq=  1030. Q= -0.052 lam=     1.4     freq=  1040. Q= -0.012 lam=     0.1
 114     freq=  1051. Q= -0.030 lam=     0.5     freq=  1062. Q= -0.006 lam=     0.0
 115     freq=  1064. Q= -0.011 lam=     0.1     freq=  1063. Q= -0.009 lam=     0.0
 116     freq=  1084. Q=  0.014 lam=     0.1     freq=  1082. Q=  0.020 lam=     0.2
 117     freq=  1103. Q=  0.069 lam=     2.6     freq=  1101. Q=  0.050 lam=     1.3
 118     freq=  1114. Q= -0.002 lam=     0.0     freq=  1104. Q= -0.000 lam=     0.0
 119     freq=  1145. Q=  0.007 lam=     0.0     freq=  1133. Q=  0.004 lam=     0.0
 120     freq=  1156. Q=  0.000 lam=     0.0     freq=  1151. Q=  0.018 lam=     0.2
 121     freq=  1157. Q= -0.064 lam=     2.4     freq=  1156. Q= -0.000 lam=     0.0
 122     freq=  1158. Q= -0.012 lam=     0.1     freq=  1160. Q= -0.011 lam=     0.1
 123     freq=  1167. Q=  0.078 lam=     3.6     freq=  1166. Q=  0.095 lam=     5.3
 124     freq=  1168. Q= -0.041 lam=     1.0     freq=  1172. Q= -0.038 lam=     0.9
 125     freq=  1187. Q=  0.001 lam=     0.0     freq=  1183. Q=  0.000 lam=     0.0
 126     freq=  1191. Q=  0.004 lam=     0.0     freq=  1194. Q=  0.020 lam=     0.2
 127     freq=  1195. Q=  0.019 lam=     0.2     freq=  1201. Q=  0.030 lam=     0.5
 128     freq=  1205. Q=  0.091 lam=     5.0     freq=  1201. Q=  0.066 lam=     2.6
 129     freq=  1209. Q= -0.040 lam=     1.0     freq=  1207. Q= -0.216 lam=    28.2
 130     freq=  1210. Q=  0.001 lam=     0.0     freq=  1211. Q=  0.003 lam=     0.0
 131     freq=  1213. Q=  0.009 lam=     0.0     freq=  1221. Q=  0.057 lam=     2.0
 132     freq=  1223. Q= -0.077 lam=     3.6     freq=  1222. Q= -0.025 lam=     0.4
 133     freq=  1238. Q= -0.017 lam=     0.2     freq=  1241. Q= -0.019 lam=     0.2
 134     freq=  1258. Q=  0.000 lam=     0.0     freq=  1251. Q=  0.033 lam=     0.7
 135     freq=  1262. Q= -0.051 lam=     1.6     freq=  1259. Q= -0.068 lam=     2.9
 136     freq=  1278. Q=  0.003 lam=     0.0     freq=  1269. Q=  0.003 lam=     0.0
 137     freq=  1288. Q= -0.364 lam=    85.3     freq=  1296. Q= -0.003 lam=     0.0
 138     freq=  1298. Q= -0.031 lam=     0.6     freq=  1302. Q= -0.117 lam=     8.9
 139     freq=  1313. Q= -0.021 lam=     0.3     freq=  1310. Q= -0.147 lam=    14.2
 140     freq=  1320. Q=  0.252 lam=    42.1     freq=  1316. Q=  0.013 lam=     0.1
 141     freq=  1323. Q= -0.028 lam=     0.5     freq=  1323. Q= -0.000 lam=     0.0
 142     freq=  1339. Q=  0.054 lam=     1.9     freq=  1327. Q=  0.277 lam=    50.9
 143     freq=  1340. Q=  0.046 lam=     1.4     freq=  1335. Q=  0.001 lam=     0.0
 144     freq=  1344. Q=  0.005 lam=     0.0     freq=  1337. Q=  0.021 lam=     0.3
 145     freq=  1352. Q= -0.006 lam=     0.0     freq=  1356. Q= -0.139 lam=    13.1
 146     freq=  1366. Q=  0.000 lam=     0.0     freq=  1357. Q=  0.000 lam=     0.0
 147     freq=  1371. Q= -0.117 lam=     9.4     freq=  1369. Q= -0.022 lam=     0.3
 148     freq=  1376. Q= -0.018 lam=     0.2     freq=  1375. Q= -0.083 lam=     4.7
 149     freq=  1378. Q= -0.000 lam=     0.0     freq=  1382. Q= -0.001 lam=     0.0
 150     freq=  1388. Q=  0.005 lam=     0.0     freq=  1385. Q=  0.065 lam=     2.9
 151     freq=  1405. Q= -0.000 lam=     0.0     freq=  1401. Q= -0.000 lam=     0.0
 152     freq=  1410. Q=  0.111 lam=     8.7     freq=  1407. Q=  0.138 lam=    13.4
 153     freq=  1413. Q= -0.132 lam=    12.3     freq=  1417. Q= -0.035 lam=     0.9
 154     freq=  1423. Q=  0.023 lam=     0.4     freq=  1429. Q=  0.011 lam=     0.1
 155     freq=  1441. Q= -0.034 lam=     0.8     freq=  1434. Q= -0.006 lam=     0.0
 156     freq=  1445. Q=  0.003 lam=     0.0     freq=  1437. Q=  0.018 lam=     0.2
 157     freq=  1454. Q=  0.026 lam=     0.5     freq=  1455. Q=  0.059 lam=     2.5
 158     freq=  1483. Q=  0.003 lam=     0.0     freq=  1477. Q=  0.121 lam=    10.9
 159     freq=  1485. Q= -0.129 lam=    12.4     freq=  1480. Q= -0.001 lam=     0.0
 160     freq=  1486. Q=  0.006 lam=     0.0     freq=  1485. Q=  0.001 lam=     0.0
 161     freq=  1486. Q= -0.001 lam=     0.0     freq=  1491. Q= -0.013 lam=     0.1
 162     freq=  1494. Q=  0.008 lam=     0.1     freq=  1498. Q=  0.024 lam=     0.4
 163     freq=  1500. Q=  0.021 lam=     0.3     freq=  1505. Q=  0.000 lam=     0.0
 164     freq=  1504. Q=  0.000 lam=     0.0     freq=  1506. Q=  0.004 lam=     0.0
 165     freq=  1509. Q=  0.008 lam=     0.0     freq=  1522. Q=  0.019 lam=     0.3
 166     freq=  1521. Q=  0.018 lam=     0.2     freq=  1523. Q=  0.018 lam=     0.3
 167     freq=  1532. Q=  0.001 lam=     0.0     freq=  1543. Q=  0.034 lam=     0.9
 168     freq=  1539. Q=  0.081 lam=     5.0     freq=  1548. Q=  0.040 lam=     1.2
 169     freq=  1561. Q=  0.019 lam=     0.3     freq=  1561. Q=  0.014 lam=     0.1
 170     freq=  1564. Q= -0.001 lam=     0.0     freq=  1604. Q= -0.177 lam=    25.1
 171     freq=  1575. Q=  0.006 lam=     0.0     freq=  1607. Q=  0.008 lam=     0.0
 172     freq=  1584. Q=  0.077 lam=     4.7     freq=  1615. Q=  0.023 lam=     0.4
 173     freq=  1588. Q=  0.056 lam=     2.5     freq=  1620. Q=  0.047 lam=     1.8
 174     freq=  1603. Q=  0.008 lam=     0.1     freq=  1625. Q=  0.006 lam=     0.0
 175     freq=  1612. Q=  0.059 lam=     2.8     freq=  1631. Q=  0.033 lam=     0.9
 176     freq=  1612. Q= -0.028 lam=     0.6     freq=  1632. Q= -0.009 lam=     0.1
 177     freq=  1615. Q= -0.013 lam=     0.1     freq=  1644. Q= -0.206 lam=    34.7
 178     freq=  1627. Q= -0.012 lam=     0.1     freq=  1649. Q= -0.004 lam=     0.0
 179     freq=  1631. Q= -0.243 lam=    48.3     freq=  1651. Q= -0.162 lam=    21.6
 180     freq=  1715. Q= -0.002 lam=     0.0     freq=  1713. Q= -0.002 lam=     0.0
 181     freq=  1728. Q=  0.004 lam=     0.0     freq=  1734. Q=  0.003 lam=     0.0
 182     freq=  1759. Q= -0.108 lam=    10.2     freq=  1751. Q= -0.114 lam=    11.3
 183     freq=  1763. Q=  0.132 lam=    15.4     freq=  1768. Q=  0.085 lam=     6.4
 184     freq=  3041. Q= -0.000 lam=     0.0     freq=  3035. Q= -0.000 lam=     0.0
 185     freq=  3044. Q= -0.009 lam=     0.1     freq=  3039. Q= -0.009 lam=     0.1
 186     freq=  3100. Q= -0.000 lam=     0.0     freq=  3093. Q= -0.000 lam=     0.0
 187     freq=  3104. Q=  0.010 lam=     0.1     freq=  3096. Q=  0.008 lam=     0.1
 188     freq=  3117. Q= -0.003 lam=     0.0     freq=  3113. Q= -0.004 lam=     0.0
 189     freq=  3135. Q= -0.000 lam=     0.0     freq=  3133. Q= -0.000 lam=     0.0
 190     freq=  3146. Q=  0.006 lam=     0.1     freq=  3144. Q=  0.005 lam=     0.0
 191     freq=  3178. Q= -0.004 lam=     0.0     freq=  3160. Q= -0.002 lam=     0.0
 192     freq=  3184. Q= -0.000 lam=     0.0     freq=  3166. Q= -0.000 lam=     0.0
 193     freq=  3191. Q=  0.005 lam=     0.0     freq=  3174. Q=  0.005 lam=     0.0
 194     freq=  3195. Q=  0.001 lam=     0.0     freq=  3176. Q=  0.002 lam=     0.0
 195     freq=  3198. Q= -0.008 lam=     0.1     freq=  3178. Q= -0.002 lam=     0.0
 196     freq=  3201. Q=  0.000 lam=     0.0     freq=  3182. Q=  0.001 lam=     0.0
 197     freq=  3202. Q=  0.000 lam=     0.0     freq=  3190. Q=  0.016 lam=     0.4
 198     freq=  3203. Q=  0.000 lam=     0.0     freq=  3192. Q=  0.002 lam=     0.0
 199     freq=  3204. Q= -0.020 lam=     0.7     freq=  3194. Q= -0.001 lam=     0.0
 200     freq=  3208. Q= -0.000 lam=     0.0     freq=  3194. Q= -0.001 lam=     0.0
 201     freq=  3208. Q= -0.000 lam=     0.0     freq=  3195. Q= -0.032 lam=     1.7
 202     freq=  3212. Q= -0.003 lam=     0.0     freq=  3201. Q= -0.000 lam=     0.0
 203     freq=  3215. Q=  0.000 lam=     0.0     freq=  3201. Q=  0.000 lam=     0.0
 204     freq=  3215. Q=  0.000 lam=     0.0     freq=  3208. Q=  0.001 lam=     0.0
 205     freq=  3218. Q=  0.012 lam=     0.2     freq=  3208. Q=  0.001 lam=     0.0
 206     freq=  3226. Q= -0.007 lam=     0.1     freq=  3218. Q= -0.006 lam=     0.0
 207     freq=  3227. Q=  0.008 lam=     0.1     freq=  3218. Q=  0.009 lam=     0.1

 total reorg energy (cm**-1, kcal/mol)=      907.      591.      2.59      1.69
 Nber of molecules processed=           2
