 Enter ifcurve (0=recti, 1=orth curvi, 2=apprx curvi, -1 = skip
 And atom ordering flag, 0= never changes, 1= use the first order thenceforth,
  2= deduce it (does read on fail), 3= always read it
 Reading file: 
 ./IDT-A_1_C0S1.log                                                             
                                          
  Entering Gaussian System, Link 0=g16                                          
  
 Gaussian format, type: g94, g98, g03= F F F
  #P Geom=AllCheck Guess=TCheck SCRF=Check GenChk RCAM-B3LYP TD(FC,Read)    
 energy type= TD      
 Original G94 input coords:
  6  1.041912 -1.106450 -1.361758
  6  2.477686 -0.863377 -0.875154
  6  2.642849 -1.355196  0.569847
  6  3.492467 -1.502834 -1.798712
  6  3.803932 -2.812502 -2.225149
  6  4.854311 -2.824626 -3.097840
 16  5.482282 -1.238069 -3.414847
  6  4.310481 -0.546789 -2.354365
  6  3.963560  0.767201 -1.897830
  6  4.499654  2.032917 -2.180120
  6  3.934977  3.123095 -1.571600
  6  2.829829  2.972132 -0.673990
  6  2.294604  1.694380 -0.394167
  6  2.865135  0.611064 -1.006693
  6  2.482415  4.255966 -0.220952
 16  1.302896  4.932110  0.847088
  6  1.933614  6.569360  0.531621
  6  1.357736  7.698419  1.153263
  6  0.247686  7.591587  2.034473
  6 -0.291192  8.691961  2.647968
  6  0.214981  9.989987  2.426251
  6 -0.383035 11.178242  3.027216
  6 -0.551380 12.319924  2.222516
  6 -1.203768 13.441484  2.671410
  6 -1.724535 13.499179  3.970662
  6 -2.441843 14.638459  4.447878
  6 -2.929851 14.686084  5.708156
  6 -2.730587 13.597614  6.617566
  6 -3.211931 13.630762  7.928648
  6 -2.991375 12.570130  8.792929
  6 -2.283590 11.457620  8.371234
  6 -1.787931 11.381174  7.066243
  6 -1.024266 10.265341  6.602020
  6 -0.568293 10.200623  5.329522
  6 -0.836007 11.235070  4.373902
  6 -1.525300 12.391311  4.832250
  6 -2.016496 12.454954  6.170909
  6  1.298775 10.103358  1.526377
  6  1.857913  9.010107  0.922745
  6  3.019881  6.518017 -0.375768
  6  3.315981  5.241365 -0.785552
  6  4.328213  4.594612 -1.708730
  6  4.162690  5.084796 -3.154134
  6  5.764428  4.836387 -1.223089
  1  0.802519 -2.172016 -1.328836
  1  0.912701 -0.757469 -2.387245
  1  0.325080 -0.579843 -0.727472
  1  2.430614 -2.424962  0.635983
  1  1.953105 -0.832557  1.236614
  1  3.659513 -1.184566  0.926764
  1  3.289433 -3.711541 -1.913903
  1  5.305563 -3.676824 -3.581518
  1  5.336889  2.137884 -2.861352
  1  1.457503  1.587288  0.286444
  1 -0.199828  6.621280  2.213867
  1 -1.158921  8.565524  3.282371
  1 -0.209905 12.284643  1.195537
  1 -1.346055 14.286931  2.007694
  1 -2.589310 15.471882  3.770001
  1 -3.476136 15.555622  6.055699
  1 -3.760957 14.502684  8.265848
  1 -3.371136 12.614600  9.806785
  1 -2.103864 10.633810  9.052659
  1 -0.795960  9.469362  7.302004
  1  0.040498  9.359954  5.029245
  1  1.726537 11.081170  1.340875
  1  2.706807  9.151547  0.266552
  1  3.543047  7.406551 -0.697710
  1  4.850261  4.558546 -3.820428
  1  4.377310  6.154032 -3.221116
  1  3.145137  4.917238 -3.509583
  1  5.893286  4.490749 -0.196560
  1  6.004810  5.901644 -1.258624
  1  6.479529  4.306065 -1.856367
 nber atoms=          74
  Total Energy, E(TD-HF/TD-DFT) =  -2414.33196416                               
  
          32          49 "  -2414.33196416"
After scan for Atom:   Atom  AN      X      Y      Z        X      Y      Z        X      Y      Z   
After scan for Atom:   Atom  AN      X      Y      Z        X      Y      Z        X      Y      Z   
After scan for Atom:   Atom  AN      X      Y      Z        X      Y      Z        X      Y      Z   
After scan for Atom:   Atom  AN      X      Y      Z        X      Y      Z        X      Y      Z   
After scan for Atom:   Atom  AN      X      Y      Z        X      Y      Z        X      Y      Z   
After scan for Atom:   Atom  AN      X      Y      Z        X      Y      Z        X      Y      Z   
After scan for Atom:   Atom  AN      X      Y      Z        X      Y      Z        X      Y      Z   
After scan for Atom:   Atom  AN      X      Y      Z        X      Y      Z        X      Y      Z   
After scan for Atom:   Atom  AN      X      Y      Z        X      Y      Z        X      Y      Z   
After scan for Atom:   Atom  AN      X      Y      Z        X      Y      Z        X      Y      Z   
After scan for Atom:   Atom  AN      X      Y      Z        X      Y      Z        X      Y      Z   
After scan for Atom:   Atom  AN      X      Y      Z        X      Y      Z        X      Y      Z   
After scan for Atom:   Atom  AN      X      Y      Z        X      Y      Z        X      Y      Z   
After scan for Atom:   Atom  AN      X      Y      Z        X      Y      Z        X      Y      Z   
After scan for Atom:   Atom  AN      X      Y      Z        X      Y      Z        X      Y      Z   
After scan for Atom:   Atom  AN      X      Y      Z        X      Y      Z        X      Y      Z   
After scan for Atom:   Atom  AN      X      Y      Z        X      Y      Z        X      Y      Z   
After scan for Atom:   Atom  AN      X      Y      Z        X      Y      Z        X      Y      Z   
After scan for Atom:   Atom  AN      X      Y      Z        X      Y      Z        X      Y      Z   
After scan for Atom:   Atom  AN      X      Y      Z        X      Y      Z        X      Y      Z   
After scan for Atom:   Atom  AN      X      Y      Z        X      Y      Z        X      Y      Z   
After scan for Atom:   Atom  AN      X      Y      Z        X      Y      Z        X      Y      Z   
After scan for Atom:   Atom  AN      X      Y      Z        X      Y      Z        X      Y      Z   
After scan for Atom:   Atom  AN      X      Y      Z        X      Y      Z        X      Y      Z   
After scan for Atom:   Atom  AN      X      Y      Z        X      Y      Z        X      Y      Z   
After scan for Atom:   Atom  AN      X      Y      Z        X      Y      Z        X      Y      Z   
After scan for Atom:   Atom  AN      X      Y      Z        X      Y      Z        X      Y      Z   
After scan for Atom:   Atom  AN      X      Y      Z        X      Y      Z        X      Y      Z   
After scan for Atom:   Atom  AN      X      Y      Z        X      Y      Z        X      Y      Z   
After scan for Atom:   Atom  AN      X      Y      Z        X      Y      Z        X      Y      Z   
After scan for Atom:   Atom  AN      X      Y      Z        X      Y      Z        X      Y      Z   
After scan for Atom:   Atom  AN      X      Y      Z        X      Y      Z        X      Y      Z   
After scan for Atom:   Atom  AN      X      Y      Z        X      Y      Z        X      Y      Z   
After scan for Atom:   Atom  AN      X      Y      Z        X      Y      Z        X      Y      Z   
After scan for Atom:   Atom  AN      X      Y      Z        X      Y      Z        X      Y      Z   
After scan for Atom:   Atom  AN      X      Y      Z        X      Y      Z        X      Y      Z   
After scan for Atom:   Atom  AN      X      Y      Z        X      Y      Z        X      Y      Z   
After scan for Atom:   Atom  AN      X      Y      Z        X      Y      Z        X      Y      Z   
After scan for Atom:   Atom  AN      X      Y      Z        X      Y      Z        X      Y      Z   
After scan for Atom:   Atom  AN      X      Y      Z        X      Y      Z        X      Y      Z   
After scan for Atom:   Atom  AN      X      Y      Z        X      Y      Z        X      Y      Z   
After scan for Atom:   Atom  AN      X      Y      Z        X      Y      Z        X      Y      Z   
After scan for Atom:   Atom  AN      X      Y      Z        X      Y      Z        X      Y      Z   
After scan for Atom:   Atom  AN      X      Y      Z        X      Y      Z        X      Y      Z   
After scan for Atom:   Atom  AN      X      Y      Z        X      Y      Z        X      Y      Z   
After scan for Atom:   Atom  AN      X      Y      Z        X      Y      Z        X      Y      Z   
After scan for Atom:   Atom  AN      X      Y      Z        X      Y      Z        X      Y      Z   
After scan for Atom:   Atom  AN      X      Y      Z        X      Y      Z        X      Y      Z   
After scan for Atom:   Atom  AN      X      Y      Z        X      Y      Z        X      Y      Z   
After scan for Atom:   Atom  AN      X      Y      Z        X      Y      Z        X      Y      Z   
After scan for Atom:   Atom  AN      X      Y      Z        X      Y      Z        X      Y      Z   
After scan for Atom:   Atom  AN      X      Y      Z        X      Y      Z        X      Y      Z   
After scan for Atom:   Atom  AN      X      Y      Z        X      Y      Z        X      Y      Z   
After scan for Atom:   Atom  AN      X      Y      Z        X      Y      Z        X      Y      Z   
After scan for Atom:   Atom  AN      X      Y      Z        X      Y      Z        X      Y      Z   
After scan for Atom:   Atom  AN      X      Y      Z        X      Y      Z        X      Y      Z   
After scan for Atom:   Atom  AN      X      Y      Z        X      Y      Z        X      Y      Z   
After scan for Atom:   Atom  AN      X      Y      Z        X      Y      Z        X      Y      Z   
After scan for Atom:   Atom  AN      X      Y      Z        X      Y      Z        X      Y      Z   
After scan for Atom:   Atom  AN      X      Y      Z        X      Y      Z        X      Y      Z   
After scan for Atom:   Atom  AN      X      Y      Z        X      Y      Z        X      Y      Z   
After scan for Atom:   Atom  AN      X      Y      Z        X      Y      Z        X      Y      Z   
After scan for Atom:   Atom  AN      X      Y      Z        X      Y      Z        X      Y      Z   
After scan for Atom:   Atom  AN      X      Y      Z        X      Y      Z        X      Y      Z   
After scan for Atom:   Atom  AN      X      Y      Z        X      Y      Z        X      Y      Z   
After scan for Atom:   Atom  AN      X      Y      Z        X      Y      Z        X      Y      Z   
After scan for Atom:   Atom  AN      X      Y      Z        X      Y      Z        X      Y      Z   
After scan for Atom:   Atom  AN      X      Y      Z        X      Y      Z        X      Y      Z   
After scan for Atom:   Atom  AN      X      Y      Z        X      Y      Z        X      Y      Z   
After scan for Atom:   Atom  AN      X      Y      Z        X      Y      Z        X      Y      Z   
After scan for Atom:   Atom  AN      X      Y      Z        X      Y      Z        X      Y      Z   
After scan for Atom:   Atom  AN      X      Y      Z        X      Y      Z        X      Y      Z   
 g94    frequencies=
     0.0    0.0    0.0    0.0    0.0    0.0   10.3   14.3   21.4   27.1
    46.8   52.0   66.5   71.9   90.6  104.0  106.4  112.3  118.5  129.2
   142.6  154.5  161.2  187.9  197.8  210.2  222.8  227.1  234.5  244.9
   248.5  249.5  267.2  274.4  282.9  292.0  295.8  306.7  319.3  333.9
   351.8  373.3  379.7  411.0  417.1  418.8  427.0  429.9  440.5  454.4
   456.6  467.5  485.0  492.5  502.5  513.0  518.9  527.8  528.9  546.3
   555.0  563.6  573.6  575.5  582.3  612.5  625.5  636.5  640.9  649.6
   664.2  678.0  678.0  684.4  703.6  710.8  716.1  723.3  728.4  744.0
   746.8  754.5  758.6  780.9  782.7  790.2  814.8  819.4  820.9  829.9
   839.9  843.3  846.5  856.8  865.0  869.2  878.2  881.8  889.4  908.8
   911.6  916.0  929.7  951.2  962.5  962.6  985.5  993.3  995.1  998.5
   999.8 1002.2 1009.4 1010.5 1015.1 1016.8 1022.5 1037.4 1037.8 1039.1
  1084.9 1108.1 1110.9 1114.1 1140.0 1141.9 1152.3 1169.6 1176.5 1183.9
  1190.0 1190.6 1191.4 1191.7 1211.7 1218.5 1224.5 1241.7 1250.9 1256.1
  1259.5 1266.7 1275.4 1281.8 1290.7 1301.1 1302.7 1318.2 1337.6 1344.5
  1367.2 1380.6 1386.1 1399.0 1406.7 1409.2 1409.4 1416.2 1425.9 1430.3
  1431.1 1449.5 1458.1 1460.2 1473.9 1482.0 1490.1 1490.2 1492.1 1494.0
  1498.6 1508.1 1508.4 1509.9 1514.5 1515.4 1529.6 1536.8 1541.2 1541.9
  1550.7 1557.8 1566.4 1578.0 1590.9 1600.1 1629.0 1653.2 1668.6 1677.0
  1682.2 1695.4 3047.9 3048.1 3051.6 3051.9 3114.6 3114.9 3119.7 3119.8
  3131.6 3132.5 3133.6 3134.5 3180.0 3182.0 3185.4 3186.9 3187.2 3190.6
  3191.0 3191.5 3193.8 3199.7 3207.0 3208.3 3212.7 3215.1 3222.0 3231.5
  3238.2 3262.6
 g94    symmetries=
                                                 A      A      A      A
       A      A      A      A      A      A      A      A      A      A
       A      A      A      A      A      A      A      A      A      A
       A      A      A      A      A      A      A      A      A      A
       A      A      A      A      A      A      A      A      A      A
       A      A      A      A      A      A      A      A      A      A
       A      A      A      A      A      A      A      A      A      A
       A      A      A      A      A      A      A      A      A      A
       A      A      A      A      A      A      A      A      A      A
       A      A      A      A      A      A      A      A      A      A
       A      A      A      A      A      A      A      A      A      A
       A      A      A      A      A      A      A      A      A      A
       A      A      A      A      A      A      A      A      A      A
       A      A      A      A      A      A      A      A      A      A
       A      A      A      A      A      A      A      A      A      A
       A      A      A      A      A      A      A      A      A      A
       A      A      A      A      A      A      A      A      A      A
       A      A      A      A      A      A      A      A      A      A
       A      A      A      A      A      A      A      A      A      A
       A      A      A      A      A      A      A      A      A      A
       A      A      A      A      A      A      A      A      A      A
       A      A      A      A      A      A      A      A      A      A
       A      A
 atomic masses:
 12.0000 12.0000 12.0000 12.0000 12.0000 12.0000 31.9721 12.0000 12.0000 12.0000
 12.0000 12.0000 12.0000 12.0000 12.0000 31.9721 12.0000 12.0000 12.0000 12.0000
 12.0000 12.0000 12.0000 12.0000 12.0000 12.0000 12.0000 12.0000 12.0000 12.0000
 12.0000 12.0000 12.0000 12.0000 12.0000 12.0000 12.0000 12.0000 12.0000 12.0000
 12.0000 12.0000 12.0000 12.0000  1.0078  1.0078  1.0078  1.0078  1.0078  1.0078
  1.0078  1.0078  1.0078  1.0078  1.0078  1.0078  1.0078  1.0078  1.0078  1.0078
  1.0078  1.0078  1.0078  1.0078  1.0078  1.0078  1.0078  1.0078  1.0078  1.0078
  1.0078  1.0078  1.0078  1.0078
 looking for force constants in 
 ./IDT-A_1_C0S1.fchk                                                            
  
 Cartesian Force Constants                  R   N=       24753                  
  
 n3=         222       24753
 g94-fc frequencies=
    -0.8   -0.0   -0.0    0.0    0.6    3.0   10.3   14.3   21.4   27.1
    46.8   52.0   66.5   71.9   90.6  104.0  106.4  112.3  118.5  129.2
   142.6  154.5  161.2  187.9  197.8  210.2  222.8  227.1  234.5  244.9
   248.5  249.6  267.2  274.4  282.9  292.0  295.8  306.7  319.3  333.9
   351.8  373.3  379.7  411.0  417.1  418.8  427.0  430.0  440.5  454.5
   456.6  467.5  485.0  492.5  502.5  513.0  518.9  527.8  528.9  546.4
   555.0  563.6  573.6  575.5  582.3  612.5  625.6  636.5  640.9  649.6
   664.2  678.0  678.0  684.5  703.6  710.8  716.1  723.3  728.4  744.0
   746.8  754.6  758.6  780.9  782.8  790.2  814.9  819.4  820.9  829.9
   839.9  843.3  846.6  856.8  865.0  869.2  878.2  881.9  889.4  908.8
   911.7  916.0  929.7  951.3  962.5  962.6  985.5  993.3  995.2  998.5
   999.8 1002.2 1009.4 1010.6 1015.2 1016.8 1022.5 1037.4 1037.8 1039.1
  1084.9 1108.1 1110.9 1114.1 1140.0 1142.0 1152.3 1169.6 1176.5 1184.0
  1190.1 1190.6 1191.4 1191.8 1211.7 1218.5 1224.5 1241.8 1250.9 1256.1
  1259.5 1266.7 1275.4 1281.8 1290.7 1301.1 1302.7 1318.2 1337.7 1344.5
  1367.2 1380.6 1386.2 1399.0 1406.8 1409.2 1409.4 1416.2 1425.9 1430.3
  1431.1 1449.5 1458.2 1460.3 1473.9 1482.0 1490.1 1490.2 1492.1 1494.0
  1498.6 1508.1 1508.5 1510.0 1514.5 1515.4 1529.6 1536.8 1541.2 1542.0
  1550.8 1557.8 1566.4 1578.0 1590.9 1600.2 1629.0 1653.2 1668.7 1677.1
  1682.3 1695.5 3048.0 3048.2 3051.7 3052.0 3114.7 3114.9 3119.8 3119.9
  3131.7 3132.6 3133.7 3134.6 3180.1 3182.1 3185.5 3187.0 3187.3 3190.7
  3191.0 3191.6 3193.9 3199.8 3207.1 3208.4 3212.8 3215.2 3222.1 3231.6
  3238.3 3262.7
 at 99999: n3=         222
 symm operator            1 :  F  nop=           0
 symm operator            2 :  F  nop=           0
 symm operator            3 :  F  nop=           0
 symm operator            4 :  F  nop=           0
 symm operator            5 :  F  nop=           0
 symm operator            6 :  F  nop=           0
 symm operator            7 :  F  nop=           0
 The point group of the molecule is  C1
 Symmetry rotation matrix:
   1.00000   0.00000   0.00000
   0.00000   1.00000   0.00000
   0.00000   0.00000   1.00000

 Projecting out zero-frequency components
 generating redundant internal coords
         300        3600          74
 search for int coords
   1 str   2   1   1.535
   2 str   3   2   1.535
   3 str   4   2   1.514
   4 str   5   4   1.412
   5 str   6   5   1.366
   6 str   7   6   1.736
   7 str   8   4   1.375
   8 str   8   7   1.725
   9 str   9   8   1.434
  10 str  10   9   1.403
  11 str  11  10   1.370
  12 str  12  11   1.432
  13 str  13  12   1.413
  14 str  14   2   1.530
  15 str  14   9   1.423
  16 str  14  13   1.369
  17 str  15  12   1.405
  18 str  16  15   1.729
  19 str  17  16   1.783
  20 str  18  17   1.412
  21 str  19  18   1.421
  22 str  20  19   1.370
  23 str  21  20   1.411
  24 str  22  21   1.460
  25 str  23  22   1.407
  26 str  24  23   1.373
  27 str  25  24   1.401
  28 str  26  25   1.428
  29 str  27  26   1.352
  30 str  28  27   1.432
  31 str  29  28   1.397
  32 str  30  29   1.386
  33 str  31  30   1.384
  34 str  32  31   1.398
  35 str  33  32   1.430
  36 str  34  33   1.353
  37 str  35  22   1.422
  38 str  35  34   1.434
  39 str  36  25   1.418
  40 str  36  35   1.422
  41 str  37  28   1.420
  42 str  37  32   1.417
  43 str  37  36   1.427
  44 str  38  21   1.413
  45 str  39  18   1.423
  46 str  39  38   1.368
  47 str  40  17   1.416
  48 str  41  15   1.409
  49 str  41  40   1.373
  50 str  42  11   1.529
  51 str  42  41   1.515
  52 str  43  42   1.535
  53 str  44  42   1.535
  54 str  45   1   1.093
  55 str  46   1   1.091
  56 str  47   1   1.092
  57 str  48   3   1.093
  58 str  49   3   1.092
  59 str  50   3   1.091
  60 str  51   5   1.082
  61 str  52   6   1.079
  62 str  53  10   1.084
  63 str  54  13   1.084
  64 str  55  19   1.083
  65 str  56  20   1.082
  66 str  57  23   1.083
  67 str  58  24   1.084
  68 str  59  26   1.084
  69 str  60  27   1.084
  70 str  61  29   1.084
  71 str  62  30   1.084
  72 str  63  31   1.084
  73 str  64  33   1.084
  74 str  65  34   1.081
  75 str  66  38   1.083
  76 str  67  39   1.082
  77 str  68  40   1.080
  78 str  69  43   1.093
  79 str  70  43   1.093
  80 str  71  43   1.091
  81 str  72  44   1.091
  82 str  73  44   1.093
  83 str  74  44   1.093
 nber stretches=          83
  84 ben   1   2   3
  85 prop tor   1   2   3  48
  86 prop tor   1   2   3  49
  87 prop tor   1   2   3  50
  88 ben   1   2   4
  89 prop tor   1   2   4   5
  90 prop tor   1   2   4   8
  91 ben   1   2  14
  92 prop tor   1   2  14   9
  93 prop tor   1   2  14  13
  94 ben   2   1  45
  95 ben   2   1  46
  96 ben   2   1  47
  97 ben   2   3  48
  98 ben   2   3  49
  99 ben   2   3  50
 100 ben   2   4   5
 101 prop tor   2   4   5   6
 102 prop tor   2   4   5  51
 103 ben   2   4   8
 104 prop tor   2   4   8   7
 105 prop tor   2   4   8   9
 106 ben   2  14   9
 107 ben   2  14  13
 108 ben   3   2   4
 109 prop tor   3   2   4   5
 110 prop tor   3   2   4   8
 111 ben   3   2  14
 112 prop tor   3   2  14   9
 113 prop tor   3   2  14  13
 114 prop tor   4   2   3  48
 115 prop tor   4   2   3  49
 116 prop tor   4   2   3  50
 117 ben   4   2  14
 118 prop tor   4   2  14   9
 119 prop tor   4   2  14  13
 120 ben   4   5   6
 121 prop tor   4   5   6   7
 122 prop tor   4   5   6  52
 123 ben   4   5  51
 124 ben   4   8   7
 125 ben   4   8   9
 126 prop tor   4   8   9  10
 127 prop tor   4   8   9  14
 128 ben   5   4   8
 129 prop tor   5   4   8   7
 130 prop tor   5   4   8   9
 131 ben   5   6   7
 132 prop tor   5   6   7   8
 133 ben   5   6  52
 134 ben   6   5  51
 135 ben   6   7   8
 136 prop tor   6   7   8   4
 137 prop tor   6   7   8   9
 138 ben   7   6  52
 139 ben   7   8   9
 140 prop tor   7   8   9  10
 141 prop tor   7   8   9  14
 142 prop tor   8   4   5   6
 143 prop tor   8   4   5  51
 144 ben   8   9  10
 145 prop tor   8   9  10  11
 146 prop tor   8   9  10  53
 147 ben   8   9  14
 148 prop tor   8   9  14   2
 149 prop tor   8   9  14  13
 150 ben   9  10  11
 151 prop tor   9  10  11  12
 152 prop tor   9  10  11  42
 153 ben   9  10  53
 154 ben   9  14  13
 155 ben  10   9  14
 156 prop tor  10   9  14   2
 157 prop tor  10   9  14  13
 158 ben  10  11  12
 159 prop tor  10  11  12  13
 160 prop tor  10  11  12  15
 161 ben  10  11  42
 162 prop tor  10  11  42  41
 163 prop tor  10  11  42  43
 164 prop tor  10  11  42  44
 165 ben  11  10  53
 166 ben  11  12  13
 167 prop tor  11  12  13  14
 168 prop tor  11  12  13  54
 169 ben  11  12  15
 170 prop tor  11  12  15  16
 171 prop tor  11  12  15  41
 172 ben  11  42  41
 173 ben  11  42  43
 174 prop tor  11  42  43  69
 175 prop tor  11  42  43  70
 176 prop tor  11  42  43  71
 177 ben  11  42  44
 178 prop tor  11  42  44  72
 179 prop tor  11  42  44  73
 180 prop tor  11  42  44  74
 181 ben  12  11  42
 182 prop tor  12  11  42  41
 183 prop tor  12  11  42  43
 184 prop tor  12  11  42  44
 185 ben  12  13  14
 186 prop tor  12  13  14   2
 187 prop tor  12  13  14   9
 188 ben  12  13  54
 189 ben  12  15  16
 190 prop tor  12  15  16  17
 191 ben  12  15  41
 192 prop tor  12  15  41  40
 193 prop tor  12  15  41  42
 194 ben  13  12  15
 195 prop tor  13  12  15  16
 196 prop tor  13  12  15  41
 197 prop tor  14   2   3  48
 198 prop tor  14   2   3  49
 199 prop tor  14   2   3  50
 200 prop tor  14   2   4   5
 201 prop tor  14   2   4   8
 202 prop tor  14   9  10  11
 203 prop tor  14   9  10  53
 204 ben  14  13  54
 205 prop tor  15  12  13  14
 206 prop tor  15  12  13  54
 207 ben  15  16  17
 208 prop tor  15  16  17  18
 209 prop tor  15  16  17  40
 210 ben  15  41  40
 211 ben  15  41  42
 212 prop tor  15  41  42  11
 213 prop tor  15  41  42  43
 214 prop tor  15  41  42  44
 215 ben  16  15  41
 216 prop tor  16  15  41  40
 217 prop tor  16  15  41  42
 218 ben  16  17  18
 219 prop tor  16  17  18  19
 220 prop tor  16  17  18  39
 221 ben  16  17  40
 222 prop tor  16  17  40  41
 223 prop tor  16  17  40  68
 224 ben  17  18  19
 225 prop tor  17  18  19  20
 226 prop tor  17  18  19  55
 227 ben  17  18  39
 228 prop tor  17  18  39  38
 229 prop tor  17  18  39  67
 230 ben  17  40  41
 231 prop tor  17  40  41  15
 232 prop tor  17  40  41  42
 233 ben  17  40  68
 234 ben  18  17  40
 235 prop tor  18  17  40  41
 236 prop tor  18  17  40  68
 237 ben  18  19  20
 238 prop tor  18  19  20  21
 239 prop tor  18  19  20  56
 240 ben  18  19  55
 241 ben  18  39  38
 242 ben  18  39  67
 243 ben  19  18  39
 244 prop tor  19  18  39  38
 245 prop tor  19  18  39  67
 246 ben  19  20  21
 247 prop tor  19  20  21  22
 248 prop tor  19  20  21  38
 249 ben  19  20  56
 250 ben  20  19  55
 251 ben  20  21  22
 252 prop tor  20  21  22  23
 253 prop tor  20  21  22  35
 254 ben  20  21  38
 255 prop tor  20  21  38  39
 256 prop tor  20  21  38  66
 257 ben  21  20  56
 258 ben  21  22  23
 259 prop tor  21  22  23  24
 260 prop tor  21  22  23  57
 261 ben  21  22  35
 262 prop tor  21  22  35  34
 263 prop tor  21  22  35  36
 264 ben  21  38  39
 265 prop tor  21  38  39  18
 266 prop tor  21  38  39  67
 267 ben  21  38  66
 268 ben  22  21  38
 269 prop tor  22  21  38  39
 270 prop tor  22  21  38  66
 271 ben  22  23  24
 272 prop tor  22  23  24  25
 273 prop tor  22  23  24  58
 274 ben  22  23  57
 275 ben  22  35  34
 276 ben  22  35  36
 277 prop tor  22  35  36  25
 278 prop tor  22  35  36  37
 279 ben  23  22  35
 280 prop tor  23  22  35  34
 281 prop tor  23  22  35  36
 282 ben  23  24  25
 283 prop tor  23  24  25  26
 284 prop tor  23  24  25  36
 285 ben  23  24  58
 286 ben  24  23  57
 287 ben  24  25  26
 288 prop tor  24  25  26  27
 289 prop tor  24  25  26  59
 290 ben  24  25  36
 291 prop tor  24  25  36  35
 292 prop tor  24  25  36  37
 293 ben  25  24  58
 294 ben  25  26  27
 295 prop tor  25  26  27  28
 296 prop tor  25  26  27  60
 297 ben  25  26  59
 298 ben  25  36  35
 299 ben  25  36  37
 300 prop tor  25  36  37  28
 301 prop tor  25  36  37  32
 302 ben  26  25  36
 303 prop tor  26  25  36  35
 304 prop tor  26  25  36  37
 305 ben  26  27  28
 306 prop tor  26  27  28  29
 307 prop tor  26  27  28  37
 308 ben  26  27  60
 309 ben  27  26  59
 310 ben  27  28  29
 311 prop tor  27  28  29  30
 312 prop tor  27  28  29  61
 313 ben  27  28  37
 314 prop tor  27  28  37  32
 315 prop tor  27  28  37  36
 316 ben  28  27  60
 317 ben  28  29  30
 318 prop tor  28  29  30  31
 319 prop tor  28  29  30  62
 320 ben  28  29  61
 321 ben  28  37  32
 322 ben  28  37  36
 323 ben  29  28  37
 324 prop tor  29  28  37  32
 325 prop tor  29  28  37  36
 326 ben  29  30  31
 327 prop tor  29  30  31  32
 328 prop tor  29  30  31  63
 329 ben  29  30  62
 330 ben  30  29  61
 331 ben  30  31  32
 332 prop tor  30  31  32  33
 333 prop tor  30  31  32  37
 334 ben  30  31  63
 335 ben  31  30  62
 336 ben  31  32  33
 337 prop tor  31  32  33  34
 338 prop tor  31  32  33  64
 339 ben  31  32  37
 340 prop tor  31  32  37  28
 341 prop tor  31  32  37  36
 342 ben  32  31  63
 343 ben  32  33  34
 344 prop tor  32  33  34  35
 345 prop tor  32  33  34  65
 346 ben  32  33  64
 347 ben  32  37  36
 348 ben  33  32  37
 349 prop tor  33  32  37  28
 350 prop tor  33  32  37  36
 351 ben  33  34  35
 352 prop tor  33  34  35  22
 353 prop tor  33  34  35  36
 354 ben  33  34  65
 355 ben  34  33  64
 356 ben  34  35  36
 357 prop tor  34  35  36  25
 358 prop tor  34  35  36  37
 359 prop tor  35  22  23  24
 360 prop tor  35  22  23  57
 361 ben  35  34  65
 362 ben  35  36  37
 363 prop tor  35  36  37  28
 364 prop tor  35  36  37  32
 365 prop tor  36  25  26  27
 366 prop tor  36  25  26  59
 367 prop tor  37  28  29  30
 368 prop tor  37  28  29  61
 369 prop tor  37  32  33  34
 370 prop tor  37  32  33  64
 371 prop tor  38  21  22  23
 372 prop tor  38  21  22  35
 373 ben  38  39  67
 374 prop tor  39  18  19  20
 375 prop tor  39  18  19  55
 376 ben  39  38  66
 377 prop tor  40  17  18  19
 378 prop tor  40  17  18  39
 379 ben  40  41  42
 380 prop tor  40  41  42  11
 381 prop tor  40  41  42  43
 382 prop tor  40  41  42  44
 383 prop tor  41  15  16  17
 384 ben  41  40  68
 385 ben  41  42  43
 386 prop tor  41  42  43  69
 387 prop tor  41  42  43  70
 388 prop tor  41  42  43  71
 389 ben  41  42  44
 390 prop tor  41  42  44  72
 391 prop tor  41  42  44  73
 392 prop tor  41  42  44  74
 393 prop tor  42  11  12  13
 394 prop tor  42  11  12  15
 395 ben  42  43  69
 396 ben  42  43  70
 397 ben  42  43  71
 398 ben  42  44  72
 399 ben  42  44  73
 400 ben  42  44  74
 401 ben  43  42  44
 402 prop tor  43  42  44  72
 403 prop tor  43  42  44  73
 404 prop tor  43  42  44  74
 405 prop tor  44  42  43  69
 406 prop tor  44  42  43  70
 407 prop tor  44  42  43  71
 408 prop tor  45   1   2   3
 409 prop tor  45   1   2   4
 410 prop tor  45   1   2  14
 411 ben  45   1  46
 412 ben  45   1  47
 413 prop tor  46   1   2   3
 414 prop tor  46   1   2   4
 415 prop tor  46   1   2  14
 416 ben  46   1  47
 417 prop tor  47   1   2   3
 418 prop tor  47   1   2   4
 419 prop tor  47   1   2  14
 420 ben  48   3  49
 421 ben  48   3  50
 422 ben  49   3  50
 423 prop tor  51   5   6   7
 424 prop tor  51   5   6  52
 425 prop tor  52   6   7   8
 426 prop tor  53  10  11  12
 427 prop tor  53  10  11  42
 428 prop tor  54  13  14   2
 429 prop tor  54  13  14   9
 430 prop tor  55  19  20  21
 431 prop tor  55  19  20  56
 432 prop tor  56  20  21  22
 433 prop tor  56  20  21  38
 434 prop tor  57  23  24  25
 435 prop tor  57  23  24  58
 436 prop tor  58  24  25  26
 437 prop tor  58  24  25  36
 438 prop tor  59  26  27  28
 439 prop tor  59  26  27  60
 440 prop tor  60  27  28  29
 441 prop tor  60  27  28  37
 442 prop tor  61  29  30  31
 443 prop tor  61  29  30  62
 444 prop tor  62  30  31  32
 445 prop tor  62  30  31  63
 446 prop tor  63  31  32  33
 447 prop tor  63  31  32  37
 448 prop tor  64  33  34  35
 449 prop tor  64  33  34  65
 450 prop tor  65  34  35  22
 451 prop tor  65  34  35  36
 452 prop tor  66  38  39  18
 453 prop tor  66  38  39  67
 454 prop tor  68  40  41  15
 455 prop tor  68  40  41  42
 456 ben  69  43  70
 457 ben  69  43  71
 458 ben  70  43  71
 459 ben  72  44  73
 460 ben  72  44  74
 461 ben  73  44  74
 nber bend=             146
 nber lin bend=           0
 nber prop tor=         232
 nber impr tor=           0
 nber tot redund int=         461
 Eigenvalues of G in red int coords
    Gval -0.00000000 -0.00000000 -0.00000000 -0.00000000 -0.00000000 -0.00000000 -0.00000000 -0.00000000
    Gval -0.00000000 -0.00000000 -0.00000000 -0.00000000 -0.00000000 -0.00000000 -0.00000000 -0.00000000
    Gval -0.00000000 -0.00000000 -0.00000000 -0.00000000 -0.00000000 -0.00000000 -0.00000000 -0.00000000
    Gval -0.00000000 -0.00000000 -0.00000000 -0.00000000 -0.00000000 -0.00000000 -0.00000000 -0.00000000
    Gval -0.00000000 -0.00000000 -0.00000000 -0.00000000 -0.00000000 -0.00000000 -0.00000000 -0.00000000
    Gval -0.00000000 -0.00000000 -0.00000000 -0.00000000 -0.00000000 -0.00000000 -0.00000000 -0.00000000
    Gval -0.00000000 -0.00000000 -0.00000000 -0.00000000 -0.00000000 -0.00000000 -0.00000000 -0.00000000
    Gval -0.00000000 -0.00000000 -0.00000000 -0.00000000 -0.00000000 -0.00000000 -0.00000000 -0.00000000
    Gval -0.00000000 -0.00000000 -0.00000000 -0.00000000 -0.00000000 -0.00000000 -0.00000000 -0.00000000
    Gval -0.00000000 -0.00000000 -0.00000000 -0.00000000 -0.00000000 -0.00000000 -0.00000000 -0.00000000
    Gval -0.00000000 -0.00000000 -0.00000000 -0.00000000 -0.00000000 -0.00000000 -0.00000000 -0.00000000
    Gval -0.00000000 -0.00000000 -0.00000000 -0.00000000 -0.00000000 -0.00000000 -0.00000000 -0.00000000
    Gval -0.00000000 -0.00000000 -0.00000000 -0.00000000 -0.00000000 -0.00000000 -0.00000000 -0.00000000
    Gval -0.00000000 -0.00000000 -0.00000000 -0.00000000 -0.00000000 -0.00000000 -0.00000000 -0.00000000
    Gval -0.00000000 -0.00000000 -0.00000000 -0.00000000 -0.00000000 -0.00000000 -0.00000000 -0.00000000
    Gval -0.00000000 -0.00000000  0.00000000  0.00000000  0.00000000  0.00000000  0.00000000  0.00000000
    Gval  0.00000000  0.00000000  0.00000000  0.00000000  0.00000000  0.00000000  0.00000000  0.00000000
    Gval  0.00000000  0.00000000  0.00000000  0.00000000  0.00000000  0.00000000  0.00000000  0.00000000
    Gval  0.00000000  0.00000000  0.00000000  0.00000000  0.00000000  0.00000000  0.00000000  0.00000000
    Gval  0.00000000  0.00000000  0.00000000  0.00000000  0.00000000  0.00000000  0.00000000  0.00000000
    Gval  0.00000000  0.00000000  0.00000000  0.00000000  0.00000000  0.00000000  0.00000000  0.00000000
    Gval  0.00000000  0.00000000  0.00000000  0.00000000  0.00000000  0.00000000  0.00000000  0.00000000
    Gval  0.00000000  0.00000000  0.00000000  0.00000000  0.00000000  0.00000000  0.00000000  0.00000000
    Gval  0.00000000  0.00000000  0.00000000  0.00000000  0.00000000  0.00000000  0.00000000  0.00000000
    Gval  0.00000000  0.00000000  0.00000000  0.00000000  0.00000000  0.00000000  0.00000000  0.00000000
    Gval  0.00000000  0.00000000  0.00000000  0.00000000  0.00000000  0.00000000  0.00000000  0.00000000
    Gval  0.00000000  0.00000000  0.00000000  0.00000000  0.00000000  0.00000000  0.00000000  0.00000000
    Gval  0.00000000  0.00000000  0.00000000  0.00000000  0.00000000  0.00000000  0.00000000  0.00000000
    Gval  0.00000000  0.00000000  0.00000000  0.00000000  0.00000000  0.00000000  0.00000000  0.00000000
    Gval  0.00000000  0.00000000  0.00000000  0.00000000  0.00000000  0.00000000  0.00000000  0.00000000
    Gval  0.00000000  0.00000000  0.00000000  0.00000000  0.00000000  0.00000011  0.00000046  0.00000088
    Gval  0.00000110  0.00000159  0.00000259  0.00000386  0.00000479  0.00000729  0.00000868  0.00001101
    Gval  0.00001370  0.00001411  0.00001474  0.00001647  0.00001809  0.00002053  0.00002352  0.00002398
    Gval  0.00002460  0.00002834  0.00002961  0.00002996  0.00003025  0.00003166  0.00003581  0.00003864
    Gval  0.00003873  0.00004108  0.00004207  0.00004265  0.00004394  0.00004764  0.00004860  0.00005042
    Gval  0.00005221  0.00005240  0.00005486  0.00005832  0.00005872  0.00006269  0.00006547  0.00006817
    Gval  0.00006917  0.00007204  0.00007227  0.00007327  0.00007695  0.00007892  0.00007977  0.00008769
    Gval  0.00009121  0.00009544  0.00009691  0.00010136  0.00010579  0.00011614  0.00011973  0.00012043
    Gval  0.00012775  0.00013184  0.00013283  0.00013506  0.00014029  0.00014370  0.00014436  0.00014838
    Gval  0.00016063  0.00016722  0.00017562  0.00018001  0.00018038  0.00019249  0.00020897  0.00021563
    Gval  0.00023099  0.00024150  0.00025190  0.00025234  0.00026147  0.00027242  0.00029074  0.00030112
    Gval  0.00030422  0.00031064  0.00032465  0.00033879  0.00036269  0.00037082  0.00037711  0.00038316
    Gval  0.00039874  0.00040503  0.00041431  0.00042064  0.00042366  0.00043169  0.00043630  0.00044139
    Gval  0.00045177  0.00045241  0.00045999  0.00046228  0.00047765  0.00050790  0.00051161  0.00052321
    Gval  0.00053492  0.00053499  0.00053712  0.00055612  0.00055614  0.00055616  0.00055618  0.00057861
    Gval  0.00057864  0.00058610  0.00058825  0.00059391  0.00059468  0.00059640  0.00059668  0.00059762
    Gval  0.00059867  0.00059922  0.00059978  0.00060019  0.00060857  0.00061635  0.00062597  0.00062652
    Gval  0.00063071  0.00063452  0.00063701  0.00063892  0.00064211  0.00064423  0.00065037  0.00065776
    Gval  0.00066304  0.00067668  0.00067713  0.00074111  0.00076953  0.00080116  0.00084203  0.00086263
    Gval  0.00099231  0.00099689  0.00100573  0.00106668  0.00107569  0.00108200  0.00108441  0.00109166
    Gval  0.00109573  0.00110004  0.00110604  0.00110666  0.00111463  0.00113132  0.00113626  0.00113664
    Gval  0.00114135  0.00115172  0.00115419  0.00116295  0.00116480  0.00116652  0.00117053  0.00117135
    Gval  0.00117411  0.00117972  0.00118051  0.00118080  0.00118104  0.00118740  0.00128216  0.00151252
    Gval  0.00158873  0.00161347  0.00167220  0.00167245  0.00171396  0.00174951  0.00185690  0.00193141
    Gval  0.00194089  0.00205179  0.00216501  0.00222171  0.00233050  0.00234392  0.00241215  0.00251171
    Gval  0.00257424  0.00265030  0.00303257  0.00303485  0.00303869  0.00304034  0.00305250  0.00305335
    Gval  0.00310004  0.00310082  0.00311587  0.00342426  0.00343224  0.00358143  0.00361139  0.00368498
    Gval  0.00369909  0.00372767  0.00375795  0.00393687  0.00404082
  1.146715194634936E-007  1.146715194634936E-007
  4.609818493423410E-007  1.146715194634936E-007
  8.847537619502073E-007  1.146715194634936E-007
  1.103786554667845E-006  1.146715194634936E-007
  1.594021303692747E-006  1.146715194634936E-007
  2.592700229932955E-006  1.146715194634936E-007
  3.863653959159101E-006  1.146715194634936E-007
  4.792805678534633E-006  1.146715194634936E-007
  7.287241063160633E-006  1.146715194634936E-007
  8.678140472505395E-006  1.146715194634936E-007
  1.100544544373568E-005  1.146715194634936E-007
  1.370139208859132E-005  1.146715194634936E-007
  1.410993117037989E-005  1.146715194634936E-007
  1.474119149099798E-005  1.146715194634936E-007
  1.647098535488412E-005  1.146715194634936E-007
  1.809213271301282E-005  1.146715194634936E-007
  2.053156749753931E-005  1.146715194634936E-007
  2.352160569042239E-005  1.146715194634936E-007
  2.398468023780510E-005  1.146715194634936E-007
  2.459906147450504E-005  1.146715194634936E-007
  2.834432897161797E-005  1.146715194634936E-007
  2.961419338589529E-005  1.146715194634936E-007
  2.995891744147251E-005  1.146715194634936E-007
  3.025331764973142E-005  1.146715194634936E-007
  3.165541698221776E-005  1.146715194634936E-007
  3.581062512919056E-005  1.146715194634936E-007
  3.864104042573265E-005  1.146715194634936E-007
  3.872560899361448E-005  1.146715194634936E-007
  4.108023164570021E-005  1.146715194634936E-007
  4.206741996147146E-005  1.146715194634936E-007
  4.264509366378915E-005  1.146715194634936E-007
  4.393825043548356E-005  1.146715194634936E-007
  4.763815517759152E-005  1.146715194634936E-007
  4.860004537255194E-005  1.146715194634936E-007
  5.041792523428321E-005  1.146715194634936E-007
  5.220995556942667E-005  1.146715194634936E-007
  5.239612060871674E-005  1.146715194634936E-007
  5.486010451348650E-005  1.146715194634936E-007
  5.831622178116392E-005  1.146715194634936E-007
  5.872412874378050E-005  1.146715194634936E-007
  6.268619779554512E-005  1.146715194634936E-007
  6.547266167459241E-005  1.146715194634936E-007
  6.817102958503847E-005  1.146715194634936E-007
  6.916678910005243E-005  1.146715194634936E-007
  7.204314008228166E-005  1.146715194634936E-007
  7.227498971002407E-005  1.146715194634936E-007
  7.326771084972579E-005  1.146715194634936E-007
  7.694648500727117E-005  1.146715194634936E-007
  7.892425414425945E-005  1.146715194634936E-007
  7.977065841739457E-005  1.146715194634936E-007
  8.769028836927527E-005  1.146715194634936E-007
  9.121125452453806E-005  1.146715194634936E-007
  9.543625951388633E-005  1.146715194634936E-007
  9.690797962049404E-005  1.146715194634936E-007
  1.013628018950051E-004  1.146715194634936E-007
  1.057910861548716E-004  1.146715194634936E-007
  1.161431879300690E-004  1.146715194634936E-007
  1.197296800469062E-004  1.146715194634936E-007
  1.204298406235004E-004  1.146715194634936E-007
  1.277510825673908E-004  1.146715194634936E-007
  1.318432975971670E-004  1.146715194634936E-007
  1.328284962537271E-004  1.146715194634936E-007
  1.350644147654181E-004  1.146715194634936E-007
  1.402913230383159E-004  1.146715194634936E-007
  1.436970198898475E-004  1.146715194634936E-007
  1.443595892224721E-004  1.146715194634936E-007
  1.483844729462393E-004  1.146715194634936E-007
  1.606282378121464E-004  1.146715194634936E-007
  1.672241953261588E-004  1.146715194634936E-007
  1.756223695028689E-004  1.146715194634936E-007
  1.800084314422375E-004  1.146715194634936E-007
  1.803801943465238E-004  1.146715194634936E-007
  1.924947578254657E-004  1.146715194634936E-007
  2.089710943263695E-004  1.146715194634936E-007
  2.156335470746820E-004  1.146715194634936E-007
  2.309918074674231E-004  1.146715194634936E-007
  2.415023276350066E-004  1.146715194634936E-007
  2.519015135862558E-004  1.146715194634936E-007
  2.523444140243321E-004  1.146715194634936E-007
  2.614682794895051E-004  1.146715194634936E-007
  2.724224533199627E-004  1.146715194634936E-007
  2.907354988546053E-004  1.146715194634936E-007
  3.011195231861991E-004  1.146715194634936E-007
  3.042153569475752E-004  1.146715194634936E-007
  3.106396735034937E-004  1.146715194634936E-007
  3.246451139240612E-004  1.146715194634936E-007
  3.387909640814068E-004  1.146715194634936E-007
  3.626894365147606E-004  1.146715194634936E-007
  3.708216277835309E-004  1.146715194634936E-007
  3.771068307782278E-004  1.146715194634936E-007
  3.831571116147309E-004  1.146715194634936E-007
  3.987405394201451E-004  1.146715194634936E-007
  4.050297537967524E-004  1.146715194634936E-007
  4.143059134233404E-004  1.146715194634936E-007
  4.206386810814492E-004  1.146715194634936E-007
  4.236605066872957E-004  1.146715194634936E-007
  4.316918856566806E-004  1.146715194634936E-007
  4.362976886482622E-004  1.146715194634936E-007
  4.413858997898011E-004  1.146715194634936E-007
  4.517700251242661E-004  1.146715194634936E-007
  4.524087569513773E-004  1.146715194634936E-007
  4.599902281755371E-004  1.146715194634936E-007
  4.622794165310073E-004  1.146715194634936E-007
  4.776495705205944E-004  1.146715194634936E-007
  5.078993789891435E-004  1.146715194634936E-007
  5.116053659445683E-004  1.146715194634936E-007
  5.232129449378036E-004  1.146715194634936E-007
  5.349196765223695E-004  1.146715194634936E-007
  5.349920276103559E-004  1.146715194634936E-007
  5.371229459435833E-004  1.146715194634936E-007
  5.561182181715454E-004  1.146715194634936E-007
  5.561420444290421E-004  1.146715194634936E-007
  5.561577493894029E-004  1.146715194634936E-007
  5.561755014889068E-004  1.146715194634936E-007
  5.786146514187337E-004  1.146715194634936E-007
  5.786440468989862E-004  1.146715194634936E-007
  5.860953129014255E-004  1.146715194634936E-007
  5.882450993109912E-004  1.146715194634936E-007
  5.939081559175858E-004  1.146715194634936E-007
  5.946751809570358E-004  1.146715194634936E-007
  5.963954442770361E-004  1.146715194634936E-007
  5.966774209554997E-004  1.146715194634936E-007
  5.976205716637083E-004  1.146715194634936E-007
  5.986661069039577E-004  1.146715194634936E-007
  5.992184973515628E-004  1.146715194634936E-007
  5.997816521661664E-004  1.146715194634936E-007
  6.001881088291719E-004  1.146715194634936E-007
  6.085743134590228E-004  1.146715194634936E-007
  6.163489648333485E-004  1.146715194634936E-007
  6.259687692029214E-004  1.146715194634936E-007
  6.265160504000193E-004  1.146715194634936E-007
  6.307121735921444E-004  1.146715194634936E-007
  6.345235858442025E-004  1.146715194634936E-007
  6.370118861242760E-004  1.146715194634936E-007
  6.389178343547591E-004  1.146715194634936E-007
  6.421076395926920E-004  1.146715194634936E-007
  6.442289684318180E-004  1.146715194634936E-007
  6.503736731685945E-004  1.146715194634936E-007
  6.577638835647964E-004  1.146715194634936E-007
  6.630401828312460E-004  1.146715194634936E-007
  6.766843078504109E-004  1.146715194634936E-007
  6.771343109938373E-004  1.146715194634936E-007
  7.411112539349131E-004  1.146715194634936E-007
  7.695321209011205E-004  1.146715194634936E-007
  8.011597534471606E-004  1.146715194634936E-007
  8.420252853045421E-004  1.146715194634936E-007
  8.626348673272781E-004  1.146715194634936E-007
  9.923083544750239E-004  1.146715194634936E-007
  9.968887228581223E-004  1.146715194634936E-007
  1.005725587170724E-003  1.146715194634936E-007
  1.066684790774814E-003  1.146715194634936E-007
  1.075692495394114E-003  1.146715194634936E-007
  1.082000966298916E-003  1.146715194634936E-007
  1.084408017042743E-003  1.146715194634936E-007
  1.091658585209738E-003  1.146715194634936E-007
  1.095728746862116E-003  1.146715194634936E-007
  1.100036488909263E-003  1.146715194634936E-007
  1.106038727072920E-003  1.146715194634936E-007
  1.106656904227894E-003  1.146715194634936E-007
  1.114627582643318E-003  1.146715194634936E-007
  1.131320214809363E-003  1.146715194634936E-007
  1.136264405194716E-003  1.146715194634936E-007
  1.136643423939365E-003  1.146715194634936E-007
  1.141346351119986E-003  1.146715194634936E-007
  1.151716165413090E-003  1.146715194634936E-007
  1.154194121544455E-003  1.146715194634936E-007
  1.162954957736898E-003  1.146715194634936E-007
  1.164799091503201E-003  1.146715194634936E-007
  1.166516787910618E-003  1.146715194634936E-007
  1.170531488423194E-003  1.146715194634936E-007
  1.171349101814368E-003  1.146715194634936E-007
  1.174108635609727E-003  1.146715194634936E-007
  1.179719940929550E-003  1.146715194634936E-007
  1.180507014261657E-003  1.146715194634936E-007
  1.180803533587537E-003  1.146715194634936E-007
  1.181042322572645E-003  1.146715194634936E-007
  1.187404308415949E-003  1.146715194634936E-007
  1.282161562980760E-003  1.146715194634936E-007
  1.512517550454625E-003  1.146715194634936E-007
  1.588734865196924E-003  1.146715194634936E-007
  1.613469911362382E-003  1.146715194634936E-007
  1.672195173368985E-003  1.146715194634936E-007
  1.672447675405273E-003  1.146715194634936E-007
  1.713963491614672E-003  1.146715194634936E-007
  1.749513031733848E-003  1.146715194634936E-007
  1.856898626113526E-003  1.146715194634936E-007
  1.931412865249760E-003  1.146715194634936E-007
  1.940890194009351E-003  1.146715194634936E-007
  2.051790759588202E-003  1.146715194634936E-007
  2.165007364038175E-003  1.146715194634936E-007
  2.221714364981487E-003  1.146715194634936E-007
  2.330500889212266E-003  1.146715194634936E-007
  2.343923258283204E-003  1.146715194634936E-007
  2.412147586425484E-003  1.146715194634936E-007
  2.511710328121826E-003  1.146715194634936E-007
  2.574242484581930E-003  1.146715194634936E-007
  2.650303483572122E-003  1.146715194634936E-007
  3.032568965495302E-003  1.146715194634936E-007
  3.034848436069767E-003  1.146715194634936E-007
  3.038689367649650E-003  1.146715194634936E-007
  3.040342532217832E-003  1.146715194634936E-007
  3.052497497892484E-003  1.146715194634936E-007
  3.053350491086343E-003  1.146715194634936E-007
  3.100035772414455E-003  1.146715194634936E-007
  3.100820491096754E-003  1.146715194634936E-007
  3.115866198873962E-003  1.146715194634936E-007
  3.424256199951069E-003  1.146715194634936E-007
  3.432236681734690E-003  1.146715194634936E-007
  3.581425130838313E-003  1.146715194634936E-007
  3.611385371031069E-003  1.146715194634936E-007
  3.684975384430853E-003  1.146715194634936E-007
  3.699085810169141E-003  1.146715194634936E-007
  3.727666765304414E-003  1.146715194634936E-007
  3.757949210807230E-003  1.146715194634936E-007
  3.936869139025904E-003  1.146715194634936E-007
  4.040823673002303E-003  1.146715194634936E-007
 cut=1d-8, nber non-redundant internal coords=         216
 Check on Eigenvals of non-red overlap matrix:
  0.00000011  0.00000046  0.00000088  0.00000110  0.00000159  0.00000259  0.00000386  0.00000479
  0.00000729  0.00000868  0.00001101  0.00001370  0.00001411  0.00001474  0.00001647  0.00001809
  0.00002053  0.00002352  0.00002398  0.00002460  0.00002834  0.00002961  0.00002996  0.00003025
  0.00003166  0.00003581  0.00003864  0.00003873  0.00004108  0.00004207  0.00004265  0.00004394
  0.00004764  0.00004860  0.00005042  0.00005221  0.00005240  0.00005486  0.00005832  0.00005872
  0.00006269  0.00006547  0.00006817  0.00006917  0.00007204  0.00007227  0.00007327  0.00007695
  0.00007892  0.00007977  0.00008769  0.00009121  0.00009544  0.00009691  0.00010136  0.00010579
  0.00011614  0.00011973  0.00012043  0.00012775  0.00013184  0.00013283  0.00013506  0.00014029
  0.00014370  0.00014436  0.00014838  0.00016063  0.00016722  0.00017562  0.00018001  0.00018038
  0.00019249  0.00020897  0.00021563  0.00023099  0.00024150  0.00025190  0.00025234  0.00026147
  0.00027242  0.00029074  0.00030112  0.00030422  0.00031064  0.00032465  0.00033879  0.00036269
  0.00037082  0.00037711  0.00038316  0.00039874  0.00040503  0.00041431  0.00042064  0.00042366
  0.00043169  0.00043630  0.00044139  0.00045177  0.00045241  0.00045999  0.00046228  0.00047765
  0.00050790  0.00051161  0.00052321  0.00053492  0.00053499  0.00053712  0.00055612  0.00055614
  0.00055616  0.00055618  0.00057861  0.00057864  0.00058610  0.00058825  0.00059391  0.00059468
  0.00059640  0.00059668  0.00059762  0.00059867  0.00059922  0.00059978  0.00060019  0.00060857
  0.00061635  0.00062597  0.00062652  0.00063071  0.00063452  0.00063701  0.00063892  0.00064211
  0.00064423  0.00065037  0.00065776  0.00066304  0.00067668  0.00067713  0.00074111  0.00076953
  0.00080116  0.00084203  0.00086263  0.00099231  0.00099689  0.00100573  0.00106668  0.00107569
  0.00108200  0.00108441  0.00109166  0.00109573  0.00110004  0.00110604  0.00110666  0.00111463
  0.00113132  0.00113626  0.00113664  0.00114135  0.00115172  0.00115419  0.00116295  0.00116480
  0.00116652  0.00117053  0.00117135  0.00117411  0.00117972  0.00118051  0.00118080  0.00118104
  0.00118740  0.00128216  0.00151252  0.00158873  0.00161347  0.00167220  0.00167245  0.00171396
  0.00174951  0.00185690  0.00193141  0.00194089  0.00205179  0.00216501  0.00222171  0.00233050
  0.00234392  0.00241215  0.00251171  0.00257424  0.00265030  0.00303257  0.00303485  0.00303869
  0.00304034  0.00305250  0.00305335  0.00310004  0.00310082  0.00311587  0.00342426  0.00343224
  0.00358143  0.00361139  0.00368498  0.00369909  0.00372767  0.00375795  0.00393687  0.00404082
 Checking for correct frequencies
 recalc frequencies=
    -0.0   -0.0   -0.0   -0.0    0.0    0.0   10.3   14.3   21.4   27.1
    46.8   52.0   66.5   71.9   90.6  104.0  106.4  112.3  118.5  129.2
   142.6  154.5  161.2  187.9  197.8  210.2  222.8  227.1  234.5  244.9
   248.5  249.6  267.2  274.4  282.9  292.0  295.8  306.7  319.3  333.9
   351.8  373.3  379.7  411.0  417.1  418.8  427.0  430.0  440.5  454.5
   456.6  467.5  485.0  492.5  502.5  513.0  518.9  527.8  528.9  546.4
   555.0  563.6  573.6  575.5  582.3  612.5  625.6  636.5  640.9  649.6
   664.2  678.0  678.0  684.5  703.6  710.8  716.1  723.3  728.4  744.0
   746.8  754.6  758.6  780.9  782.8  790.2  814.9  819.4  820.9  829.9
   839.9  843.3  846.6  856.8  865.0  869.2  878.2  881.9  889.4  908.8
   911.7  916.0  929.7  951.3  962.5  962.6  985.5  993.3  995.2  998.5
   999.8 1002.2 1009.4 1010.6 1015.2 1016.8 1022.5 1037.4 1037.8 1039.1
  1084.9 1108.1 1110.9 1114.1 1140.0 1142.0 1152.3 1169.6 1176.5 1184.0
  1190.1 1190.6 1191.4 1191.8 1211.7 1218.5 1224.5 1241.8 1250.9 1256.1
  1259.5 1266.7 1275.4 1281.8 1290.7 1301.1 1302.7 1318.2 1337.7 1344.5
  1367.2 1380.6 1386.2 1399.0 1406.8 1409.2 1409.4 1416.2 1425.9 1430.3
  1431.1 1449.5 1458.2 1460.3 1473.9 1482.0 1490.1 1490.2 1492.1 1494.0
  1498.6 1508.1 1508.5 1510.0 1514.5 1515.4 1529.6 1536.8 1541.2 1542.0
  1550.8 1557.8 1566.4 1578.0 1590.9 1600.2 1629.0 1653.2 1668.7 1677.1
  1682.3 1695.5 3048.0 3048.2 3051.7 3052.0 3114.7 3114.9 3119.8 3119.9
  3131.7 3132.6 3133.7 3134.6 3180.1 3182.1 3185.5 3187.0 3187.3 3190.7
  3191.0 3191.6 3193.9 3199.8 3207.1 3208.4 3212.8 3215.2 3222.1 3231.6
  3238.3 3262.7
 recalc symmetries=
                                                                       
                                                                       
                                                                       
                                                                       
                                                                       
                                                                       
                                                                       
                                                                       
                                                                       
                                                                       
                                                                       
                                                                       
                                                                       
                                                                       
                                                                       
                                                                       
                                                                       
                                                                       
                                                                       
                                                                       
                                                                       
                                                                       
               
 recalc freqs check OK
 Zero-point lengths:
 10.0000 10.0000 10.0000 10.0000 10.0000 10.0000 77.1628 65.5332 53.6074 47.6563
 36.2384 34.3684 30.4069 29.2273 26.0482 24.3041 24.0356 23.3948 22.7756 21.8102
 20.7626 19.9474 19.5271 18.0854 17.6271 17.1004 16.6079 16.4507 16.1889 15.8420
 15.7262 15.6934 15.1674 14.9671 14.7389 14.5087 14.4134 14.1549 13.8735 13.5670
 13.2180 12.8310 12.7223 12.2287 12.1382 12.1147 11.9974 11.9560 11.8117 11.6292
 11.6017 11.4657 11.2574 11.1706 11.0593 10.9454 10.8834 10.7905 10.7799 10.6061
 10.5230 10.4422 10.3511 10.3341 10.2739 10.0169  9.9121  9.8262  9.7929  9.7269
  9.6192  9.5209  9.5207  9.4759  9.3462  9.2985  9.2644  9.2178  9.1856  9.0888
  9.0715  9.0250  9.0011  8.8717  8.8610  8.8191  8.6847  8.6605  8.6524  8.6057
  8.5542  8.5367  8.5206  8.4693  8.4290  8.4088  8.3655  8.3483  8.3126  8.2237
  8.2107  8.1913  8.1304  8.0380  7.9909  7.9906  7.8971  7.8661  7.8586  7.8453
  7.8404  7.8310  7.8030  7.7986  7.7808  7.7747  7.7528  7.6971  7.6955  7.6908
  7.5266  7.4474  7.4380  7.4274  7.3425  7.3362  7.3032  7.2489  7.2278  7.2049
  7.1864  7.1846  7.1824  7.1812  7.1219  7.1019  7.0845  7.0352  7.0094  6.9948
  6.9855  6.9657  6.9418  6.9243  6.9004  6.8729  6.8686  6.8281  6.7783  6.7610
  6.7046  6.6720  6.6587  6.6280  6.6098  6.6041  6.6035  6.5876  6.5652  6.5551
  6.5533  6.5115  6.4922  6.4876  6.4574  6.4398  6.4222  6.4220  6.4180  6.4138
  6.4040  6.3837  6.3830  6.3799  6.3702  6.3684  6.3388  6.3239  6.3148  6.3133
  6.2954  6.2812  6.2639  6.2408  6.2154  6.1974  6.1423  6.0973  6.0689  6.0537
  6.0443  6.0207  4.4905  4.4903  4.4877  4.4875  4.4421  4.4419  4.4385  4.4384
  4.4300  4.4294  4.4286  4.4280  4.3962  4.3948  4.3924  4.3914  4.3912  4.3889
  4.3886  4.3883  4.3867  4.3826  4.3776  4.3767  4.3737  4.3721  4.3674  4.3610
  4.3565  4.3402
 highest evec of mol 1
 -0.0001 -0.0002  0.0000
 -0.0001 -0.0002  0.0001
 -0.0001 -0.0002  0.0001
 -0.0005  0.0069  0.0013
 -0.0452 -0.0559  0.0303
  0.1290 -0.2197 -0.1352
  0.0012  0.0021 -0.0007
 -0.0018  0.0025  0.0018
 -0.0001  0.0001  0.0001
 -0.0005 -0.0003  0.0003
 -0.0000  0.0000  0.0000
  0.0000  0.0001 -0.0000
 -0.0000 -0.0000  0.0000
  0.0003 -0.0001 -0.0002
  0.0000 -0.0000 -0.0000
 -0.0000 -0.0000  0.0000
 -0.0001  0.0001  0.0001
  0.0001 -0.0001 -0.0001
 -0.0000  0.0000  0.0000
  0.0001 -0.0000 -0.0001
 -0.0000  0.0001  0.0000
  0.0000 -0.0001 -0.0000
 -0.0000  0.0001  0.0000
  0.0000 -0.0001  0.0000
 -0.0000  0.0000  0.0000
  0.0000 -0.0001  0.0000
  0.0000 -0.0000  0.0000
 -0.0000  0.0000 -0.0000
  0.0000 -0.0000  0.0000
  0.0000 -0.0000 -0.0001
 -0.0000  0.0000 -0.0000
  0.0000 -0.0000 -0.0000
 -0.0000  0.0000 -0.0000
 -0.0001  0.0001  0.0000
 -0.0000 -0.0000  0.0000
  0.0000 -0.0000 -0.0000
 -0.0000  0.0000 -0.0000
 -0.0000 -0.0001 -0.0000
 -0.0000  0.0001  0.0000
  0.0002  0.0002 -0.0001
 -0.0000 -0.0000  0.0000
 -0.0000  0.0000  0.0000
 -0.0000  0.0000  0.0000
 -0.0000  0.0000  0.0001
  0.0001  0.0006 -0.0000
 -0.0000  0.0000  0.0000
  0.0005 -0.0002 -0.0002
  0.0001  0.0006 -0.0000
  0.0003 -0.0002 -0.0004
 -0.0000  0.0000  0.0000
  0.1027  0.1748 -0.0627
 -0.3909  0.7333  0.4183
  0.0014  0.0003 -0.0012
  0.0001  0.0000 -0.0001
 -0.0000 -0.0001  0.0000
 -0.0002 -0.0000  0.0002
  0.0000 -0.0000 -0.0001
 -0.0000  0.0002 -0.0001
 -0.0000  0.0002 -0.0002
 -0.0001  0.0001  0.0000
 -0.0001  0.0001  0.0000
 -0.0001  0.0000  0.0003
  0.0000 -0.0001  0.0001
  0.0000 -0.0001  0.0001
  0.0002 -0.0002 -0.0001
  0.0001  0.0003 -0.0000
  0.0002  0.0000 -0.0001
 -0.0003 -0.0006  0.0002
  0.0002 -0.0001 -0.0002
 -0.0000 -0.0001  0.0000
  0.0000  0.0000  0.0000
 -0.0000  0.0000 -0.0001
 -0.0000 -0.0001  0.0000
  0.0002 -0.0001 -0.0002
 generating redundant internal coords
         300        3600          74
 Adding extra bonds for z output only
           6           6           6           6           6           6
          16           6           6           6           6           6
           6           6           6          16           6           6
           6           6           6           6           6           6
           6           6           6           6           6           6
           6           6           6           6           6           6
           6           6           6           6           6           6
           6           6           1           1           1           1
           1           1           1           1           1           1
           1           1           1           1           1           1
           1           1           1           1           1           1
           1           1           1           1           1           1
           1           1
 search for int coords
   1 str   2   1   1.535
   2 str   3   2   1.535
   3 str   4   2   1.514
   4 str   5   4   1.412
   5 str   6   5   1.366
   6 str   7   6   1.736
   7 str   8   4   1.375
   8 str   8   7   1.725
   9 str   9   8   1.434
  10 str  10   9   1.403
  11 str  11  10   1.370
  12 str  12  11   1.432
  13 str  13  12   1.413
  14 str  14   2   1.530
  15 str  14   9   1.423
  16 str  14  13   1.369
  17 str  15  12   1.405
  18 str  16  15   1.729
  19 str  17  16   1.783
  20 str  18  17   1.412
  21 str  19  18   1.421
  22 str  20  19   1.370
  23 str  21  20   1.411
  24 str  22  21   1.460
  25 str  23  22   1.407
  26 str  24  23   1.373
  27 str  25  24   1.401
  28 str  26  25   1.428
  29 str  27  26   1.352
  30 str  28  27   1.432
  31 str  29  28   1.397
  32 str  30  29   1.386
  33 str  31  30   1.384
  34 str  32  31   1.398
  35 str  33  32   1.430
  36 str  34  33   1.353
  37 str  35  22   1.422
  38 str  35  34   1.434
  39 str  36  25   1.418
  40 str  36  35   1.422
  41 str  37  28   1.420
  42 str  37  32   1.417
  43 str  37  36   1.427
  44 str  38  21   1.413
  45 str  39  18   1.423
  46 str  39  38   1.368
  47 str  40  17   1.416
  48 str  41  15   1.409
  49 str  41  40   1.373
  50 str  42  11   1.529
  51 str  42  41   1.515
  52 str  43  42   1.535
  53 str  44  42   1.535
  54 str  45   1   1.093
  55 str  46   1   1.091
  56 str  47   1   1.092
  57 str  48   3   1.093
  58 str  49   3   1.092
  59 str  50   3   1.091
  60 str  51   5   1.082
  61 str  52   6   1.079
  62 str  53  10   1.084
  63 str  54  13   1.084
  64 str  55  19   1.083
  65 str  56  20   1.082
  66 str  57  23   1.083
  67 str  58  24   1.084
  68 str  59  26   1.084
  69 str  60  27   1.084
  70 str  61  29   1.084
  71 str  62  30   1.084
  72 str  63  31   1.084
  73 str  64  33   1.084
  74 str  65  34   1.081
  75 str  66  38   1.083
  76 str  67  39   1.082
  77 str  68  40   1.080
  78 str  69  43   1.093
  79 str  70  43   1.093
  80 str  71  43   1.091
  81 str  72  44   1.091
  82 str  73  44   1.093
  83 str  74  44   1.093
 nber stretches=          83
  84 ben   1   2   3
  85 prop tor   1   2   3  48
  86 prop tor   1   2   3  49
  87 prop tor   1   2   3  50
  88 ben   1   2   4
  89 prop tor   1   2   4   5
  90 prop tor   1   2   4   8
  91 ben   1   2  14
  92 prop tor   1   2  14   9
  93 prop tor   1   2  14  13
  94 ben   2   1  45
  95 ben   2   1  46
  96 ben   2   1  47
  97 ben   2   3  48
  98 ben   2   3  49
  99 ben   2   3  50
 100 ben   2   4   5
 101 prop tor   2   4   5   6
 102 prop tor   2   4   5  51
 103 ben   2   4   8
 104 prop tor   2   4   8   7
 105 prop tor   2   4   8   9
 106 ben   2  14   9
 107 ben   2  14  13
 108 ben   3   2   4
 109 prop tor   3   2   4   5
 110 prop tor   3   2   4   8
 111 ben   3   2  14
 112 prop tor   3   2  14   9
 113 prop tor   3   2  14  13
 114 prop tor   4   2   3  48
 115 prop tor   4   2   3  49
 116 prop tor   4   2   3  50
 117 ben   4   2  14
 118 prop tor   4   2  14   9
 119 prop tor   4   2  14  13
 120 ben   4   5   6
 121 prop tor   4   5   6   7
 122 prop tor   4   5   6  52
 123 ben   4   5  51
 124 ben   4   8   7
 125 ben   4   8   9
 126 prop tor   4   8   9  10
 127 prop tor   4   8   9  14
 128 ben   5   4   8
 129 prop tor   5   4   8   7
 130 prop tor   5   4   8   9
 131 ben   5   6   7
 132 prop tor   5   6   7   8
 133 ben   5   6  52
 134 ben   6   5  51
 135 ben   6   7   8
 136 prop tor   6   7   8   4
 137 prop tor   6   7   8   9
 138 ben   7   6  52
 139 ben   7   8   9
 140 prop tor   7   8   9  10
 141 prop tor   7   8   9  14
 142 prop tor   8   4   5   6
 143 prop tor   8   4   5  51
 144 ben   8   9  10
 145 prop tor   8   9  10  11
 146 prop tor   8   9  10  53
 147 ben   8   9  14
 148 prop tor   8   9  14   2
 149 prop tor   8   9  14  13
 150 ben   9  10  11
 151 prop tor   9  10  11  12
 152 prop tor   9  10  11  42
 153 ben   9  10  53
 154 ben   9  14  13
 155 ben  10   9  14
 156 prop tor  10   9  14   2
 157 prop tor  10   9  14  13
 158 ben  10  11  12
 159 prop tor  10  11  12  13
 160 prop tor  10  11  12  15
 161 ben  10  11  42
 162 prop tor  10  11  42  41
 163 prop tor  10  11  42  43
 164 prop tor  10  11  42  44
 165 ben  11  10  53
 166 ben  11  12  13
 167 prop tor  11  12  13  14
 168 prop tor  11  12  13  54
 169 ben  11  12  15
 170 prop tor  11  12  15  16
 171 prop tor  11  12  15  41
 172 ben  11  42  41
 173 ben  11  42  43
 174 prop tor  11  42  43  69
 175 prop tor  11  42  43  70
 176 prop tor  11  42  43  71
 177 ben  11  42  44
 178 prop tor  11  42  44  72
 179 prop tor  11  42  44  73
 180 prop tor  11  42  44  74
 181 ben  12  11  42
 182 prop tor  12  11  42  41
 183 prop tor  12  11  42  43
 184 prop tor  12  11  42  44
 185 ben  12  13  14
 186 prop tor  12  13  14   2
 187 prop tor  12  13  14   9
 188 ben  12  13  54
 189 ben  12  15  16
 190 prop tor  12  15  16  17
 191 ben  12  15  41
 192 prop tor  12  15  41  40
 193 prop tor  12  15  41  42
 194 ben  13  12  15
 195 prop tor  13  12  15  16
 196 prop tor  13  12  15  41
 197 prop tor  14   2   3  48
 198 prop tor  14   2   3  49
 199 prop tor  14   2   3  50
 200 prop tor  14   2   4   5
 201 prop tor  14   2   4   8
 202 prop tor  14   9  10  11
 203 prop tor  14   9  10  53
 204 ben  14  13  54
 205 prop tor  15  12  13  14
 206 prop tor  15  12  13  54
 207 ben  15  16  17
 208 prop tor  15  16  17  18
 209 prop tor  15  16  17  40
 210 ben  15  41  40
 211 ben  15  41  42
 212 prop tor  15  41  42  11
 213 prop tor  15  41  42  43
 214 prop tor  15  41  42  44
 215 ben  16  15  41
 216 prop tor  16  15  41  40
 217 prop tor  16  15  41  42
 218 ben  16  17  18
 219 prop tor  16  17  18  19
 220 prop tor  16  17  18  39
 221 ben  16  17  40
 222 prop tor  16  17  40  41
 223 prop tor  16  17  40  68
 224 ben  17  18  19
 225 prop tor  17  18  19  20
 226 prop tor  17  18  19  55
 227 ben  17  18  39
 228 prop tor  17  18  39  38
 229 prop tor  17  18  39  67
 230 ben  17  40  41
 231 prop tor  17  40  41  15
 232 prop tor  17  40  41  42
 233 ben  17  40  68
 234 ben  18  17  40
 235 prop tor  18  17  40  41
 236 prop tor  18  17  40  68
 237 ben  18  19  20
 238 prop tor  18  19  20  21
 239 prop tor  18  19  20  56
 240 ben  18  19  55
 241 ben  18  39  38
 242 ben  18  39  67
 243 ben  19  18  39
 244 prop tor  19  18  39  38
 245 prop tor  19  18  39  67
 246 ben  19  20  21
 247 prop tor  19  20  21  22
 248 prop tor  19  20  21  38
 249 ben  19  20  56
 250 ben  20  19  55
 251 ben  20  21  22
 252 prop tor  20  21  22  23
 253 prop tor  20  21  22  35
 254 ben  20  21  38
 255 prop tor  20  21  38  39
 256 prop tor  20  21  38  66
 257 ben  21  20  56
 258 ben  21  22  23
 259 prop tor  21  22  23  24
 260 prop tor  21  22  23  57
 261 ben  21  22  35
 262 prop tor  21  22  35  34
 263 prop tor  21  22  35  36
 264 ben  21  38  39
 265 prop tor  21  38  39  18
 266 prop tor  21  38  39  67
 267 ben  21  38  66
 268 ben  22  21  38
 269 prop tor  22  21  38  39
 270 prop tor  22  21  38  66
 271 ben  22  23  24
 272 prop tor  22  23  24  25
 273 prop tor  22  23  24  58
 274 ben  22  23  57
 275 ben  22  35  34
 276 ben  22  35  36
 277 prop tor  22  35  36  25
 278 prop tor  22  35  36  37
 279 ben  23  22  35
 280 prop tor  23  22  35  34
 281 prop tor  23  22  35  36
 282 ben  23  24  25
 283 prop tor  23  24  25  26
 284 prop tor  23  24  25  36
 285 ben  23  24  58
 286 ben  24  23  57
 287 ben  24  25  26
 288 prop tor  24  25  26  27
 289 prop tor  24  25  26  59
 290 ben  24  25  36
 291 prop tor  24  25  36  35
 292 prop tor  24  25  36  37
 293 ben  25  24  58
 294 ben  25  26  27
 295 prop tor  25  26  27  28
 296 prop tor  25  26  27  60
 297 ben  25  26  59
 298 ben  25  36  35
 299 ben  25  36  37
 300 prop tor  25  36  37  28
 301 prop tor  25  36  37  32
 302 ben  26  25  36
 303 prop tor  26  25  36  35
 304 prop tor  26  25  36  37
 305 ben  26  27  28
 306 prop tor  26  27  28  29
 307 prop tor  26  27  28  37
 308 ben  26  27  60
 309 ben  27  26  59
 310 ben  27  28  29
 311 prop tor  27  28  29  30
 312 prop tor  27  28  29  61
 313 ben  27  28  37
 314 prop tor  27  28  37  32
 315 prop tor  27  28  37  36
 316 ben  28  27  60
 317 ben  28  29  30
 318 prop tor  28  29  30  31
 319 prop tor  28  29  30  62
 320 ben  28  29  61
 321 ben  28  37  32
 322 ben  28  37  36
 323 ben  29  28  37
 324 prop tor  29  28  37  32
 325 prop tor  29  28  37  36
 326 ben  29  30  31
 327 prop tor  29  30  31  32
 328 prop tor  29  30  31  63
 329 ben  29  30  62
 330 ben  30  29  61
 331 ben  30  31  32
 332 prop tor  30  31  32  33
 333 prop tor  30  31  32  37
 334 ben  30  31  63
 335 ben  31  30  62
 336 ben  31  32  33
 337 prop tor  31  32  33  34
 338 prop tor  31  32  33  64
 339 ben  31  32  37
 340 prop tor  31  32  37  28
 341 prop tor  31  32  37  36
 342 ben  32  31  63
 343 ben  32  33  34
 344 prop tor  32  33  34  35
 345 prop tor  32  33  34  65
 346 ben  32  33  64
 347 ben  32  37  36
 348 ben  33  32  37
 349 prop tor  33  32  37  28
 350 prop tor  33  32  37  36
 351 ben  33  34  35
 352 prop tor  33  34  35  22
 353 prop tor  33  34  35  36
 354 ben  33  34  65
 355 ben  34  33  64
 356 ben  34  35  36
 357 prop tor  34  35  36  25
 358 prop tor  34  35  36  37
 359 prop tor  35  22  23  24
 360 prop tor  35  22  23  57
 361 ben  35  34  65
 362 ben  35  36  37
 363 prop tor  35  36  37  28
 364 prop tor  35  36  37  32
 365 prop tor  36  25  26  27
 366 prop tor  36  25  26  59
 367 prop tor  37  28  29  30
 368 prop tor  37  28  29  61
 369 prop tor  37  32  33  34
 370 prop tor  37  32  33  64
 371 prop tor  38  21  22  23
 372 prop tor  38  21  22  35
 373 ben  38  39  67
 374 prop tor  39  18  19  20
 375 prop tor  39  18  19  55
 376 ben  39  38  66
 377 prop tor  40  17  18  19
 378 prop tor  40  17  18  39
 379 ben  40  41  42
 380 prop tor  40  41  42  11
 381 prop tor  40  41  42  43
 382 prop tor  40  41  42  44
 383 prop tor  41  15  16  17
 384 ben  41  40  68
 385 ben  41  42  43
 386 prop tor  41  42  43  69
 387 prop tor  41  42  43  70
 388 prop tor  41  42  43  71
 389 ben  41  42  44
 390 prop tor  41  42  44  72
 391 prop tor  41  42  44  73
 392 prop tor  41  42  44  74
 393 prop tor  42  11  12  13
 394 prop tor  42  11  12  15
 395 ben  42  43  69
 396 ben  42  43  70
 397 ben  42  43  71
 398 ben  42  44  72
 399 ben  42  44  73
 400 ben  42  44  74
 401 ben  43  42  44
 402 prop tor  43  42  44  72
 403 prop tor  43  42  44  73
 404 prop tor  43  42  44  74
 405 prop tor  44  42  43  69
 406 prop tor  44  42  43  70
 407 prop tor  44  42  43  71
 408 prop tor  45   1   2   3
 409 prop tor  45   1   2   4
 410 prop tor  45   1   2  14
 411 ben  45   1  46
 412 ben  45   1  47
 413 prop tor  46   1   2   3
 414 prop tor  46   1   2   4
 415 prop tor  46   1   2  14
 416 ben  46   1  47
 417 prop tor  47   1   2   3
 418 prop tor  47   1   2   4
 419 prop tor  47   1   2  14
 420 ben  48   3  49
 421 ben  48   3  50
 422 ben  49   3  50
 423 prop tor  51   5   6   7
 424 prop tor  51   5   6  52
 425 prop tor  52   6   7   8
 426 prop tor  53  10  11  12
 427 prop tor  53  10  11  42
 428 prop tor  54  13  14   2
 429 prop tor  54  13  14   9
 430 prop tor  55  19  20  21
 431 prop tor  55  19  20  56
 432 prop tor  56  20  21  22
 433 prop tor  56  20  21  38
 434 prop tor  57  23  24  25
 435 prop tor  57  23  24  58
 436 prop tor  58  24  25  26
 437 prop tor  58  24  25  36
 438 prop tor  59  26  27  28
 439 prop tor  59  26  27  60
 440 prop tor  60  27  28  29
 441 prop tor  60  27  28  37
 442 prop tor  61  29  30  31
 443 prop tor  61  29  30  62
 444 prop tor  62  30  31  32
 445 prop tor  62  30  31  63
 446 prop tor  63  31  32  33
 447 prop tor  63  31  32  37
 448 prop tor  64  33  34  35
 449 prop tor  64  33  34  65
 450 prop tor  65  34  35  22
 451 prop tor  65  34  35  36
 452 prop tor  66  38  39  18
 453 prop tor  66  38  39  67
 454 prop tor  68  40  41  15
 455 prop tor  68  40  41  42
 456 ben  69  43  70
 457 ben  69  43  71
 458 ben  70  43  71
 459 ben  72  44  73
 460 ben  72  44  74
 461 ben  73  44  74
 nber bend=             146
 nber lin bend=           0
 nber prop tor=         232
 nber impr tor=           0
 nber tot redund int=         461
 Reading file: 
 ./IDT-A_1_C0S2.log                                                             
                                          
  Entering Gaussian System, Link 0=g16                                          
  
 Gaussian format, type: g94, g98, g03= F F F
  #P Geom=AllCheck Guess=TCheck SCRF=Check GenChk RCAM-B3LYP TD(FC,Read)    
 energy type= TD      
 Original G94 input coords:
  6  1.031886 -1.101491 -1.373764
  6  2.466889 -0.862709 -0.882856
  6  2.626926 -1.357201  0.561805
  6  3.482656 -1.503219 -1.804610
  6  3.792046 -2.812987 -2.232301
  6  4.844841 -2.826355 -3.102046
 16  5.477657 -1.240824 -3.414669
  6  4.304625 -0.548332 -2.356396
  6  3.959683  0.765795 -1.898715
  6  4.499751  2.030616 -2.177451
  6  3.936056  3.121245 -1.568826
  6  2.827947  2.971627 -0.674658
  6  2.288754  1.694768 -0.398376
  6  2.858345  0.610989 -1.010963
  6  2.482462  4.255615 -0.220531
 16  1.301499  4.932987  0.845083
  6  1.937223  6.569143  0.534173
  6  1.362329  7.698675  1.155913
  6  0.249289  7.593257  2.033482
  6 -0.288765  8.694005  2.647038
  6  0.221346  9.991114  2.429003
  6 -0.375500 11.179932  3.029981
  6 -0.538379 12.323327  2.226567
  6 -1.189355 13.445816  2.675154
  6 -1.714160 13.502787  3.972821
  6 -2.430088 14.643137  4.449558
  6 -2.922017 14.690015  5.708337
  6 -2.728477 13.599602  6.616664
  6 -3.213947 13.631896  7.926235
  6 -2.998890 12.569329  8.789533
  6 -2.292612 11.455687  8.368333
  6 -1.792953 11.380028  7.064812
  6 -1.030657 10.262995  6.601249
  6 -0.570724 10.199142  5.330126
  6 -0.832677 11.235778  4.375297
  6 -1.520521 12.393051  4.833285
  6 -2.015872 12.455815  6.170452
  6  1.308227 10.103145  1.532668
  6  1.866498  9.009459  0.929034
  6  3.025951  6.516568 -0.370195
  6  3.320076  5.239817 -0.781126
  6  4.333318  4.592001 -1.702495
  6  4.172961  5.084886 -3.147555
  6  5.768757  4.829448 -1.212508
  1  0.789782 -2.166514 -1.343172
  1  0.906339 -0.750590 -2.399048
  1  0.314598 -0.574125 -0.740623
  1  2.411913 -2.426551  0.625686
  1  1.936651 -0.833935  1.227532
  1  3.643029 -1.189610  0.921738
  1  3.274391 -3.711211 -1.923951
  1  5.295309 -3.678905 -3.585834
  1  5.339205  2.134564 -2.856102
  1  1.449431  1.588694  0.279652
  1 -0.201110  6.623771  2.210078
  1 -1.158814  8.568711  3.278477
  1 -0.193729 12.288774  1.200630
  1 -1.327406 14.292666  2.012331
  1 -2.573272 15.478022  3.772565
  1 -3.467174 15.560421  6.055478
  1 -3.761825 14.504679  8.263072
  1 -3.381791 12.613181  9.802231
  1 -2.117186 10.630327  9.049004
  1 -0.806663  9.465269  7.300638
  1  0.036891  9.357382  5.030546
  1  1.739041 11.080166  1.350084
  1  2.717714  9.149818  0.275620
  1  3.552324  7.404295 -0.689116
  1  4.861055  4.558008 -3.812813
  1  4.390387  6.153697 -3.212247
  1  3.155976  4.920399 -3.506042
  1  5.893921  4.481873 -0.186178
  1  6.011879  5.894159 -1.245688
  1  6.484312  4.298366 -1.844638
 nber atoms=          74
  Total Energy, E(TD-HF/TD-DFT) =  -2414.33196433                               
  
          32          49 "  -2414.33196433"
After scan for Atom:   Atom  AN      X      Y      Z        X      Y      Z        X      Y      Z   
After scan for Atom:   Atom  AN      X      Y      Z        X      Y      Z        X      Y      Z   
After scan for Atom:   Atom  AN      X      Y      Z        X      Y      Z        X      Y      Z   
After scan for Atom:   Atom  AN      X      Y      Z        X      Y      Z        X      Y      Z   
After scan for Atom:   Atom  AN      X      Y      Z        X      Y      Z        X      Y      Z   
After scan for Atom:   Atom  AN      X      Y      Z        X      Y      Z        X      Y      Z   
After scan for Atom:   Atom  AN      X      Y      Z        X      Y      Z        X      Y      Z   
After scan for Atom:   Atom  AN      X      Y      Z        X      Y      Z        X      Y      Z   
After scan for Atom:   Atom  AN      X      Y      Z        X      Y      Z        X      Y      Z   
After scan for Atom:   Atom  AN      X      Y      Z        X      Y      Z        X      Y      Z   
After scan for Atom:   Atom  AN      X      Y      Z        X      Y      Z        X      Y      Z   
After scan for Atom:   Atom  AN      X      Y      Z        X      Y      Z        X      Y      Z   
After scan for Atom:   Atom  AN      X      Y      Z        X      Y      Z        X      Y      Z   
After scan for Atom:   Atom  AN      X      Y      Z        X      Y      Z        X      Y      Z   
After scan for Atom:   Atom  AN      X      Y      Z        X      Y      Z        X      Y      Z   
After scan for Atom:   Atom  AN      X      Y      Z        X      Y      Z        X      Y      Z   
After scan for Atom:   Atom  AN      X      Y      Z        X      Y      Z        X      Y      Z   
After scan for Atom:   Atom  AN      X      Y      Z        X      Y      Z        X      Y      Z   
After scan for Atom:   Atom  AN      X      Y      Z        X      Y      Z        X      Y      Z   
After scan for Atom:   Atom  AN      X      Y      Z        X      Y      Z        X      Y      Z   
After scan for Atom:   Atom  AN      X      Y      Z        X      Y      Z        X      Y      Z   
After scan for Atom:   Atom  AN      X      Y      Z        X      Y      Z        X      Y      Z   
After scan for Atom:   Atom  AN      X      Y      Z        X      Y      Z        X      Y      Z   
After scan for Atom:   Atom  AN      X      Y      Z        X      Y      Z        X      Y      Z   
After scan for Atom:   Atom  AN      X      Y      Z        X      Y      Z        X      Y      Z   
After scan for Atom:   Atom  AN      X      Y      Z        X      Y      Z        X      Y      Z   
After scan for Atom:   Atom  AN      X      Y      Z        X      Y      Z        X      Y      Z   
After scan for Atom:   Atom  AN      X      Y      Z        X      Y      Z        X      Y      Z   
After scan for Atom:   Atom  AN      X      Y      Z        X      Y      Z        X      Y      Z   
After scan for Atom:   Atom  AN      X      Y      Z        X      Y      Z        X      Y      Z   
After scan for Atom:   Atom  AN      X      Y      Z        X      Y      Z        X      Y      Z   
After scan for Atom:   Atom  AN      X      Y      Z        X      Y      Z        X      Y      Z   
After scan for Atom:   Atom  AN      X      Y      Z        X      Y      Z        X      Y      Z   
After scan for Atom:   Atom  AN      X      Y      Z        X      Y      Z        X      Y      Z   
After scan for Atom:   Atom  AN      X      Y      Z        X      Y      Z        X      Y      Z   
After scan for Atom:   Atom  AN      X      Y      Z        X      Y      Z        X      Y      Z   
After scan for Atom:   Atom  AN      X      Y      Z        X      Y      Z        X      Y      Z   
After scan for Atom:   Atom  AN      X      Y      Z        X      Y      Z        X      Y      Z   
After scan for Atom:   Atom  AN      X      Y      Z        X      Y      Z        X      Y      Z   
After scan for Atom:   Atom  AN      X      Y      Z        X      Y      Z        X      Y      Z   
After scan for Atom:   Atom  AN      X      Y      Z        X      Y      Z        X      Y      Z   
After scan for Atom:   Atom  AN      X      Y      Z        X      Y      Z        X      Y      Z   
After scan for Atom:   Atom  AN      X      Y      Z        X      Y      Z        X      Y      Z   
After scan for Atom:   Atom  AN      X      Y      Z        X      Y      Z        X      Y      Z   
After scan for Atom:   Atom  AN      X      Y      Z        X      Y      Z        X      Y      Z   
After scan for Atom:   Atom  AN      X      Y      Z        X      Y      Z        X      Y      Z   
After scan for Atom:   Atom  AN      X      Y      Z        X      Y      Z        X      Y      Z   
After scan for Atom:   Atom  AN      X      Y      Z        X      Y      Z        X      Y      Z   
After scan for Atom:   Atom  AN      X      Y      Z        X      Y      Z        X      Y      Z   
After scan for Atom:   Atom  AN      X      Y      Z        X      Y      Z        X      Y      Z   
After scan for Atom:   Atom  AN      X      Y      Z        X      Y      Z        X      Y      Z   
After scan for Atom:   Atom  AN      X      Y      Z        X      Y      Z        X      Y      Z   
After scan for Atom:   Atom  AN      X      Y      Z        X      Y      Z        X      Y      Z   
After scan for Atom:   Atom  AN      X      Y      Z        X      Y      Z        X      Y      Z   
After scan for Atom:   Atom  AN      X      Y      Z        X      Y      Z        X      Y      Z   
After scan for Atom:   Atom  AN      X      Y      Z        X      Y      Z        X      Y      Z   
After scan for Atom:   Atom  AN      X      Y      Z        X      Y      Z        X      Y      Z   
After scan for Atom:   Atom  AN      X      Y      Z        X      Y      Z        X      Y      Z   
After scan for Atom:   Atom  AN      X      Y      Z        X      Y      Z        X      Y      Z   
After scan for Atom:   Atom  AN      X      Y      Z        X      Y      Z        X      Y      Z   
After scan for Atom:   Atom  AN      X      Y      Z        X      Y      Z        X      Y      Z   
After scan for Atom:   Atom  AN      X      Y      Z        X      Y      Z        X      Y      Z   
After scan for Atom:   Atom  AN      X      Y      Z        X      Y      Z        X      Y      Z   
After scan for Atom:   Atom  AN      X      Y      Z        X      Y      Z        X      Y      Z   
After scan for Atom:   Atom  AN      X      Y      Z        X      Y      Z        X      Y      Z   
After scan for Atom:   Atom  AN      X      Y      Z        X      Y      Z        X      Y      Z   
After scan for Atom:   Atom  AN      X      Y      Z        X      Y      Z        X      Y      Z   
After scan for Atom:   Atom  AN      X      Y      Z        X      Y      Z        X      Y      Z   
After scan for Atom:   Atom  AN      X      Y      Z        X      Y      Z        X      Y      Z   
After scan for Atom:   Atom  AN      X      Y      Z        X      Y      Z        X      Y      Z   
After scan for Atom:   Atom  AN      X      Y      Z        X      Y      Z        X      Y      Z   
After scan for Atom:   Atom  AN      X      Y      Z        X      Y      Z        X      Y      Z   
 g94    frequencies=
     0.0    0.0    0.0    0.0    0.0    0.0   10.3   14.4   21.4   27.2
    46.9   52.0   66.5   71.9   90.5  104.0  106.3  112.3  118.5  129.2
   142.6  154.5  161.2  187.9  197.8  210.2  222.8  227.1  234.5  244.9
   248.5  249.5  267.1  274.3  282.9  291.9  295.8  306.7  319.3  333.9
   351.8  373.3  379.7  411.0  417.1  418.8  427.0  429.9  440.5  454.4
   456.6  467.5  485.0  492.5  502.5  513.0  518.9  527.8  528.9  546.4
   555.0  563.6  573.6  575.5  582.2  612.5  625.5  636.5  640.9  649.6
   664.2  678.0  678.0  684.5  703.6  710.8  716.1  723.3  728.4  744.0
[...]
    0.   -0.   -0.    0.   -0.   -0.    0.    0.    0.    0.   -0.   -0.    0.    0.    0.   -0.    0.    0.   -0.   -0.
    0.   -0.   -0.    0.   -0.    0.   -0.    0.   -0.   -0.   -0.   -0.   -0.   -0.   -0.    0.    0.   -0.    0.    0.
    0.    0.   -0.   -0.    0.    0.    0.    0.   -0.    0.   -0.    0.   -0.   -0.   -0.    0.   -0.    0.   -0.   -0.
   -0.    0.    0.   -0.    0.    0.   -0.    0.    0.    0.    0.   -0.   -0.   -0.    0.   -0.   -0.    0.    0.    0.
   -0.   -0.    0.    0.    0.   -0.   -0.   -0.    0.   -0.    0.   -0.    0.   -0.   -0.    0.    0.   -0.   -0.   -0.
    0.    0.    0.    0.   -0.    0.    0.   -0.    0.    0.   -0.    0.   -0.    0.    0.    0.   -0.   -0.    0.   -0.
   -0.    0.    0.    0.   -0.    0.   -0.   -0.   -0.    0.   -0.    0.   -0.   -0.   -0.   -0.    0.   -0.   -0.   -0.
   -0.   -0.

 Displacement: in terms of nc of 1 THEN of nc of 2

   1     freq=    -0. Q= -0.000 lam=    -0.0     freq=    -0. Q= -0.000 lam=    -0.0
   2     freq=    -0. Q=  0.000 lam=    -0.0     freq=    -0. Q=  0.000 lam=    -0.0
   3     freq=    -0. Q= -0.000 lam=    -0.0     freq=     0. Q= -0.000 lam=     0.0
   4     freq=    -0. Q=  0.000 lam=    -0.0     freq=     0. Q=  0.000 lam=     0.0
   5     freq=     0. Q=  0.000 lam=     0.0     freq=     0. Q=  0.000 lam=     0.0
   6     freq=     0. Q= -0.000 lam=     0.0     freq=     0. Q= -0.000 lam=     0.0
   7     freq=    10. Q=  0.004 lam=     0.0     freq=    10. Q=  0.004 lam=     0.0
   8     freq=    14. Q=  0.005 lam=     0.0     freq=    14. Q=  0.005 lam=     0.0
   9     freq=    21. Q= -0.002 lam=     0.0     freq=    21. Q= -0.002 lam=     0.0
  10     freq=    27. Q= -0.000 lam=     0.0     freq=    27. Q= -0.000 lam=     0.0
  11     freq=    47. Q= -0.000 lam=     0.0     freq=    47. Q= -0.000 lam=     0.0
  12     freq=    52. Q= -0.001 lam=     0.0     freq=    52. Q= -0.001 lam=     0.0
  13     freq=    66. Q= -0.001 lam=     0.0     freq=    66. Q= -0.001 lam=     0.0
  14     freq=    72. Q=  0.001 lam=     0.0     freq=    72. Q=  0.001 lam=     0.0
  15     freq=    91. Q=  0.001 lam=     0.0     freq=    91. Q=  0.002 lam=     0.0
  16     freq=   104. Q=  0.001 lam=     0.0     freq=   104. Q=  0.001 lam=     0.0
  17     freq=   106. Q= -0.001 lam=     0.0     freq=   106. Q= -0.001 lam=     0.0
  18     freq=   112. Q= -0.001 lam=     0.0     freq=   112. Q= -0.001 lam=     0.0
  19     freq=   118. Q=  0.000 lam=     0.0     freq=   118. Q=  0.000 lam=     0.0
  20     freq=   129. Q= -0.000 lam=     0.0     freq=   129. Q= -0.000 lam=     0.0
  21     freq=   143. Q= -0.000 lam=     0.0     freq=   143. Q= -0.000 lam=     0.0
  22     freq=   154. Q= -0.000 lam=     0.0     freq=   154. Q= -0.000 lam=     0.0
  23     freq=   161. Q= -0.000 lam=     0.0     freq=   161. Q= -0.000 lam=     0.0
  24     freq=   188. Q=  0.000 lam=     0.0     freq=   188. Q=  0.000 lam=     0.0
  25     freq=   198. Q=  0.000 lam=     0.0     freq=   198. Q=  0.000 lam=     0.0
  26     freq=   210. Q=  0.001 lam=     0.0     freq=   210. Q=  0.001 lam=     0.0
  27     freq=   223. Q= -0.000 lam=     0.0     freq=   223. Q= -0.000 lam=     0.0
  28     freq=   227. Q=  0.000 lam=     0.0     freq=   227. Q=  0.000 lam=     0.0
  29     freq=   235. Q= -0.000 lam=     0.0     freq=   234. Q= -0.000 lam=     0.0
  30     freq=   245. Q= -0.000 lam=     0.0     freq=   245. Q= -0.000 lam=     0.0
  31     freq=   249. Q= -0.000 lam=     0.0     freq=   248. Q= -0.000 lam=     0.0
  32     freq=   250. Q= -0.000 lam=     0.0     freq=   250. Q= -0.000 lam=     0.0
  33     freq=   267. Q= -0.000 lam=     0.0     freq=   267. Q= -0.000 lam=     0.0
  34     freq=   274. Q= -0.000 lam=     0.0     freq=   274. Q= -0.000 lam=     0.0
  35     freq=   283. Q= -0.000 lam=     0.0     freq=   283. Q= -0.000 lam=     0.0
  36     freq=   292. Q=  0.000 lam=     0.0     freq=   292. Q=  0.001 lam=     0.0
  37     freq=   296. Q= -0.000 lam=     0.0     freq=   296. Q= -0.000 lam=     0.0
  38     freq=   307. Q= -0.000 lam=     0.0     freq=   307. Q= -0.000 lam=     0.0
  39     freq=   319. Q=  0.001 lam=     0.0     freq=   319. Q=  0.001 lam=     0.0
  40     freq=   334. Q=  0.001 lam=     0.0     freq=   334. Q=  0.001 lam=     0.0
  41     freq=   352. Q= -0.000 lam=     0.0     freq=   352. Q= -0.000 lam=     0.0
  42     freq=   373. Q=  0.000 lam=     0.0     freq=   373. Q=  0.000 lam=     0.0
  43     freq=   380. Q=  0.000 lam=     0.0     freq=   380. Q=  0.000 lam=     0.0
  44     freq=   411. Q= -0.001 lam=     0.0     freq=   411. Q= -0.001 lam=     0.0
  45     freq=   417. Q= -0.000 lam=     0.0     freq=   417. Q= -0.000 lam=     0.0
  46     freq=   419. Q= -0.000 lam=     0.0     freq=   419. Q= -0.000 lam=     0.0
  47     freq=   427. Q= -0.000 lam=     0.0     freq=   427. Q= -0.000 lam=     0.0
  48     freq=   430. Q= -0.000 lam=     0.0     freq=   430. Q= -0.000 lam=     0.0
  49     freq=   441. Q=  0.000 lam=     0.0     freq=   441. Q=  0.000 lam=     0.0
  50     freq=   454. Q=  0.000 lam=     0.0     freq=   454. Q=  0.000 lam=     0.0
  51     freq=   457. Q= -0.000 lam=     0.0     freq=   457. Q= -0.000 lam=     0.0
  52     freq=   467. Q=  0.000 lam=     0.0     freq=   467. Q=  0.000 lam=     0.0
  53     freq=   485. Q=  0.000 lam=     0.0     freq=   485. Q=  0.000 lam=     0.0
  54     freq=   493. Q=  0.000 lam=     0.0     freq=   493. Q=  0.000 lam=     0.0
  55     freq=   502. Q= -0.001 lam=     0.0     freq=   502. Q= -0.001 lam=     0.0
  56     freq=   513. Q= -0.000 lam=     0.0     freq=   513. Q= -0.000 lam=     0.0
  57     freq=   519. Q=  0.000 lam=     0.0     freq=   519. Q=  0.000 lam=     0.0
  58     freq=   528. Q=  0.000 lam=     0.0     freq=   528. Q=  0.000 lam=     0.0
  59     freq=   529. Q=  0.000 lam=     0.0     freq=   529. Q=  0.000 lam=     0.0
  60     freq=   546. Q= -0.000 lam=     0.0     freq=   546. Q= -0.000 lam=     0.0
  61     freq=   555. Q= -0.000 lam=     0.0     freq=   555. Q= -0.000 lam=     0.0
  62     freq=   564. Q=  0.000 lam=     0.0     freq=   564. Q=  0.000 lam=     0.0
  63     freq=   574. Q= -0.000 lam=     0.0     freq=   574. Q= -0.000 lam=     0.0
  64     freq=   575. Q= -0.000 lam=     0.0     freq=   575. Q= -0.000 lam=     0.0
  65     freq=   582. Q= -0.000 lam=     0.0     freq=   582. Q= -0.000 lam=     0.0
  66     freq=   613. Q= -0.000 lam=     0.0     freq=   613. Q= -0.000 lam=     0.0
  67     freq=   626. Q= -0.000 lam=     0.0     freq=   626. Q= -0.000 lam=     0.0
  68     freq=   637. Q= -0.000 lam=     0.0     freq=   637. Q= -0.000 lam=     0.0
  69     freq=   641. Q= -0.000 lam=     0.0     freq=   641. Q= -0.000 lam=     0.0
  70     freq=   650. Q=  0.000 lam=     0.0     freq=   650. Q=  0.000 lam=     0.0
  71     freq=   664. Q= -0.000 lam=     0.0     freq=   664. Q= -0.000 lam=     0.0
  72     freq=   678. Q=  0.000 lam=     0.0     freq=   678. Q=  0.000 lam=     0.0
  73     freq=   678. Q= -0.000 lam=     0.0     freq=   678. Q= -0.000 lam=     0.0
  74     freq=   684. Q= -0.000 lam=     0.0     freq=   684. Q= -0.000 lam=     0.0
  75     freq=   704. Q= -0.000 lam=     0.0     freq=   704. Q= -0.000 lam=     0.0
  76     freq=   711. Q= -0.000 lam=     0.0     freq=   711. Q= -0.000 lam=     0.0
  77     freq=   716. Q=  0.000 lam=     0.0     freq=   716. Q=  0.000 lam=     0.0
  78     freq=   723. Q=  0.000 lam=     0.0     freq=   723. Q=  0.000 lam=     0.0
  79     freq=   728. Q= -0.000 lam=     0.0     freq=   728. Q= -0.000 lam=     0.0
  80     freq=   744. Q= -0.000 lam=     0.0     freq=   744. Q= -0.000 lam=     0.0
  81     freq=   747. Q= -0.000 lam=     0.0     freq=   747. Q= -0.000 lam=     0.0
  82     freq=   755. Q=  0.000 lam=     0.0     freq=   755. Q=  0.000 lam=     0.0
  83     freq=   759. Q=  0.000 lam=     0.0     freq=   759. Q=  0.000 lam=     0.0
  84     freq=   781. Q= -0.000 lam=     0.0     freq=   781. Q= -0.000 lam=     0.0
  85     freq=   783. Q=  0.000 lam=     0.0     freq=   783. Q=  0.000 lam=     0.0
  86     freq=   790. Q=  0.000 lam=     0.0     freq=   790. Q=  0.000 lam=     0.0
  87     freq=   815. Q= -0.001 lam=     0.0     freq=   815. Q= -0.001 lam=     0.0
  88     freq=   819. Q= -0.000 lam=     0.0     freq=   819. Q= -0.000 lam=     0.0
  89     freq=   821. Q= -0.001 lam=     0.0     freq=   821. Q= -0.001 lam=     0.0
  90     freq=   830. Q= -0.001 lam=     0.0     freq=   830. Q= -0.001 lam=     0.0
  91     freq=   840. Q=  0.000 lam=     0.0     freq=   840. Q=  0.000 lam=     0.0
  92     freq=   843. Q=  0.000 lam=     0.0     freq=   843. Q=  0.000 lam=     0.0
  93     freq=   847. Q= -0.000 lam=     0.0     freq=   847. Q= -0.000 lam=     0.0
  94     freq=   857. Q= -0.000 lam=     0.0     freq=   857. Q= -0.000 lam=     0.0
  95     freq=   865. Q= -0.000 lam=     0.0     freq=   865. Q= -0.000 lam=     0.0
  96     freq=   869. Q=  0.000 lam=     0.0     freq=   869. Q=  0.000 lam=     0.0
  97     freq=   878. Q= -0.000 lam=     0.0     freq=   878. Q= -0.000 lam=     0.0
  98     freq=   882. Q= -0.000 lam=     0.0     freq=   882. Q= -0.000 lam=     0.0
  99     freq=   889. Q=  0.000 lam=     0.0     freq=   889. Q=  0.000 lam=     0.0
 100     freq=   909. Q=  0.000 lam=     0.0     freq=   909. Q=  0.000 lam=     0.0
 101     freq=   912. Q=  0.000 lam=     0.0     freq=   912. Q=  0.000 lam=     0.0
 102     freq=   916. Q= -0.000 lam=     0.0     freq=   916. Q= -0.000 lam=     0.0
 103     freq=   930. Q=  0.000 lam=     0.0     freq=   930. Q=  0.000 lam=     0.0
 104     freq=   951. Q= -0.000 lam=     0.0     freq=   951. Q= -0.000 lam=     0.0
 105     freq=   962. Q= -0.000 lam=     0.0     freq=   963. Q= -0.000 lam=     0.0
 106     freq=   963. Q= -0.000 lam=     0.0     freq=   963. Q= -0.000 lam=     0.0
 107     freq=   985. Q= -0.000 lam=     0.0     freq=   985. Q= -0.000 lam=     0.0
 108     freq=   993. Q= -0.000 lam=     0.0     freq=   993. Q= -0.000 lam=     0.0
 109     freq=   995. Q=  0.001 lam=     0.0     freq=   995. Q=  0.001 lam=     0.0
 110     freq=   999. Q=  0.000 lam=     0.0     freq=   999. Q=  0.000 lam=     0.0
 111     freq=  1000. Q=  0.000 lam=     0.0     freq=  1000. Q=  0.000 lam=     0.0
 112     freq=  1002. Q= -0.000 lam=     0.0     freq=  1002. Q= -0.000 lam=     0.0
 113     freq=  1009. Q=  0.000 lam=     0.0     freq=  1009. Q=  0.000 lam=     0.0
 114     freq=  1011. Q=  0.000 lam=     0.0     freq=  1011. Q=  0.000 lam=     0.0
 115     freq=  1015. Q=  0.000 lam=     0.0     freq=  1015. Q=  0.000 lam=     0.0
 116     freq=  1017. Q= -0.000 lam=     0.0     freq=  1017. Q= -0.000 lam=     0.0
 117     freq=  1022. Q= -0.000 lam=     0.0     freq=  1022. Q= -0.000 lam=     0.0
 118     freq=  1037. Q= -0.000 lam=     0.0     freq=  1037. Q= -0.000 lam=     0.0
 119     freq=  1038. Q=  0.000 lam=     0.0     freq=  1038. Q=  0.000 lam=     0.0
 120     freq=  1039. Q= -0.000 lam=     0.0     freq=  1039. Q= -0.000 lam=     0.0
 121     freq=  1085. Q= -0.000 lam=     0.0     freq=  1085. Q= -0.000 lam=     0.0
 122     freq=  1108. Q= -0.000 lam=     0.0     freq=  1108. Q= -0.000 lam=     0.0
 123     freq=  1111. Q=  0.000 lam=     0.0     freq=  1111. Q=  0.000 lam=     0.0
 124     freq=  1114. Q=  0.000 lam=     0.0     freq=  1114. Q=  0.000 lam=     0.0
 125     freq=  1140. Q= -0.000 lam=     0.0     freq=  1140. Q= -0.000 lam=     0.0
 126     freq=  1142. Q= -0.000 lam=     0.0     freq=  1142. Q= -0.000 lam=     0.0
 127     freq=  1152. Q= -0.000 lam=     0.0     freq=  1152. Q= -0.000 lam=     0.0
 128     freq=  1170. Q=  0.000 lam=     0.0     freq=  1170. Q=  0.000 lam=     0.0
 129     freq=  1176. Q=  0.000 lam=     0.0     freq=  1176. Q=  0.000 lam=     0.0
 130     freq=  1184. Q= -0.000 lam=     0.0     freq=  1184. Q= -0.000 lam=     0.0
 131     freq=  1190. Q=  0.000 lam=     0.0     freq=  1190. Q=  0.000 lam=     0.0
 132     freq=  1191. Q= -0.000 lam=     0.0     freq=  1191. Q= -0.000 lam=     0.0
 133     freq=  1191. Q=  0.000 lam=     0.0     freq=  1191. Q=  0.000 lam=     0.0
 134     freq=  1192. Q= -0.000 lam=     0.0     freq=  1192. Q= -0.000 lam=     0.0
 135     freq=  1212. Q=  0.000 lam=     0.0     freq=  1212. Q=  0.000 lam=     0.0
 136     freq=  1219. Q= -0.000 lam=     0.0     freq=  1219. Q= -0.000 lam=     0.0
 137     freq=  1225. Q=  0.000 lam=     0.0     freq=  1225. Q=  0.000 lam=     0.0
 138     freq=  1242. Q=  0.000 lam=     0.0     freq=  1242. Q=  0.000 lam=     0.0
 139     freq=  1251. Q= -0.000 lam=     0.0     freq=  1251. Q= -0.000 lam=     0.0
 140     freq=  1256. Q=  0.000 lam=     0.0     freq=  1256. Q=  0.000 lam=     0.0
 141     freq=  1259. Q=  0.000 lam=     0.0     freq=  1259. Q=  0.000 lam=     0.0
 142     freq=  1267. Q=  0.000 lam=     0.0     freq=  1267. Q=  0.000 lam=     0.0
 143     freq=  1275. Q= -0.000 lam=     0.0     freq=  1275. Q= -0.000 lam=     0.0
 144     freq=  1282. Q=  0.000 lam=     0.0     freq=  1282. Q=  0.000 lam=     0.0
 145     freq=  1291. Q= -0.000 lam=     0.0     freq=  1291. Q= -0.000 lam=     0.0
 146     freq=  1301. Q= -0.000 lam=     0.0     freq=  1301. Q= -0.000 lam=     0.0
 147     freq=  1303. Q=  0.000 lam=     0.0     freq=  1303. Q=  0.000 lam=     0.0
 148     freq=  1318. Q= -0.000 lam=     0.0     freq=  1318. Q= -0.000 lam=     0.0
 149     freq=  1338. Q=  0.000 lam=     0.0     freq=  1338. Q=  0.000 lam=     0.0
 150     freq=  1345. Q=  0.000 lam=     0.0     freq=  1345. Q=  0.000 lam=     0.0
 151     freq=  1367. Q= -0.000 lam=     0.0     freq=  1367. Q= -0.000 lam=     0.0
 152     freq=  1381. Q=  0.000 lam=     0.0     freq=  1381. Q=  0.000 lam=     0.0
 153     freq=  1386. Q=  0.000 lam=     0.0     freq=  1386. Q=  0.000 lam=     0.0
 154     freq=  1399. Q= -0.000 lam=     0.0     freq=  1399. Q= -0.000 lam=     0.0
 155     freq=  1407. Q= -0.000 lam=     0.0     freq=  1407. Q= -0.000 lam=     0.0
 156     freq=  1409. Q=  0.000 lam=     0.0     freq=  1409. Q=  0.000 lam=     0.0
 157     freq=  1409. Q=  0.000 lam=     0.0     freq=  1409. Q=  0.000 lam=     0.0
 158     freq=  1416. Q=  0.000 lam=     0.0     freq=  1416. Q=  0.000 lam=     0.0
 159     freq=  1426. Q=  0.000 lam=     0.0     freq=  1426. Q=  0.000 lam=     0.0
 160     freq=  1430. Q= -0.000 lam=     0.0     freq=  1430. Q= -0.000 lam=     0.0
 161     freq=  1431. Q=  0.000 lam=     0.0     freq=  1431. Q=  0.000 lam=     0.0
 162     freq=  1449. Q= -0.000 lam=     0.0     freq=  1449. Q= -0.000 lam=     0.0
 163     freq=  1458. Q=  0.000 lam=     0.0     freq=  1458. Q=  0.000 lam=     0.0
 164     freq=  1460. Q= -0.000 lam=     0.0     freq=  1460. Q= -0.000 lam=     0.0
 165     freq=  1474. Q=  0.000 lam=     0.0     freq=  1474. Q=  0.000 lam=     0.0
 166     freq=  1482. Q= -0.000 lam=     0.0     freq=  1482. Q= -0.000 lam=     0.0
 167     freq=  1490. Q=  0.000 lam=     0.0     freq=  1490. Q=  0.000 lam=     0.0
 168     freq=  1490. Q=  0.000 lam=     0.0     freq=  1490. Q=  0.000 lam=     0.0
 169     freq=  1492. Q= -0.000 lam=     0.0     freq=  1492. Q= -0.000 lam=     0.0
 170     freq=  1494. Q=  0.000 lam=     0.0     freq=  1494. Q=  0.000 lam=     0.0
 171     freq=  1499. Q=  0.000 lam=     0.0     freq=  1499. Q=  0.000 lam=     0.0
 172     freq=  1508. Q= -0.000 lam=     0.0     freq=  1508. Q= -0.000 lam=     0.0
 173     freq=  1508. Q= -0.000 lam=     0.0     freq=  1508. Q= -0.000 lam=     0.0
 174     freq=  1510. Q=  0.000 lam=     0.0     freq=  1510. Q=  0.000 lam=     0.0
 175     freq=  1515. Q= -0.000 lam=     0.0     freq=  1514. Q= -0.000 lam=     0.0
 176     freq=  1515. Q= -0.000 lam=     0.0     freq=  1515. Q= -0.000 lam=     0.0
 177     freq=  1530. Q= -0.000 lam=     0.0     freq=  1530. Q= -0.000 lam=     0.0
 178     freq=  1537. Q= -0.000 lam=     0.0     freq=  1537. Q= -0.000 lam=     0.0
 179     freq=  1541. Q= -0.000 lam=     0.0     freq=  1541. Q= -0.000 lam=     0.0
 180     freq=  1542. Q=  0.000 lam=     0.0     freq=  1542. Q=  0.000 lam=     0.0
 181     freq=  1551. Q=  0.000 lam=     0.0     freq=  1551. Q=  0.000 lam=     0.0
 182     freq=  1558. Q=  0.000 lam=     0.0     freq=  1558. Q=  0.000 lam=     0.0
 183     freq=  1566. Q= -0.000 lam=     0.0     freq=  1566. Q= -0.000 lam=     0.0
 184     freq=  1578. Q= -0.000 lam=     0.0     freq=  1578. Q= -0.000 lam=     0.0
 185     freq=  1591. Q=  0.000 lam=     0.0     freq=  1591. Q=  0.000 lam=     0.0
 186     freq=  1600. Q= -0.000 lam=     0.0     freq=  1600. Q= -0.000 lam=     0.0
 187     freq=  1629. Q= -0.000 lam=     0.0     freq=  1629. Q= -0.000 lam=     0.0
 188     freq=  1653. Q=  0.000 lam=     0.0     freq=  1653. Q=  0.000 lam=     0.0
 189     freq=  1669. Q= -0.000 lam=     0.0     freq=  1669. Q= -0.000 lam=     0.0
 190     freq=  1677. Q= -0.000 lam=     0.0     freq=  1677. Q= -0.000 lam=     0.0
 191     freq=  1682. Q=  0.000 lam=     0.0     freq=  1682. Q=  0.000 lam=     0.0
 192     freq=  1695. Q= -0.000 lam=     0.0     freq=  1695. Q= -0.000 lam=     0.0
 193     freq=  3048. Q=  0.000 lam=     0.0     freq=  3048. Q=  0.000 lam=     0.0
 194     freq=  3048. Q= -0.000 lam=     0.0     freq=  3048. Q= -0.000 lam=     0.0
 195     freq=  3052. Q= -0.000 lam=     0.0     freq=  3052. Q= -0.000 lam=     0.0
 196     freq=  3052. Q= -0.000 lam=     0.0     freq=  3052. Q= -0.000 lam=     0.0
 197     freq=  3115. Q=  0.000 lam=     0.0     freq=  3115. Q=  0.000 lam=     0.0
 198     freq=  3115. Q=  0.000 lam=     0.0     freq=  3115. Q=  0.000 lam=     0.0
 199     freq=  3120. Q=  0.000 lam=     0.0     freq=  3120. Q=  0.000 lam=     0.0
 200     freq=  3120. Q= -0.000 lam=     0.0     freq=  3120. Q= -0.000 lam=     0.0
 201     freq=  3132. Q=  0.000 lam=     0.0     freq=  3132. Q=  0.000 lam=     0.0
 202     freq=  3132. Q=  0.000 lam=     0.0     freq=  3133. Q=  0.000 lam=     0.0
 203     freq=  3134. Q= -0.000 lam=     0.0     freq=  3134. Q= -0.000 lam=     0.0
 204     freq=  3135. Q=  0.000 lam=     0.0     freq=  3135. Q=  0.000 lam=     0.0
 205     freq=  3180. Q= -0.000 lam=     0.0     freq=  3180. Q= -0.000 lam=     0.0
 206     freq=  3182. Q= -0.000 lam=     0.0     freq=  3182. Q= -0.000 lam=     0.0
 207     freq=  3185. Q=  0.000 lam=     0.0     freq=  3185. Q=  0.000 lam=     0.0
 208     freq=  3187. Q=  0.000 lam=     0.0     freq=  3187. Q=  0.000 lam=     0.0
 209     freq=  3187. Q=  0.000 lam=     0.0     freq=  3187. Q=  0.000 lam=     0.0
 210     freq=  3191. Q= -0.000 lam=     0.0     freq=  3191. Q= -0.000 lam=     0.0
 211     freq=  3191. Q=  0.000 lam=     0.0     freq=  3191. Q=  0.000 lam=     0.0
 212     freq=  3192. Q= -0.000 lam=     0.0     freq=  3192. Q= -0.000 lam=     0.0
 213     freq=  3194. Q=  0.000 lam=     0.0     freq=  3194. Q=  0.000 lam=     0.0
 214     freq=  3200. Q= -0.000 lam=     0.0     freq=  3200. Q= -0.000 lam=     0.0
 215     freq=  3207. Q=  0.000 lam=     0.0     freq=  3207. Q=  0.000 lam=     0.0
 216     freq=  3208. Q=  0.000 lam=     0.0     freq=  3208. Q=  0.000 lam=     0.0
 217     freq=  3213. Q= -0.000 lam=     0.0     freq=  3213. Q= -0.000 lam=     0.0
 218     freq=  3215. Q=  0.000 lam=     0.0     freq=  3215. Q=  0.000 lam=     0.0
 219     freq=  3222. Q=  0.000 lam=     0.0     freq=  3222. Q=  0.000 lam=     0.0
 220     freq=  3232. Q= -0.000 lam=     0.0     freq=  3232. Q= -0.000 lam=     0.0
 221     freq=  3238. Q= -0.000 lam=     0.0     freq=  3238. Q= -0.000 lam=     0.0
 222     freq=  3263. Q=  0.000 lam=     0.0     freq=  3263. Q=  0.000 lam=     0.0

 total reorg energy (cm**-1, kcal/mol)=        0.        0.      0.00      0.00
 Nber of molecules processed=           2
