 Enter ifcurve (0=recti, 1=orth curvi, 2=apprx curvi, -1 = skip
 And atom ordering flag, 0= never changes, 1= use the first order thenceforth,
  2= deduce it (does read on fail), 3= always read it
 Reading file: 
 ./conjugated_carbonyls_1_C-2S0.log                                             
                                          
  Entering Gaussian System, Link 0=g16                                          
  
 Gaussian format, type: g94, g98, g03= F F F
  #P Geom=AllCheck Guess=TCheck SCRF=Check Test GenChk UB3LYP/6-311G(d,p    
 energy type= B3LYP   
 Original G94 input coords:
  8 -1.398813 -3.065683  0.000000
  6 -0.735600 -1.993798  0.000000
  6  0.735600 -1.993798  0.000000
  8  1.398813 -3.065683  0.000000
  6  1.427507 -0.681263  0.000000
  6  2.819396 -0.659401  0.000000
  6  3.505112  0.578764  0.000000
  6  2.727592  1.735341  0.000000
  7  1.397017  1.779749  0.000000
  6  0.715715  0.571793  0.000000
  6 -0.715715  0.571793  0.000000
  7 -1.397017  1.779749  0.000000
  6 -2.727592  1.735341  0.000000
  6 -3.505112  0.578764  0.000000
  6 -2.819396 -0.659401  0.000000
  6 -1.427507 -0.681263  0.000000
  1  3.332199 -1.615661  0.000000
  1  4.592653  0.637592  0.000000
  1  3.227367  2.712567  0.000000
  1 -3.227367  2.712567  0.000000
  1 -4.592653  0.637592  0.000000
  1 -3.332199 -1.615661  0.000000
 nber atoms=          22
  SCF Done:  E(UB3LYP) =  -720.950447262     A.U. after    1 cycles             
  
          23          40 "  -720.950447262"
After scan for Atom:   Atom  AN      X      Y      Z        X      Y      Z        X      Y      Z   
After scan for Atom:   Atom  AN      X      Y      Z        X      Y      Z        X      Y      Z   
After scan for Atom:   Atom  AN      X      Y      Z        X      Y      Z        X      Y      Z   
After scan for Atom:   Atom  AN      X      Y      Z        X      Y      Z        X      Y      Z   
After scan for Atom:   Atom  AN      X      Y      Z        X      Y      Z        X      Y      Z   
After scan for Atom:   Atom  AN      X      Y      Z        X      Y      Z        X      Y      Z   
After scan for Atom:   Atom  AN      X      Y      Z        X      Y      Z        X      Y      Z   
After scan for Atom:   Atom  AN      X      Y      Z        X      Y      Z        X      Y      Z   
After scan for Atom:   Atom  AN      X      Y      Z        X      Y      Z        X      Y      Z   
After scan for Atom:   Atom  AN      X      Y      Z        X      Y      Z        X      Y      Z   
After scan for Atom:   Atom  AN      X      Y      Z        X      Y      Z        X      Y      Z   
After scan for Atom:   Atom  AN      X      Y      Z        X      Y      Z        X      Y      Z   
After scan for Atom:   Atom  AN      X      Y      Z        X      Y      Z        X      Y      Z   
After scan for Atom:   Atom  AN      X      Y      Z        X      Y      Z        X      Y      Z   
After scan for Atom:   Atom  AN      X      Y      Z        X      Y      Z        X      Y      Z   
After scan for Atom:   Atom  AN      X      Y      Z        X      Y      Z        X      Y      Z   
After scan for Atom:   Atom  AN      X      Y      Z        X      Y      Z        X      Y      Z   
After scan for Atom:   Atom  AN      X      Y      Z        X      Y      Z        X      Y      Z   
After scan for Atom:   Atom  AN      X      Y      Z        X      Y      Z        X      Y      Z   
After scan for Atom:   Atom  AN      X      Y      Z        X      Y      Z        X      Y      Z   
 g94    frequencies=
     0.0    0.0    0.0    0.0    0.0    0.0   66.3   81.2  130.1  162.1
   235.5  257.6  321.2  369.6  384.4  393.3  416.2  417.9  454.5  464.8
   540.7  582.3  586.9  622.5  650.6  661.4  675.3  705.6  721.0  740.2
   777.3  830.5  846.5  850.3  889.9  892.4  922.8 1026.9 1027.5 1041.6
  1062.7 1082.3 1082.4 1160.2 1171.5 1235.8 1270.8 1275.8 1320.8 1341.3
  1377.5 1428.9 1437.7 1454.9 1466.6 1483.0 1509.8 1539.5 1554.2 1565.0
  2989.5 2992.1 3094.9 3096.3 3158.6 3160.0
 g94    symmetries=
                                                 A      A      A      A
       A      A      A      A      A      A      A      A      A      A
       A      A      A      A      A      A      A      A      A      A
       A      A      A      A      A      A      A      A      A      A
       A      A      A      A      A      A      A      A      A      A
       A      A      A      A      A      A      A      A      A      A
       A      A      A      A      A      A
 atomic masses:
 15.9949 12.0000 12.0000 15.9949 12.0000 12.0000 12.0000 12.0000 14.0031 12.0000
 12.0000 14.0031 12.0000 12.0000 12.0000 12.0000  1.0078  1.0078  1.0078  1.0078
  1.0078  1.0078
 looking for force constants in 
 ./conjugated_carbonyls_1_C-2S0.fchk                                            
  
 Cartesian Force Constants                  R   N=        2211                  
  
 n3=          66        2211
 g94-fc frequencies=
    -5.9   -4.5   -0.8   -0.0   -0.0    0.0   66.3   81.2  130.1  162.1
   235.5  257.6  321.3  369.6  384.4  393.3  416.2  417.9  454.5  464.8
   540.7  582.3  586.9  622.5  650.6  661.5  675.3  705.6  721.0  740.3
   777.3  830.6  846.5  850.3  889.9  892.4  922.8 1026.9 1027.5 1041.6
  1062.7 1082.4 1082.4 1160.2 1171.5 1235.9 1270.8 1275.9 1320.9 1341.3
  1377.5 1428.9 1437.7 1454.9 1466.7 1483.0 1509.9 1539.5 1554.3 1565.1
  2989.6 2992.1 3095.0 3096.4 3158.6 3160.1
 at 99999: n3=          66
 symm operator            1 :  F  nop=           0
 symm operator            2 :  T  nop=           1
 symm operator            3 :  F  nop=           1
 symm operator            4 :  F  nop=           1
 symm operator            5 :  T  nop=           2
 symm operator            6 :  F  nop=           2
 symm operator            7 :  T  nop=           3
 swap           2           3
   1  -1.39881   0.00000  -3.06568
   2  -0.73560   0.00000  -1.99380
   3   0.73560   0.00000  -1.99380
   4   1.39881   0.00000  -3.06568
   5   1.42751   0.00000  -0.68126
   6   2.81940   0.00000  -0.65940
   7   3.50511   0.00000   0.57876
   8   2.72759   0.00000   1.73534
   9   1.39702   0.00000   1.77975
  10   0.71571   0.00000   0.57179
  11  -0.71571   0.00000   0.57179
  12  -1.39702   0.00000   1.77975
  13  -2.72759   0.00000   1.73534
  14  -3.50511   0.00000   0.57876
  15  -2.81940   0.00000  -0.65940
  16  -1.42751   0.00000  -0.68126
  17   3.33220   0.00000  -1.61566
  18   4.59265   0.00000   0.63759
  19   3.22737   0.00000   2.71257
  20  -3.22737   0.00000   2.71257
  21  -4.59265   0.00000   0.63759
  22  -3.33220   0.00000  -1.61566
 swap           1           2
   1   0.00000  -1.39881  -3.06568
   2   0.00000  -0.73560  -1.99380
   3   0.00000   0.73560  -1.99380
   4   0.00000   1.39881  -3.06568
   5   0.00000   1.42751  -0.68126
   6   0.00000   2.81940  -0.65940
   7   0.00000   3.50511   0.57876
   8   0.00000   2.72759   1.73534
   9   0.00000   1.39702   1.77975
  10   0.00000   0.71571   0.57179
  11   0.00000  -0.71571   0.57179
  12   0.00000  -1.39702   1.77975
  13   0.00000  -2.72759   1.73534
  14   0.00000  -3.50511   0.57876
  15   0.00000  -2.81940  -0.65940
  16   0.00000  -1.42751  -0.68126
  17   0.00000   3.33220  -1.61566
  18   0.00000   4.59265   0.63759
  19   0.00000   3.22737   2.71257
  20   0.00000  -3.22737   2.71257
  21   0.00000  -4.59265   0.63759
  22   0.00000  -3.33220  -1.61566
 The point group of the molecule is C2V
 enforcing symm op           1  jsymt=          -1          -1           1
 enforcing symm op           6  jsymt=           1          -1           1
 enforcing symm op           7  jsymt=          -1           1           1
 cartesian coord symmetries:
 A1 :   22 A2 :   11 B1 :   11 B2 :   22
 Symmetry rotation matrix:
   0.00000   0.00000   1.00000
  -1.00000   0.00000   0.00000
   0.00000  -1.00000   0.00000

 Projecting out zero-frequency components
 generating redundant internal coords
         300        3600          22
 search for int coords
   1 str   2   1   1.260
   2 str   3   2   1.471
   3 str   4   3   1.260
   4 str   5   3   1.484
   5 str   6   5   1.392
   6 str   7   6   1.415
   7 str   8   7   1.394
   8 str   9   8   1.331
   9 str  10   5   1.441
  10 str  10   9   1.387
  11 str  11  10   1.431
  12 str  12  11   1.387
  13 str  13  12   1.331
  14 str  14  13   1.394
  15 str  15  14   1.415
  16 str  16   2   1.484
  17 str  16  11   1.441
  18 str  16  15   1.392
  19 str  17   6   1.085
  20 str  18   7   1.089
  21 str  19   8   1.098
  22 str  20  13   1.098
  23 str  21  14   1.089
  24 str  22  15   1.085
 nber stretches=          24
  25 ben   1   2   3
  26 prop tor   1   2   3   4
  27 prop tor   1   2   3   5
  28 ben   1   2  16
  29 prop tor   1   2  16  11
  30 prop tor   1   2  16  15
  31 ben   2   3   4
  32 ben   2   3   5
  33 prop tor   2   3   5   6
  34 prop tor   2   3   5  10
  35 ben   2  16  11
  36 ben   2  16  15
  37 ben   3   2  16
  38 prop tor   3   2  16  11
  39 prop tor   3   2  16  15
  40 ben   3   5   6
  41 prop tor   3   5   6   7
  42 prop tor   3   5   6  17
  43 ben   3   5  10
  44 prop tor   3   5  10   9
  45 prop tor   3   5  10  11
  46 ben   4   3   5
  47 prop tor   4   3   5   6
  48 prop tor   4   3   5  10
  49 ben   5   6   7
  50 prop tor   5   6   7   8
  51 prop tor   5   6   7  18
  52 ben   5   6  17
  53 ben   5  10   9
  54 ben   5  10  11
  55 prop tor   5  10  11  12
  56 prop tor   5  10  11  16
  57 ben   6   5  10
  58 prop tor   6   5  10   9
  59 prop tor   6   5  10  11
  60 ben   6   7   8
  61 prop tor   6   7   8   9
  62 prop tor   6   7   8  19
  63 ben   6   7  18
  64 ben   7   6  17
  65 ben   7   8   9
  66 prop tor   7   8   9  10
  67 ben   7   8  19
  68 ben   8   7  18
  69 ben   8   9  10
  70 prop tor   8   9  10   5
  71 prop tor   8   9  10  11
  72 ben   9   8  19
  73 ben   9  10  11
  74 prop tor   9  10  11  12
  75 prop tor   9  10  11  16
  76 prop tor  10   5   6   7
  77 prop tor  10   5   6  17
  78 ben  10  11  12
  79 prop tor  10  11  12  13
  80 ben  10  11  16
  81 prop tor  10  11  16   2
  82 prop tor  10  11  16  15
  83 ben  11  12  13
  84 prop tor  11  12  13  14
  85 prop tor  11  12  13  20
  86 ben  11  16  15
  87 ben  12  11  16
  88 prop tor  12  11  16   2
  89 prop tor  12  11  16  15
  90 ben  12  13  14
  91 prop tor  12  13  14  15
  92 prop tor  12  13  14  21
  93 ben  12  13  20
  94 ben  13  14  15
  95 prop tor  13  14  15  16
  96 prop tor  13  14  15  22
  97 ben  13  14  21
  98 ben  14  13  20
  99 ben  14  15  16
 100 prop tor  14  15  16   2
 101 prop tor  14  15  16  11
 102 ben  14  15  22
 103 ben  15  14  21
 104 prop tor  16   2   3   4
 105 prop tor  16   2   3   5
 106 prop tor  16  11  12  13
 107 ben  16  15  22
 108 prop tor  17   6   7   8
 109 prop tor  17   6   7  18
 110 prop tor  18   7   8   9
 111 prop tor  18   7   8  19
 112 prop tor  19   8   9  10
 113 prop tor  20  13  14  15
 114 prop tor  20  13  14  21
 115 prop tor  21  14  15  16
 116 prop tor  21  14  15  22
 117 prop tor  22  15  16   2
 118 prop tor  22  15  16  11
 nber bend=              38
 nber lin bend=           0
 nber prop tor=          56
 nber impr tor=           0
 nber tot redund int=         118
 Eigenvalues of G in red int coords
    Gval -0.00000000 -0.00000000 -0.00000000 -0.00000000 -0.00000000 -0.00000000 -0.00000000 -0.00000000
    Gval -0.00000000 -0.00000000 -0.00000000 -0.00000000 -0.00000000 -0.00000000 -0.00000000 -0.00000000
    Gval -0.00000000 -0.00000000 -0.00000000 -0.00000000 -0.00000000 -0.00000000 -0.00000000 -0.00000000
    Gval -0.00000000 -0.00000000 -0.00000000 -0.00000000 -0.00000000 -0.00000000 -0.00000000  0.00000000
    Gval  0.00000000  0.00000000  0.00000000  0.00000000  0.00000000  0.00000000  0.00000000  0.00000000
    Gval  0.00000000  0.00000000  0.00000000  0.00000000  0.00000000  0.00000000  0.00000000  0.00000000
    Gval  0.00000000  0.00000000  0.00000000  0.00000000  0.00000000  0.00000000  0.00000000  0.00000000
    Gval  0.00000000  0.00000000  0.00000701  0.00001102  0.00001168  0.00002014  0.00002115  0.00002559
    Gval  0.00003454  0.00004274  0.00004642  0.00004936  0.00005375  0.00005835  0.00006001  0.00007395
    Gval  0.00007763  0.00009723  0.00010051  0.00011018  0.00011436  0.00012538  0.00013098  0.00013103
    Gval  0.00014980  0.00019421  0.00024095  0.00024391  0.00026272  0.00028545  0.00032207  0.00036225
    Gval  0.00037580  0.00039585  0.00043031  0.00043525  0.00044592  0.00058189  0.00059381  0.00059382
    Gval  0.00060641  0.00060717  0.00064498  0.00064517  0.00070154  0.00090148  0.00090506  0.00105066
    Gval  0.00105099  0.00112017  0.00112019  0.00116234  0.00116240  0.00122346  0.00150868  0.00159421
    Gval  0.00171464  0.00211549  0.00269231  0.00271259  0.00387350  0.00387435
  7.005512873098918E-006  7.005512873098918E-006
  1.102430661032516E-005  7.005512873098918E-006
  1.167534606094165E-005  7.005512873098918E-006
  2.014099237107914E-005  7.005512873098918E-006
  2.115314782130332E-005  7.005512873098918E-006
  2.558595670696809E-005  7.005512873098918E-006
  3.454015336006251E-005  7.005512873098918E-006
  4.273896136223377E-005  7.005512873098918E-006
  4.642047896343946E-005  7.005512873098918E-006
  4.935693528167893E-005  7.005512873098918E-006
  5.375239571926986E-005  7.005512873098918E-006
  5.834895248076794E-005  7.005512873098918E-006
  6.001080018541233E-005  7.005512873098918E-006
  7.395343842189925E-005  7.005512873098918E-006
  7.763040998485294E-005  7.005512873098918E-006
  9.723216688756587E-005  7.005512873098918E-006
  1.005070901999942E-004  7.005512873098918E-006
  1.101772174145498E-004  7.005512873098918E-006
  1.143598592760690E-004  7.005512873098918E-006
  1.253808697916730E-004  7.005512873098918E-006
  1.309765750968475E-004  7.005512873098918E-006
  1.310278844047397E-004  7.005512873098918E-006
  1.497983501440995E-004  7.005512873098918E-006
  1.942114395727075E-004  7.005512873098918E-006
  2.409462235159071E-004  7.005512873098918E-006
  2.439119551524603E-004  7.005512873098918E-006
  2.627161710339894E-004  7.005512873098918E-006
  2.854526235658980E-004  7.005512873098918E-006
  3.220705108004846E-004  7.005512873098918E-006
  3.622530146300785E-004  7.005512873098918E-006
  3.757995201411917E-004  7.005512873098918E-006
  3.958541751916390E-004  7.005512873098918E-006
  4.303125332079654E-004  7.005512873098918E-006
  4.352511314811405E-004  7.005512873098918E-006
  4.459214261724981E-004  7.005512873098918E-006
  5.818930747893565E-004  7.005512873098918E-006
  5.938131890170068E-004  7.005512873098918E-006
  5.938201478569206E-004  7.005512873098918E-006
  6.064140611433080E-004  7.005512873098918E-006
  6.071692857471079E-004  7.005512873098918E-006
  6.449833299442004E-004  7.005512873098918E-006
  6.451727802385045E-004  7.005512873098918E-006
  7.015378229560016E-004  7.005512873098918E-006
  9.014823700755945E-004  7.005512873098918E-006
  9.050583627599989E-004  7.005512873098918E-006
  1.050656340748695E-003  7.005512873098918E-006
  1.050989178971142E-003  7.005512873098918E-006
  1.120171205236836E-003  7.005512873098918E-006
  1.120194959798409E-003  7.005512873098918E-006
  1.162342823712284E-003  7.005512873098918E-006
  1.162400500066863E-003  7.005512873098918E-006
  1.223457840171921E-003  7.005512873098918E-006
  1.508681427291029E-003  7.005512873098918E-006
  1.594213165396157E-003  7.005512873098918E-006
  1.714638248423542E-003  7.005512873098918E-006
  2.115492418544702E-003  7.005512873098918E-006
  2.692311066556064E-003  7.005512873098918E-006
  2.712590681390801E-003  7.005512873098918E-006
  3.873504073879261E-003  7.005512873098918E-006
  3.874345622582697E-003  7.005512873098918E-006
 cut=1d-8, nber non-redundant internal coords=          60
 Check on Eigenvals of non-red overlap matrix:
  0.00000701  0.00001102  0.00001168  0.00002014  0.00002115  0.00002559  0.00003454  0.00004274
  0.00004642  0.00004936  0.00005375  0.00005835  0.00006001  0.00007395  0.00007763  0.00009723
  0.00010051  0.00011018  0.00011436  0.00012538  0.00013098  0.00013103  0.00014980  0.00019421
  0.00024095  0.00024391  0.00026272  0.00028545  0.00032207  0.00036225  0.00037580  0.00039585
  0.00043031  0.00043525  0.00044592  0.00058189  0.00059381  0.00059382  0.00060641  0.00060717
  0.00064498  0.00064517  0.00070154  0.00090148  0.00090506  0.00105066  0.00105099  0.00112017
  0.00112019  0.00116234  0.00116240  0.00122346  0.00150868  0.00159421  0.00171464  0.00211549
  0.00269231  0.00271259  0.00387350  0.00387435
 Checking for correct frequencies
 recalc frequencies=
    -0.0   -0.0   -0.0   -0.0    0.0    0.0   66.3   81.2  130.1  162.1
   235.5  257.6  321.3  369.6  384.4  393.3  416.2  417.9  454.5  464.8
   540.7  582.3  586.9  622.5  650.6  661.5  675.3  705.6  721.0  740.3
   777.3  830.6  846.5  850.3  889.9  892.4  922.8 1026.9 1027.5 1041.6
  1062.7 1082.4 1082.4 1160.2 1171.5 1235.9 1270.8 1275.9 1320.9 1341.3
  1377.5 1428.9 1437.7 1454.9 1466.7 1483.0 1509.9 1539.5 1554.3 1565.1
  2989.6 2992.1 3095.0 3096.4 3158.6 3160.1
 recalc symmetries=
     A1     B1     A2     B2     B1     B2     A2     B1     A2     B1 
     A1     A2     B2     A1     B1     B2     A1     B1     A1     A2 
     A2     B1     B2     B2     B1     A1     A2     B2     A2     B1 
     A2     A1     B1     A2     B1     A2     B2     A1     B2     A1 
     B2     A1     B2     A1     B2     B2     A1     B2     A1     A1 
     B2     A1     B2     B2     B2     A1     A1     A1     B2     A1 
     B2     A1     B2     A1     B2     A1 
 recalc freqs check OK
 Zero-point lengths:
 10.0000 10.0000 10.0000 10.0000 10.0000 10.0000 30.4374 27.5069 21.7317 19.4736
 16.1531 15.4460 13.8316 12.8953 12.6451 12.5008 12.1515 12.1275 11.6287 11.4993
 10.6617 10.2737 10.2334  9.9365  9.7191  9.6393  9.5396  9.3330  9.2327  9.1118
  8.8920  8.6022  8.5209  8.5017  8.3105  8.2986  8.1609  7.7363  7.7339  7.6815
  7.6047  7.5355  7.5353  7.2783  7.2431  7.0519  6.9543  6.9406  6.8213  6.7691
  6.6796  6.5583  6.5381  6.4994  6.4733  6.4376  6.3801  6.3183  6.2883  6.2665
  4.5341  4.5322  4.4562  4.4552  4.4111  4.4101
 highest evec of mol 1
  0.0000 -0.0023 -0.0009
  0.0000  0.0010  0.0035
  0.0000 -0.0010  0.0035
  0.0000  0.0023 -0.0009
  0.0000  0.0022  0.0025
  0.0000 -0.0946  0.1740
  0.0000 -0.0373 -0.0076
  0.0000  0.0004 -0.0070
  0.0000 -0.0005  0.0000
  0.0000  0.0021 -0.0014
  0.0000 -0.0021 -0.0014
  0.0000  0.0005  0.0000
  0.0000 -0.0004 -0.0070
  0.0000  0.0373 -0.0076
  0.0000  0.0946  0.1740
  0.0000 -0.0022  0.0025
  0.0000  0.3232 -0.5848
  0.0000  0.1120  0.0082
  0.0000  0.0054  0.0140
  0.0000 -0.0054  0.0140
  0.0000 -0.1120  0.0082
  0.0000 -0.3232 -0.5848
 generating redundant internal coords
         300        3600          22
 Adding extra bonds for z output only
           8           6           6           8           6           6
           6           6           7           6           6           7
           6           6           6           6           1           1
           1           1           1           1
 search for int coords
   1 str   2   1   1.260
   2 str   3   2   1.471
   3 str   4   3   1.260
   4 str   5   3   1.484
   5 str   6   5   1.392
   6 str   7   6   1.415
   7 str   8   7   1.394
   8 str   9   8   1.331
   9 str  10   5   1.441
  10 str  10   9   1.387
  11 str  11  10   1.431
  12 str  12  11   1.387
  13 str  13  12   1.331
  14 str  14  13   1.394
  15 str  15  14   1.415
  16 str  16   2   1.484
  17 str  16  11   1.441
  18 str  16  15   1.392
  19 str  17   6   1.085
  20 str  18   7   1.089
  21 str  19   8   1.098
  22 str  20  13   1.098
  23 str  21  14   1.089
  24 str  22  15   1.085
 nber stretches=          24
  25 ben   1   2   3
  26 prop tor   1   2   3   4
  27 prop tor   1   2   3   5
  28 ben   1   2  16
  29 prop tor   1   2  16  11
  30 prop tor   1   2  16  15
  31 ben   2   3   4
  32 ben   2   3   5
  33 prop tor   2   3   5   6
  34 prop tor   2   3   5  10
  35 ben   2  16  11
  36 ben   2  16  15
  37 ben   3   2  16
  38 prop tor   3   2  16  11
  39 prop tor   3   2  16  15
  40 ben   3   5   6
  41 prop tor   3   5   6   7
  42 prop tor   3   5   6  17
  43 ben   3   5  10
  44 prop tor   3   5  10   9
  45 prop tor   3   5  10  11
  46 ben   4   3   5
  47 prop tor   4   3   5   6
  48 prop tor   4   3   5  10
  49 ben   5   6   7
  50 prop tor   5   6   7   8
  51 prop tor   5   6   7  18
  52 ben   5   6  17
  53 ben   5  10   9
  54 ben   5  10  11
  55 prop tor   5  10  11  12
  56 prop tor   5  10  11  16
  57 ben   6   5  10
  58 prop tor   6   5  10   9
  59 prop tor   6   5  10  11
  60 ben   6   7   8
  61 prop tor   6   7   8   9
  62 prop tor   6   7   8  19
  63 ben   6   7  18
  64 ben   7   6  17
  65 ben   7   8   9
  66 prop tor   7   8   9  10
  67 ben   7   8  19
  68 ben   8   7  18
  69 ben   8   9  10
  70 prop tor   8   9  10   5
  71 prop tor   8   9  10  11
  72 ben   9   8  19
  73 ben   9  10  11
  74 prop tor   9  10  11  12
  75 prop tor   9  10  11  16
  76 prop tor  10   5   6   7
  77 prop tor  10   5   6  17
  78 ben  10  11  12
  79 prop tor  10  11  12  13
  80 ben  10  11  16
  81 prop tor  10  11  16   2
  82 prop tor  10  11  16  15
  83 ben  11  12  13
  84 prop tor  11  12  13  14
  85 prop tor  11  12  13  20
  86 ben  11  16  15
  87 ben  12  11  16
  88 prop tor  12  11  16   2
  89 prop tor  12  11  16  15
  90 ben  12  13  14
  91 prop tor  12  13  14  15
  92 prop tor  12  13  14  21
  93 ben  12  13  20
  94 ben  13  14  15
  95 prop tor  13  14  15  16
  96 prop tor  13  14  15  22
  97 ben  13  14  21
  98 ben  14  13  20
  99 ben  14  15  16
 100 prop tor  14  15  16   2
 101 prop tor  14  15  16  11
 102 ben  14  15  22
 103 ben  15  14  21
 104 prop tor  16   2   3   4
 105 prop tor  16   2   3   5
 106 prop tor  16  11  12  13
 107 ben  16  15  22
 108 prop tor  17   6   7   8
 109 prop tor  17   6   7  18
 110 prop tor  18   7   8   9
 111 prop tor  18   7   8  19
 112 prop tor  19   8   9  10
 113 prop tor  20  13  14  15
 114 prop tor  20  13  14  21
 115 prop tor  21  14  15  16
 116 prop tor  21  14  15  22
 117 prop tor  22  15  16   2
 118 prop tor  22  15  16  11
 nber bend=              38
 nber lin bend=           0
 nber prop tor=          56
 nber impr tor=           0
 nber tot redund int=         118
 Reading file: 
 ./conjugated_carbonyls_1_C-3S0.log                                             
                                          
  Entering Gaussian System, Link 0=g16                                          
  
 Gaussian format, type: g94, g98, g03= F F F
  #P Geom=AllCheck Guess=TCheck SCRF=Check Test GenChk UB3LYP/6-311G(d,p    
 energy type= B3LYP   
 Original G94 input coords:
  8 -1.393847 -3.086058  0.000000
  6 -0.756489 -1.977858  0.000000
  6  0.756489 -1.977858  0.000000
  8  1.393847 -3.086058  0.000000
  6  1.438815 -0.700458  0.000000
  6  2.878825 -0.669500  0.000000
  6  3.534548  0.585911  0.000000
  6  2.759113  1.739536  0.000000
  7  1.398074  1.780222  0.000000
  6  0.725522  0.560764  0.000000
  6 -0.725522  0.560764  0.000000
  7 -1.398074  1.780222  0.000000
  6 -2.759113  1.739536  0.000000
  6 -3.534548  0.585911  0.000000
  6 -2.878825 -0.669500  0.000000
  6 -1.438815 -0.700458  0.000000
  1  3.405848 -1.618844  0.000000
  1  4.630635  0.662647  0.000000
  1  3.259132  2.723638  0.000000
  1 -3.259132  2.723638  0.000000
  1 -4.630635  0.662647  0.000000
  1 -3.405848 -1.618844  0.000000
 nber atoms=          22
  SCF Done:  E(UB3LYP) =  -720.659125064     A.U. after    1 cycles             
  
          23          40 "  -720.659125064"
After scan for Atom:   Atom  AN      X      Y      Z        X      Y      Z        X      Y      Z   
After scan for Atom:   Atom  AN      X      Y      Z        X      Y      Z        X      Y      Z   
After scan for Atom:   Atom  AN      X      Y      Z        X      Y      Z        X      Y      Z   
After scan for Atom:   Atom  AN      X      Y      Z        X      Y      Z        X      Y      Z   
After scan for Atom:   Atom  AN      X      Y      Z        X      Y      Z        X      Y      Z   
After scan for Atom:   Atom  AN      X      Y      Z        X      Y      Z        X      Y      Z   
After scan for Atom:   Atom  AN      X      Y      Z        X      Y      Z        X      Y      Z   
After scan for Atom:   Atom  AN      X      Y      Z        X      Y      Z        X      Y      Z   
After scan for Atom:   Atom  AN      X      Y      Z        X      Y      Z        X      Y      Z   
After scan for Atom:   Atom  AN      X      Y      Z        X      Y      Z        X      Y      Z   
After scan for Atom:   Atom  AN      X      Y      Z        X      Y      Z        X      Y      Z   
After scan for Atom:   Atom  AN      X      Y      Z        X      Y      Z        X      Y      Z   
After scan for Atom:   Atom  AN      X      Y      Z        X      Y      Z        X      Y      Z   
After scan for Atom:   Atom  AN      X      Y      Z        X      Y      Z        X      Y      Z   
After scan for Atom:   Atom  AN      X      Y      Z        X      Y      Z        X      Y      Z   
After scan for Atom:   Atom  AN      X      Y      Z        X      Y      Z        X      Y      Z   
After scan for Atom:   Atom  AN      X      Y      Z        X      Y      Z        X      Y      Z   
After scan for Atom:   Atom  AN      X      Y      Z        X      Y      Z        X      Y      Z   
After scan for Atom:   Atom  AN      X      Y      Z        X      Y      Z        X      Y      Z   
After scan for Atom:   Atom  AN      X      Y      Z        X      Y      Z        X      Y      Z   
 g94    frequencies=
     0.0    0.0    0.0    0.0    0.0    0.0   66.3   91.7  122.7  141.5
   191.4  231.7  292.1  316.6  367.9  377.2  403.6  403.7  443.9  456.6
   486.3  507.1  549.1  568.0  576.5  592.8  622.6  633.8  637.4  671.7
   688.2  696.8  735.2  737.4  780.5  821.7  896.1  977.1  977.3  992.1
  1020.8 1038.2 1042.8 1106.5 1155.4 1217.3 1224.1 1258.0 1264.3 1298.0
  1340.3 1365.5 1399.2 1417.8 1424.2 1449.7 1489.6 1493.8 1507.9 1543.0
  2896.3 2898.9 2976.6 2979.3 3136.8 3137.1
 g94    symmetries=
                                                 A      A      A      A
       A      A      A      A      A      A      A      A      A      A
       A      A      A      A      A      A      A      A      A      A
       A      A      A      A      A      A      A      A      A      A
       A      A      A      A      A      A      A      A      A      A
       A      A      A      A      A      A      A      A      A      A
       A      A      A      A      A      A
 atomic masses:
 15.9949 12.0000 12.0000 15.9949 12.0000 12.0000 12.0000 12.0000 14.0031 12.0000
 12.0000 14.0031 12.0000 12.0000 12.0000 12.0000  1.0078  1.0078  1.0078  1.0078
  1.0078  1.0078
 looking for force constants in 
 ./conjugated_carbonyls_1_C-3S0.fchk                                            
  
 Cartesian Force Constants                  R   N=        2211                  
  
 n3=          66        2211
 g94-fc frequencies=
    -4.2   -3.2   -1.1   -0.0    0.0    0.0   66.3   91.7  122.7  141.5
   191.4  231.7  292.1  316.6  367.9  377.2  403.6  403.7  443.9  456.6
   486.3  507.1  549.1  568.1  576.5  592.9  622.6  633.8  637.4  671.7
   688.2  696.8  735.2  737.4  780.5  821.7  896.1  977.1  977.3  992.1
  1020.9 1038.2 1042.9 1106.6 1155.4 1217.3 1224.1 1258.0 1264.4 1298.0
  1340.3 1365.5 1399.2 1417.8 1424.2 1449.7 1489.6 1493.8 1507.9 1543.0
  2896.3 2899.0 2976.7 2979.4 3136.8 3137.1
 at 99999: n3=          66
 symm operator            1 :  F  nop=           0
 symm operator            2 :  T  nop=           1
 symm operator            3 :  F  nop=           1
 symm operator            4 :  F  nop=           1
 symm operator            5 :  T  nop=           2
 symm operator            6 :  F  nop=           2
 symm operator            7 :  T  nop=           3
 swap           2           3
   1  -1.39385   0.00000  -3.08606
   2  -0.75649   0.00000  -1.97786
   3   0.75649   0.00000  -1.97786
   4   1.39385   0.00000  -3.08606
   5   1.43881   0.00000  -0.70046
   6   2.87882   0.00000  -0.66950
   7   3.53455   0.00000   0.58591
   8   2.75911   0.00000   1.73954
   9   1.39807   0.00000   1.78022
  10   0.72552   0.00000   0.56076
  11  -0.72552   0.00000   0.56076
  12  -1.39807   0.00000   1.78022
  13  -2.75911   0.00000   1.73954
  14  -3.53455   0.00000   0.58591
  15  -2.87882   0.00000  -0.66950
  16  -1.43881   0.00000  -0.70046
  17   3.40585   0.00000  -1.61884
  18   4.63063   0.00000   0.66265
  19   3.25913   0.00000   2.72364
  20  -3.25913   0.00000   2.72364
  21  -4.63063   0.00000   0.66265
  22  -3.40585   0.00000  -1.61884
 swap           1           2
   1   0.00000  -1.39385  -3.08606
   2   0.00000  -0.75649  -1.97786
   3   0.00000   0.75649  -1.97786
   4   0.00000   1.39385  -3.08606
   5   0.00000   1.43881  -0.70046
   6   0.00000   2.87882  -0.66950
   7   0.00000   3.53455   0.58591
   8   0.00000   2.75911   1.73954
   9   0.00000   1.39807   1.78022
  10   0.00000   0.72552   0.56076
  11   0.00000  -0.72552   0.56076
  12   0.00000  -1.39807   1.78022
  13   0.00000  -2.75911   1.73954
  14   0.00000  -3.53455   0.58591
  15   0.00000  -2.87882  -0.66950
  16   0.00000  -1.43881  -0.70046
  17   0.00000   3.40585  -1.61884
  18   0.00000   4.63063   0.66265
  19   0.00000   3.25913   2.72364
  20   0.00000  -3.25913   2.72364
  21   0.00000  -4.63063   0.66265
  22   0.00000  -3.40585  -1.61884
 The point group of the molecule is C2V
 enforcing symm op           1  jsymt=          -1          -1           1
 enforcing symm op           6  jsymt=           1          -1           1
 enforcing symm op           7  jsymt=          -1           1           1
 cartesian coord symmetries:
 A1 :   22 A2 :   11 B1 :   11 B2 :   22
 Symmetry rotation matrix:
   0.00000   0.00000   1.00000
  -1.00000   0.00000   0.00000
   0.00000  -1.00000   0.00000

 Projecting out zero-frequency components
 generating redundant internal coords
         300        3600          22
 search for int coords
   1 str   2   1   1.278
   2 str   3   2   1.513
   3 str   4   3   1.278
   4 str   5   3   1.448
   5 str   6   5   1.440
   6 str   7   6   1.416
   7 str   8   7   1.390
   8 str   9   8   1.362
   9 str  10   5   1.449
  10 str  10   9   1.393
  11 str  11  10   1.451
  12 str  12  11   1.393
  13 str  13  12   1.362
  14 str  14  13   1.390
  15 str  15  14   1.416
  16 str  16   2   1.448
  17 str  16  11   1.449
  18 str  16  15   1.440
  19 str  17   6   1.086
  20 str  18   7   1.099
  21 str  19   8   1.104
  22 str  20  13   1.104
  23 str  21  14   1.099
  24 str  22  15   1.086
 nber stretches=          24
  25 ben   1   2   3
  26 prop tor   1   2   3   4
  27 prop tor   1   2   3   5
  28 ben   1   2  16
  29 prop tor   1   2  16  11
  30 prop tor   1   2  16  15
  31 ben   2   3   4
  32 ben   2   3   5
  33 prop tor   2   3   5   6
  34 prop tor   2   3   5  10
  35 ben   2  16  11
  36 ben   2  16  15
  37 ben   3   2  16
  38 prop tor   3   2  16  11
  39 prop tor   3   2  16  15
  40 ben   3   5   6
  41 prop tor   3   5   6   7
  42 prop tor   3   5   6  17
  43 ben   3   5  10
  44 prop tor   3   5  10   9
  45 prop tor   3   5  10  11
  46 ben   4   3   5
  47 prop tor   4   3   5   6
  48 prop tor   4   3   5  10
  49 ben   5   6   7
  50 prop tor   5   6   7   8
  51 prop tor   5   6   7  18
  52 ben   5   6  17
  53 ben   5  10   9
  54 ben   5  10  11
  55 prop tor   5  10  11  12
  56 prop tor   5  10  11  16
  57 ben   6   5  10
  58 prop tor   6   5  10   9
  59 prop tor   6   5  10  11
  60 ben   6   7   8
  61 prop tor   6   7   8   9
  62 prop tor   6   7   8  19
  63 ben   6   7  18
  64 ben   7   6  17
  65 ben   7   8   9
  66 prop tor   7   8   9  10
  67 ben   7   8  19
  68 ben   8   7  18
  69 ben   8   9  10
  70 prop tor   8   9  10   5
  71 prop tor   8   9  10  11
  72 ben   9   8  19
  73 ben   9  10  11
  74 prop tor   9  10  11  12
  75 prop tor   9  10  11  16
  76 prop tor  10   5   6   7
  77 prop tor  10   5   6  17
  78 ben  10  11  12
  79 prop tor  10  11  12  13
  80 ben  10  11  16
  81 prop tor  10  11  16   2
  82 prop tor  10  11  16  15
  83 ben  11  12  13
  84 prop tor  11  12  13  14
  85 prop tor  11  12  13  20
  86 ben  11  16  15
  87 ben  12  11  16
  88 prop tor  12  11  16   2
  89 prop tor  12  11  16  15
  90 ben  12  13  14
  91 prop tor  12  13  14  15
  92 prop tor  12  13  14  21
  93 ben  12  13  20
  94 ben  13  14  15
  95 prop tor  13  14  15  16
  96 prop tor  13  14  15  22
  97 ben  13  14  21
  98 ben  14  13  20
  99 ben  14  15  16
 100 prop tor  14  15  16   2
 101 prop tor  14  15  16  11
 102 ben  14  15  22
 103 ben  15  14  21
 104 prop tor  16   2   3   4
 105 prop tor  16   2   3   5
 106 prop tor  16  11  12  13
 107 ben  16  15  22
 108 prop tor  17   6   7   8
 109 prop tor  17   6   7  18
 110 prop tor  18   7   8   9
 111 prop tor  18   7   8  19
 112 prop tor  19   8   9  10
 113 prop tor  20  13  14  15
 114 prop tor  20  13  14  21
 115 prop tor  21  14  15  16
 116 prop tor  21  14  15  22
 117 prop tor  22  15  16   2
 118 prop tor  22  15  16  11
 nber bend=              38
 nber lin bend=           0
 nber prop tor=          56
 nber impr tor=           0
 nber tot redund int=         118
 Eigenvalues of G in red int coords
    Gval -0.00000000 -0.00000000 -0.00000000 -0.00000000 -0.00000000 -0.00000000 -0.00000000 -0.00000000
    Gval -0.00000000 -0.00000000 -0.00000000 -0.00000000 -0.00000000 -0.00000000 -0.00000000 -0.00000000
    Gval -0.00000000 -0.00000000 -0.00000000 -0.00000000 -0.00000000 -0.00000000 -0.00000000 -0.00000000
    Gval -0.00000000 -0.00000000 -0.00000000  0.00000000  0.00000000  0.00000000  0.00000000  0.00000000
    Gval  0.00000000  0.00000000  0.00000000  0.00000000  0.00000000  0.00000000  0.00000000  0.00000000
    Gval  0.00000000  0.00000000  0.00000000  0.00000000  0.00000000  0.00000000  0.00000000  0.00000000
    Gval  0.00000000  0.00000000  0.00000000  0.00000000  0.00000000  0.00000000  0.00000000  0.00000000
    Gval  0.00000000  0.00000000  0.00000690  0.00001099  0.00001162  0.00002004  0.00002094  0.00002554
    Gval  0.00003449  0.00004137  0.00004631  0.00004863  0.00005343  0.00005796  0.00005972  0.00007356
    Gval  0.00007761  0.00009595  0.00009968  0.00010910  0.00011365  0.00012492  0.00012889  0.00013064
    Gval  0.00014882  0.00019174  0.00023785  0.00023808  0.00026099  0.00028177  0.00031335  0.00035598
    Gval  0.00037042  0.00038701  0.00042812  0.00043884  0.00043966  0.00058338  0.00059372  0.00059373
    Gval  0.00060533  0.00060594  0.00064291  0.00064306  0.00066088  0.00089642  0.00090512  0.00103681
    Gval  0.00103710  0.00111086  0.00111087  0.00115090  0.00115097  0.00120169  0.00149440  0.00157226
    Gval  0.00168387  0.00209082  0.00267189  0.00269160  0.00382453  0.00382548
  6.897923562134155E-006  6.897923562134155E-006
  1.098990884793689E-005  6.897923562134155E-006
  1.162310375077219E-005  6.897923562134155E-006
  2.003729991780123E-005  6.897923562134155E-006
  2.094068817037462E-005  6.897923562134155E-006
  2.553944417922098E-005  6.897923562134155E-006
  3.448655646827430E-005  6.897923562134155E-006
  4.137308874398233E-005  6.897923562134155E-006
  4.630873615188708E-005  6.897923562134155E-006
  4.863343247535661E-005  6.897923562134155E-006
  5.342774868510422E-005  6.897923562134155E-006
  5.795835123524135E-005  6.897923562134155E-006
  5.971999244202577E-005  6.897923562134155E-006
  7.355988235351418E-005  6.897923562134155E-006
  7.760749243838180E-005  6.897923562134155E-006
  9.595306992828967E-005  6.897923562134155E-006
  9.967931835926708E-005  6.897923562134155E-006
  1.090976397117629E-004  6.897923562134155E-006
  1.136526755027536E-004  6.897923562134155E-006
  1.249197531010664E-004  6.897923562134155E-006
  1.288879994970767E-004  6.897923562134155E-006
  1.306407349416218E-004  6.897923562134155E-006
  1.488239052786273E-004  6.897923562134155E-006
  1.917373098461357E-004  6.897923562134155E-006
  2.378495675840873E-004  6.897923562134155E-006
  2.380813751495496E-004  6.897923562134155E-006
  2.609911984109567E-004  6.897923562134155E-006
  2.817691514702564E-004  6.897923562134155E-006
  3.133517367110307E-004  6.897923562134155E-006
  3.559766212677524E-004  6.897923562134155E-006
  3.704204000723523E-004  6.897923562134155E-006
  3.870063142301698E-004  6.897923562134155E-006
  4.281241087653561E-004  6.897923562134155E-006
  4.388447144382046E-004  6.897923562134155E-006
  4.396605812019988E-004  6.897923562134155E-006
  5.833796284649439E-004  6.897923562134155E-006
  5.937195410558821E-004  6.897923562134155E-006
  5.937251615499305E-004  6.897923562134155E-006
  6.053314532847322E-004  6.897923562134155E-006
  6.059403126199849E-004  6.897923562134155E-006
  6.429050004627068E-004  6.897923562134155E-006
  6.430648298208084E-004  6.897923562134155E-006
  6.608817991889782E-004  6.897923562134155E-006
  8.964231506859068E-004  6.897923562134155E-006
  9.051205424034024E-004  6.897923562134155E-006
  1.036812231137384E-003  6.897923562134155E-006
  1.037098713443805E-003  6.897923562134155E-006
  1.110856126923010E-003  6.897923562134155E-006
  1.110869168158182E-003  6.897923562134155E-006
  1.150895566415388E-003  6.897923562134155E-006
  1.150967767940064E-003  6.897923562134155E-006
  1.201691579715431E-003  6.897923562134155E-006
  1.494400218524584E-003  6.897923562134155E-006
  1.572257326853758E-003  6.897923562134155E-006
  1.683866350255936E-003  6.897923562134155E-006
  2.090821467549751E-003  6.897923562134155E-006
  2.671891399456448E-003  6.897923562134155E-006
  2.691597334276680E-003  6.897923562134155E-006
  3.824528002550567E-003  6.897923562134155E-006
  3.825479822776191E-003  6.897923562134155E-006
 cut=1d-8, nber non-redundant internal coords=          60
 Check on Eigenvals of non-red overlap matrix:
  0.00000690  0.00001099  0.00001162  0.00002004  0.00002094  0.00002554  0.00003449  0.00004137
  0.00004631  0.00004863  0.00005343  0.00005796  0.00005972  0.00007356  0.00007761  0.00009595
  0.00009968  0.00010910  0.00011365  0.00012492  0.00012889  0.00013064  0.00014882  0.00019174
  0.00023785  0.00023808  0.00026099  0.00028177  0.00031335  0.00035598  0.00037042  0.00038701
  0.00042812  0.00043884  0.00043966  0.00058338  0.00059372  0.00059373  0.00060533  0.00060594
  0.00064291  0.00064306  0.00066088  0.00089642  0.00090512  0.00103681  0.00103710  0.00111086
  0.00111087  0.00115090  0.00115097  0.00120169  0.00149440  0.00157226  0.00168387  0.00209082
  0.00267189  0.00269160  0.00382453  0.00382548
 Checking for correct frequencies
 recalc frequencies=
    -0.0   -0.0   -0.0   -0.0    0.0    0.0   66.3   91.7  122.7  141.5
   191.4  231.7  292.1  316.6  367.9  377.2  403.6  403.7  443.9  456.6
   486.3  507.1  549.1  568.1  576.5  592.9  622.6  633.8  637.4  671.7
   688.2  696.8  735.2  737.4  780.5  821.7  896.1  977.1  977.3  992.1
  1020.9 1038.2 1042.9 1106.6 1155.4 1217.3 1224.1 1258.0 1264.4 1298.0
  1340.3 1365.5 1399.2 1417.8 1424.2 1449.7 1489.6 1493.8 1507.9 1543.0
  2896.3 2899.0 2976.7 2979.4 3136.8 3137.1
 recalc symmetries=
     A1     B2     B2     B1     A2     B1     A2     B1     A2     B1 
     A2     A1     B1     B2     A1     A2     A1     B2     B1     A1 
     B1     A2     A2     B1     B2     B2     B1     A2     A1     B1 
     A2     B2     A2     B1     A2     A1     B2     B2     A1     A1 
     B2     A1     B2     A1     B2     B2     A1     A1     B2     A1 
     B2     A1     B2     B2     A1     A1     A1     A1     B2     B2 
     B2     A1     B2     A1     B2     A1 
 recalc freqs check OK
 Zero-point lengths:
 10.0000 10.0000 10.0000 10.0000 10.0000 10.0000 30.4444 25.8927 22.3833 20.8394
 17.9211 16.2879 14.5062 13.9336 12.9253 12.7650 12.3396 12.3381 11.7661 11.6022
 11.2424 11.0093 10.5793 10.4015 10.3248 10.1817  9.9357  9.8476  9.8194  9.5653
  9.4503  9.3917  9.1432  9.1293  8.8740  8.6486  8.2818  7.9309  7.9300  7.8707
  7.7592  7.6941  7.6769  7.4526  7.2934  7.1056  7.0858  6.9896  6.9720  6.8811
  6.7716  6.7088  6.6275  6.5839  6.5691  6.5111  6.4233  6.4143  6.3842  6.3112
  4.6065  4.6044  4.5439  4.5418  4.4264  4.4262
 highest evec of mol 2
  0.0000 -0.0028 -0.0014
  0.0000  0.0022  0.0034
  0.0000 -0.0022  0.0034
  0.0000  0.0028 -0.0014
  0.0000  0.0012  0.0044
  0.0000 -0.0954  0.1728
  0.0000 -0.0231 -0.0054
  0.0000 -0.0007 -0.0079
  0.0000  0.0010  0.0010
  0.0000  0.0013 -0.0028
  0.0000 -0.0013 -0.0028
  0.0000 -0.0010  0.0010
  0.0000  0.0007 -0.0079
  0.0000  0.0231 -0.0054
  0.0000  0.0954  0.1728
  0.0000 -0.0012  0.0044
  0.0000  0.3313 -0.5885
  0.0000  0.0625  0.0067
  0.0000  0.0057  0.0154
  0.0000 -0.0057  0.0154
  0.0000 -0.0625  0.0067
  0.0000 -0.3313 -0.5885
 Enter nber and list of atoms to keep of mol #2
 keep list:          22           1           2           3           4
           5           6           7           8           9          10
          11          12          13          14          15          16
          17          18          19          20          21          22
 reordering atoms
           1  -1.39384700000000     
           2 -0.756489000000000     
           3  0.756489000000000     
           4   1.39384700000000     
           5   1.43881500000000     
           6   2.87882500000000     
           7   3.53454800000000     
           8   2.75911300000000     
           9   1.39807400000000     
          10  0.725522000000000     
          11 -0.725522000000000     
          12  -1.39807400000000     
          13  -2.75911300000000     
          14  -3.53454800000000     
          15  -2.87882500000000     
          16  -1.43881500000000     
          17   3.40584800000000     
          18   4.63063500000000     
          19   3.25913200000000     
          20  -3.25913200000000     
          21  -4.63063500000000     
          22  -3.40584800000000     
           1           1
           2           2
           3           3
           4           4
           5           5
           6           6
           7           7
           8           8
           9           9
          10          10
          11          11
          12          12
          13          13
          14          14
          15          15
          16          16
          17          17
          18          18
          19          19
          20          20
          21          21
          22          22
 initial cartes coords mol 1
   8   0.00000   2.77650  -1.39881
   6   0.00000   1.70461  -0.73560
   6   0.00000   1.70461   0.73560
   8   0.00000   2.77650   1.39881
   6   0.00000   0.39208   1.42751
   6   0.00000   0.37022   2.81940
   6   0.00000  -0.86795   3.50511
   6   0.00000  -2.02452   2.72759
   7   0.00000  -2.06893   1.39702
   6   0.00000  -0.86098   0.71571
   6   0.00000  -0.86098  -0.71571
   7   0.00000  -2.06893  -1.39702
   6   0.00000  -2.02452  -2.72759
   6   0.00000  -0.86795  -3.50511
   6   0.00000   0.37022  -2.81940
   6   0.00000   0.39208  -1.42751
   1   0.00000   1.32648   3.33220
   1   0.00000  -0.92678   4.59265
   1   0.00000  -3.00175   3.22737
   1   0.00000  -3.00175  -3.22737
   1   0.00000  -0.92678  -4.59265
   1   0.00000   1.32648  -3.33220
 initial cartes coords mol 2
   8   0.00000   2.79221  -1.39385
   6   0.00000   1.68401  -0.75649
   6   0.00000   1.68401   0.75649
   8   0.00000   2.79221   1.39385
   6   0.00000   0.40661   1.43881
   6   0.00000   0.37565   2.87882
   6   0.00000  -0.87976   3.53455
   6   0.00000  -2.03338   2.75911
   7   0.00000  -2.07407   1.39807
   6   0.00000  -0.85461   0.72552
   6   0.00000  -0.85461  -0.72552
   7   0.00000  -2.07407  -1.39807
   6   0.00000  -2.03338  -2.75911
   6   0.00000  -0.87976  -3.53455
   6   0.00000   0.37565  -2.87882
   6   0.00000   0.40661  -1.43881
   1   0.00000   1.32500   3.40585
   1   0.00000  -0.95650   4.63063
   1   0.00000  -3.01749   3.25913
   1   0.00000  -3.01749  -3.25913
   1   0.00000  -0.95650  -4.63063
   1   0.00000   1.32500  -3.40585
 loop 1 0
 mod cartes coords mol 2
   8   0.00000   2.79221  -1.39385
   6   0.00000   1.68401  -0.75649
   6   0.00000   1.68401   0.75649
   8   0.00000   2.79221   1.39385
   6   0.00000   0.40661   1.43881
   6   0.00000   0.37565   2.87882
   6   0.00000  -0.87976   3.53455
   6   0.00000  -2.03338   2.75911
   7   0.00000  -2.07407   1.39807
   6   0.00000  -0.85461   0.72552
   6   0.00000  -0.85461  -0.72552
   7   0.00000  -2.07407  -1.39807
   6   0.00000  -2.03338  -2.75911
   6   0.00000  -0.87976  -3.53455
   6   0.00000   0.37565  -2.87882
   6   0.00000   0.40661  -1.43881
   1   0.00000   1.32500   3.40585
   1   0.00000  -0.95650   4.63063
   1   0.00000  -3.01749   3.25913
   1   0.00000  -3.01749  -3.25913
   1   0.00000  -0.95650  -4.63063
   1   0.00000   1.32500  -3.40585
 read in order, maxerr=  0.07 for atom  17
 final axis swaps:           1           1           1
 final xyz swap pattern=           1
 reorder list:
   1   2   3   4   5   6   7   8   9  10  11  12  13  14  15  16  17  18  19  20
  21  22
 axis signs=           1           1           1
  8     0.000000  2.792210 -1.393847     0.000000  2.776499 -1.398813
  6     0.000000  1.684010 -0.756489     0.000000  1.704614 -0.735600
  6     0.000000  1.684010  0.756489     0.000000  1.704614  0.735600
  8     0.000000  2.792210  1.393847     0.000000  2.776499  1.398813
  6     0.000000  0.406610  1.438815     0.000000  0.392079  1.427507
  6     0.000000  0.375652  2.878825     0.000000  0.370217  2.819396
  6     0.000000 -0.879759  3.534548     0.000000 -0.867948  3.505112
  6     0.000000 -2.033384  2.759113     0.000000 -2.024525  2.727592
  7     0.000000 -2.074070  1.398074     0.000000 -2.068933  1.397017
  6     0.000000 -0.854612  0.725522     0.000000 -0.860977  0.715715
  6     0.000000 -0.854612 -0.725522     0.000000 -0.860977 -0.715715
  7     0.000000 -2.074070 -1.398074     0.000000 -2.068933 -1.397017
  6     0.000000 -2.033384 -2.759113     0.000000 -2.024525 -2.727592
  6     0.000000 -0.879759 -3.534548     0.000000 -0.867948 -3.505112
  6     0.000000  0.375652 -2.878825     0.000000  0.370217 -2.819396
  6     0.000000  0.406610 -1.438815     0.000000  0.392079 -1.427507
  1     0.000000  1.324996  3.405848     0.000000  1.326477  3.332199
  1     0.000000 -0.956495  4.630635     0.000000 -0.926776  4.592653
  1     0.000000 -3.017486  3.259132     0.000000 -3.001751  3.227367
  1     0.000000 -3.017486 -3.259132     0.000000 -3.001751 -3.227367
  1     0.000000 -0.956495 -4.630635     0.000000 -0.926776 -4.592653
  1     0.000000  1.324996 -3.405848     0.000000  1.326477 -3.332199
 generating redundant internal coords
         300        3600          22
 Adding extra bonds for z output only
           8           6           6           8           6           6
           6           6           7           6           6           7
           6           6           6           6           1           1
           1           1           1           1
 search for int coords
   1 str   2   1   1.278
   2 str   3   2   1.513
   3 str   4   3   1.278
   4 str   5   3   1.448
   5 str   6   5   1.440
   6 str   7   6   1.416
   7 str   8   7   1.390
   8 str   9   8   1.362
   9 str  10   5   1.449
  10 str  10   9   1.393
  11 str  11  10   1.451
  12 str  12  11   1.393
  13 str  13  12   1.362
  14 str  14  13   1.390
  15 str  15  14   1.416
  16 str  16   2   1.448
  17 str  16  11   1.449
  18 str  16  15   1.440
  19 str  17   6   1.086
  20 str  18   7   1.099
  21 str  19   8   1.104
  22 str  20  13   1.104
  23 str  21  14   1.099
  24 str  22  15   1.086
 nber stretches=          24
  25 ben   1   2   3
  26 prop tor   1   2   3   4
  27 prop tor   1   2   3   5
  28 ben   1   2  16
  29 prop tor   1   2  16  11
  30 prop tor   1   2  16  15
  31 ben   2   3   4
  32 ben   2   3   5
  33 prop tor   2   3   5   6
  34 prop tor   2   3   5  10
  35 ben   2  16  11
  36 ben   2  16  15
  37 ben   3   2  16
  38 prop tor   3   2  16  11
  39 prop tor   3   2  16  15
  40 ben   3   5   6
  41 prop tor   3   5   6   7
  42 prop tor   3   5   6  17
  43 ben   3   5  10
  44 prop tor   3   5  10   9
  45 prop tor   3   5  10  11
  46 ben   4   3   5
  47 prop tor   4   3   5   6
  48 prop tor   4   3   5  10
  49 ben   5   6   7
  50 prop tor   5   6   7   8
  51 prop tor   5   6   7  18
  52 ben   5   6  17
  53 ben   5  10   9
  54 ben   5  10  11
  55 prop tor   5  10  11  12
  56 prop tor   5  10  11  16
  57 ben   6   5  10
  58 prop tor   6   5  10   9
  59 prop tor   6   5  10  11
  60 ben   6   7   8
  61 prop tor   6   7   8   9
  62 prop tor   6   7   8  19
  63 ben   6   7  18
  64 ben   7   6  17
  65 ben   7   8   9
  66 prop tor   7   8   9  10
  67 ben   7   8  19
  68 ben   8   7  18
  69 ben   8   9  10
  70 prop tor   8   9  10   5
  71 prop tor   8   9  10  11
  72 ben   9   8  19
  73 ben   9  10  11
  74 prop tor   9  10  11  12
  75 prop tor   9  10  11  16
  76 prop tor  10   5   6   7
  77 prop tor  10   5   6  17
  78 ben  10  11  12
  79 prop tor  10  11  12  13
  80 ben  10  11  16
  81 prop tor  10  11  16   2
  82 prop tor  10  11  16  15
  83 ben  11  12  13
  84 prop tor  11  12  13  14
  85 prop tor  11  12  13  20
  86 ben  11  16  15
  87 ben  12  11  16
  88 prop tor  12  11  16   2
  89 prop tor  12  11  16  15
  90 ben  12  13  14
  91 prop tor  12  13  14  15
  92 prop tor  12  13  14  21
  93 ben  12  13  20
  94 ben  13  14  15
  95 prop tor  13  14  15  16
  96 prop tor  13  14  15  22
  97 ben  13  14  21
  98 ben  14  13  20
  99 ben  14  15  16
 100 prop tor  14  15  16   2
 101 prop tor  14  15  16  11
 102 ben  14  15  22
 103 ben  15  14  21
 104 prop tor  16   2   3   4
 105 prop tor  16   2   3   5
 106 prop tor  16  11  12  13
 107 ben  16  15  22
 108 prop tor  17   6   7   8
 109 prop tor  17   6   7  18
 110 prop tor  18   7   8   9
 111 prop tor  18   7   8  19
 112 prop tor  19   8   9  10
 113 prop tor  20  13  14  15
 114 prop tor  20  13  14  21
 115 prop tor  21  14  15  16
 116 prop tor  21  14  15  22
 117 prop tor  22  15  16   2
 118 prop tor  22  15  16  11
 nber bend=              38
 nber lin bend=           0
 nber prop tor=          56
 nber impr tor=           0
 nber tot redund int=         118
 generating redundant internal coords
         300        3600          22
 search for int coords
   1 str   2   1   1.260
   2 str   3   2   1.471
   3 str   4   3   1.260
   4 str   5   3   1.484
   5 str   6   5   1.392
   6 str   7   6   1.415
   7 str   8   7   1.394
   8 str   9   8   1.331
   9 str  10   5   1.441
  10 str  10   9   1.387
  11 str  11  10   1.431
  12 str  12  11   1.387
  13 str  13  12   1.331
  14 str  14  13   1.394
  15 str  15  14   1.415
  16 str  16   2   1.484
  17 str  16  11   1.441
  18 str  16  15   1.392
  19 str  17   6   1.085
  20 str  18   7   1.089
  21 str  19   8   1.098
  22 str  20  13   1.098
  23 str  21  14   1.089
  24 str  22  15   1.085
 nber stretches=          24
  25 ben   1   2   3
  26 prop tor   1   2   3   4
  27 prop tor   1   2   3   5
  28 ben   1   2  16
  29 prop tor   1   2  16  11
  30 prop tor   1   2  16  15
  31 ben   2   3   4
  32 ben   2   3   5
  33 prop tor   2   3   5   6
  34 prop tor   2   3   5  10
  35 ben   2  16  11
  36 ben   2  16  15
  37 ben   3   2  16
  38 prop tor   3   2  16  11
  39 prop tor   3   2  16  15
  40 ben   3   5   6
  41 prop tor   3   5   6   7
  42 prop tor   3   5   6  17
  43 ben   3   5  10
  44 prop tor   3   5  10   9
  45 prop tor   3   5  10  11
  46 ben   4   3   5
  47 prop tor   4   3   5   6
  48 prop tor   4   3   5  10
  49 ben   5   6   7
  50 prop tor   5   6   7   8
  51 prop tor   5   6   7  18
  52 ben   5   6  17
  53 ben   5  10   9
  54 ben   5  10  11
  55 prop tor   5  10  11  12
  56 prop tor   5  10  11  16
  57 ben   6   5  10
  58 prop tor   6   5  10   9
  59 prop tor   6   5  10  11
  60 ben   6   7   8
  61 prop tor   6   7   8   9
  62 prop tor   6   7   8  19
  63 ben   6   7  18
  64 ben   7   6  17
  65 ben   7   8   9
  66 prop tor   7   8   9  10
  67 ben   7   8  19
  68 ben   8   7  18
  69 ben   8   9  10
  70 prop tor   8   9  10   5
  71 prop tor   8   9  10  11
  72 ben   9   8  19
  73 ben   9  10  11
  74 prop tor   9  10  11  12
  75 prop tor   9  10  11  16
  76 prop tor  10   5   6   7
  77 prop tor  10   5   6  17
  78 ben  10  11  12
  79 prop tor  10  11  12  13
  80 ben  10  11  16
  81 prop tor  10  11  16   2
  82 prop tor  10  11  16  15
  83 ben  11  12  13
  84 prop tor  11  12  13  14
  85 prop tor  11  12  13  20
  86 ben  11  16  15
  87 ben  12  11  16
  88 prop tor  12  11  16   2
  89 prop tor  12  11  16  15
  90 ben  12  13  14
  91 prop tor  12  13  14  15
  92 prop tor  12  13  14  21
  93 ben  12  13  20
  94 ben  13  14  15
  95 prop tor  13  14  15  16
  96 prop tor  13  14  15  22
  97 ben  13  14  21
  98 ben  14  13  20
  99 ben  14  15  16
 100 prop tor  14  15  16   2
 101 prop tor  14  15  16  11
 102 ben  14  15  22
 103 ben  15  14  21
 104 prop tor  16   2   3   4
 105 prop tor  16   2   3   5
 106 prop tor  16  11  12  13
 107 ben  16  15  22
 108 prop tor  17   6   7   8
 109 prop tor  17   6   7  18
 110 prop tor  18   7   8   9
 111 prop tor  18   7   8  19
 112 prop tor  19   8   9  10
 113 prop tor  20  13  14  15
 114 prop tor  20  13  14  21
 115 prop tor  21  14  15  16
 116 prop tor  21  14  15  22
 117 prop tor  22  15  16   2
 118 prop tor  22  15  16  11
 nber bend=              38
 nber lin bend=           0
 nber prop tor=          56
 nber impr tor=           0
 nber tot redund int=         118
 Eigenvalues of G in red int coords
    Gval -0.00000000 -0.00000000 -0.00000000 -0.00000000 -0.00000000 -0.00000000 -0.00000000 -0.00000000
    Gval -0.00000000 -0.00000000 -0.00000000 -0.00000000 -0.00000000 -0.00000000 -0.00000000 -0.00000000
    Gval -0.00000000 -0.00000000 -0.00000000 -0.00000000 -0.00000000 -0.00000000 -0.00000000 -0.00000000
    Gval -0.00000000 -0.00000000 -0.00000000 -0.00000000 -0.00000000 -0.00000000 -0.00000000  0.00000000
    Gval  0.00000000  0.00000000  0.00000000  0.00000000  0.00000000  0.00000000  0.00000000  0.00000000
    Gval  0.00000000  0.00000000  0.00000000  0.00000000  0.00000000  0.00000000  0.00000000  0.00000000
    Gval  0.00000000  0.00000000  0.00000000  0.00000000  0.00000000  0.00000000  0.00000000  0.00000000
    Gval  0.00000000  0.00000000  0.00000701  0.00001102  0.00001168  0.00002014  0.00002115  0.00002559
    Gval  0.00003454  0.00004274  0.00004642  0.00004936  0.00005375  0.00005835  0.00006001  0.00007395
    Gval  0.00007763  0.00009723  0.00010051  0.00011018  0.00011436  0.00012538  0.00013098  0.00013103
    Gval  0.00014980  0.00019421  0.00024095  0.00024391  0.00026272  0.00028545  0.00032207  0.00036225
    Gval  0.00037580  0.00039585  0.00043031  0.00043525  0.00044592  0.00058189  0.00059381  0.00059382
    Gval  0.00060641  0.00060717  0.00064498  0.00064517  0.00070154  0.00090148  0.00090506  0.00105066
    Gval  0.00105099  0.00112017  0.00112019  0.00116234  0.00116240  0.00122346  0.00150868  0.00159421
    Gval  0.00171464  0.00211549  0.00269231  0.00271259  0.00387350  0.00387435
  7.005512873098932E-006  7.005512873098932E-006
  1.102430661032519E-005  7.005512873098932E-006
  1.167534606094168E-005  7.005512873098932E-006
  2.014099237107931E-005  7.005512873098932E-006
  2.115314782130341E-005  7.005512873098932E-006
  2.558595670696812E-005  7.005512873098932E-006
  3.454015336006251E-005  7.005512873098932E-006
  4.273896136223374E-005  7.005512873098932E-006
  4.642047896343942E-005  7.005512873098932E-006
  4.935693528167910E-005  7.005512873098932E-006
  5.375239571926981E-005  7.005512873098932E-006
  5.834895248076797E-005  7.005512873098932E-006
  6.001080018541227E-005  7.005512873098932E-006
  7.395343842189928E-005  7.005512873098932E-006
  7.763040998485294E-005  7.005512873098932E-006
  9.723216688756579E-005  7.005512873098932E-006
  1.005070901999943E-004  7.005512873098932E-006
  1.101772174145499E-004  7.005512873098932E-006
  1.143598592760690E-004  7.005512873098932E-006
  1.253808697916730E-004  7.005512873098932E-006
  1.309765750968478E-004  7.005512873098932E-006
  1.310278844047396E-004  7.005512873098932E-006
  1.497983501440996E-004  7.005512873098932E-006
  1.942114395727079E-004  7.005512873098932E-006
  2.409462235159071E-004  7.005512873098932E-006
  2.439119551524605E-004  7.005512873098932E-006
  2.627161710339893E-004  7.005512873098932E-006
  2.854526235658980E-004  7.005512873098932E-006
  3.220705108004844E-004  7.005512873098932E-006
  3.622530146300788E-004  7.005512873098932E-006
  3.757995201411916E-004  7.005512873098932E-006
  3.958541751916381E-004  7.005512873098932E-006
  4.303125332079658E-004  7.005512873098932E-006
  4.352511314811406E-004  7.005512873098932E-006
  4.459214261724984E-004  7.005512873098932E-006
  5.818930747893570E-004  7.005512873098932E-006
  5.938131890170069E-004  7.005512873098932E-006
  5.938201478569207E-004  7.005512873098932E-006
  6.064140611433078E-004  7.005512873098932E-006
  6.071692857471074E-004  7.005512873098932E-006
  6.449833299442004E-004  7.005512873098932E-006
  6.451727802385045E-004  7.005512873098932E-006
  7.015378229560047E-004  7.005512873098932E-006
  9.014823700755943E-004  7.005512873098932E-006
  9.050583627599987E-004  7.005512873098932E-006
  1.050656340748698E-003  7.005512873098932E-006
  1.050989178971145E-003  7.005512873098932E-006
  1.120171205236838E-003  7.005512873098932E-006
  1.120194959798411E-003  7.005512873098932E-006
  1.162342823712287E-003  7.005512873098932E-006
  1.162400500066866E-003  7.005512873098932E-006
  1.223457840171918E-003  7.005512873098932E-006
  1.508681427291031E-003  7.005512873098932E-006
  1.594213165396160E-003  7.005512873098932E-006
  1.714638248423549E-003  7.005512873098932E-006
  2.115492418544698E-003  7.005512873098932E-006
  2.692311066556064E-003  7.005512873098932E-006
  2.712590681390800E-003  7.005512873098932E-006
  3.873504073879253E-003  7.005512873098932E-006
  3.874345622582689E-003  7.005512873098932E-006
 cut=1d-8, nber non-redundant internal coords=          60
 Check on Eigenvals of non-red overlap matrix:
  0.00000701  0.00001102  0.00001168  0.00002014  0.00002115  0.00002559  0.00003454  0.00004274
  0.00004642  0.00004936  0.00005375  0.00005835  0.00006001  0.00007395  0.00007763  0.00009723
  0.00010051  0.00011018  0.00011436  0.00012538  0.00013098  0.00013103  0.00014980  0.00019421
  0.00024095  0.00024391  0.00026272  0.00028545  0.00032207  0.00036225  0.00037580  0.00039585
  0.00043031  0.00043525  0.00044592  0.00058189  0.00059381  0.00059382  0.00060641  0.00060717
  0.00064498  0.00064517  0.00070154  0.00090148  0.00090506  0.00105066  0.00105099  0.00112017
  0.00112019  0.00116234  0.00116240  0.00122346  0.00150868  0.00159421  0.00171464  0.00211549
  0.00269231  0.00271259  0.00387350  0.00387435
 generating redundant internal coords
         300        3600          22
 search for int coords
   1 str   2   1   1.278
   2 str   3   2   1.513
   3 str   4   3   1.278
   4 str   5   3   1.448
   5 str   6   5   1.440
   6 str   7   6   1.416
   7 str   8   7   1.390
   8 str   9   8   1.362
   9 str  10   5   1.449
  10 str  10   9   1.393
  11 str  11  10   1.451
  12 str  12  11   1.393
  13 str  13  12   1.362
  14 str  14  13   1.390
  15 str  15  14   1.416
  16 str  16   2   1.448
  17 str  16  11   1.449
  18 str  16  15   1.440
  19 str  17   6   1.086
  20 str  18   7   1.099
  21 str  19   8   1.104
  22 str  20  13   1.104
  23 str  21  14   1.099
  24 str  22  15   1.086
 nber stretches=          24
  25 ben   1   2   3
  26 prop tor   1   2   3   4
  27 prop tor   1   2   3   5
  28 ben   1   2  16
  29 prop tor   1   2  16  11
  30 prop tor   1   2  16  15
  31 ben   2   3   4
  32 ben   2   3   5
  33 prop tor   2   3   5   6
  34 prop tor   2   3   5  10
  35 ben   2  16  11
  36 ben   2  16  15
  37 ben   3   2  16
  38 prop tor   3   2  16  11
  39 prop tor   3   2  16  15
  40 ben   3   5   6
  41 prop tor   3   5   6   7
  42 prop tor   3   5   6  17
  43 ben   3   5  10
  44 prop tor   3   5  10   9
  45 prop tor   3   5  10  11
  46 ben   4   3   5
  47 prop tor   4   3   5   6
  48 prop tor   4   3   5  10
  49 ben   5   6   7
  50 prop tor   5   6   7   8
  51 prop tor   5   6   7  18
  52 ben   5   6  17
  53 ben   5  10   9
  54 ben   5  10  11
  55 prop tor   5  10  11  12
  56 prop tor   5  10  11  16
  57 ben   6   5  10
  58 prop tor   6   5  10   9
  59 prop tor   6   5  10  11
  60 ben   6   7   8
  61 prop tor   6   7   8   9
  62 prop tor   6   7   8  19
  63 ben   6   7  18
  64 ben   7   6  17
  65 ben   7   8   9
  66 prop tor   7   8   9  10
  67 ben   7   8  19
  68 ben   8   7  18
  69 ben   8   9  10
  70 prop tor   8   9  10   5
  71 prop tor   8   9  10  11
  72 ben   9   8  19
  73 ben   9  10  11
  74 prop tor   9  10  11  12
  75 prop tor   9  10  11  16
  76 prop tor  10   5   6   7
  77 prop tor  10   5   6  17
  78 ben  10  11  12
  79 prop tor  10  11  12  13
  80 ben  10  11  16
  81 prop tor  10  11  16   2
  82 prop tor  10  11  16  15
  83 ben  11  12  13
  84 prop tor  11  12  13  14
  85 prop tor  11  12  13  20
  86 ben  11  16  15
  87 ben  12  11  16
  88 prop tor  12  11  16   2
  89 prop tor  12  11  16  15
  90 ben  12  13  14
  91 prop tor  12  13  14  15
  92 prop tor  12  13  14  21
  93 ben  12  13  20
  94 ben  13  14  15
  95 prop tor  13  14  15  16
  96 prop tor  13  14  15  22
  97 ben  13  14  21
  98 ben  14  13  20
  99 ben  14  15  16
 100 prop tor  14  15  16   2
 101 prop tor  14  15  16  11
 102 ben  14  15  22
 103 ben  15  14  21
 104 prop tor  16   2   3   4
 105 prop tor  16   2   3   5
 106 prop tor  16  11  12  13
 107 ben  16  15  22
 108 prop tor  17   6   7   8
 109 prop tor  17   6   7  18
 110 prop tor  18   7   8   9
 111 prop tor  18   7   8  19
 112 prop tor  19   8   9  10
 113 prop tor  20  13  14  15
 114 prop tor  20  13  14  21
 115 prop tor  21  14  15  16
 116 prop tor  21  14  15  22
 117 prop tor  22  15  16   2
 118 prop tor  22  15  16  11
 nber bend=              38
 nber lin bend=           0
 nber prop tor=          56
 nber impr tor=           0
 nber tot redund int=         118
 Eigenvalues of G in red int coords
    Gval -0.00000000 -0.00000000 -0.00000000 -0.00000000 -0.00000000 -0.00000000 -0.00000000 -0.00000000
    Gval -0.00000000 -0.00000000 -0.00000000 -0.00000000 -0.00000000 -0.00000000 -0.00000000 -0.00000000
    Gval -0.00000000 -0.00000000 -0.00000000 -0.00000000 -0.00000000 -0.00000000 -0.00000000 -0.00000000
    Gval -0.00000000  0.00000000  0.00000000  0.00000000  0.00000000  0.00000000  0.00000000  0.00000000
    Gval  0.00000000  0.00000000  0.00000000  0.00000000  0.00000000  0.00000000  0.00000000  0.00000000
    Gval  0.00000000  0.00000000  0.00000000  0.00000000  0.00000000  0.00000000  0.00000000  0.00000000
    Gval  0.00000000  0.00000000  0.00000000  0.00000000  0.00000000  0.00000000  0.00000000  0.00000000
    Gval  0.00000000  0.00000000  0.00000690  0.00001099  0.00001162  0.00002004  0.00002094  0.00002554
    Gval  0.00003449  0.00004137  0.00004631  0.00004863  0.00005343  0.00005796  0.00005972  0.00007356
    Gval  0.00007761  0.00009595  0.00009968  0.00010910  0.00011365  0.00012492  0.00012889  0.00013064
    Gval  0.00014882  0.00019174  0.00023785  0.00023808  0.00026099  0.00028177  0.00031335  0.00035598
    Gval  0.00037042  0.00038701  0.00042812  0.00043884  0.00043966  0.00058338  0.00059372  0.00059373
    Gval  0.00060533  0.00060594  0.00064291  0.00064306  0.00066088  0.00089642  0.00090512  0.00103681
    Gval  0.00103710  0.00111086  0.00111087  0.00115090  0.00115097  0.00120169  0.00149440  0.00157226
    Gval  0.00168387  0.00209082  0.00267189  0.00269160  0.00382453  0.00382548
  6.897923562134362E-006  6.897923562134362E-006
  1.098990884793694E-005  6.897923562134362E-006
  1.162310375077225E-005  6.897923562134362E-006
  2.003729991780137E-005  6.897923562134362E-006
  2.094068817037468E-005  6.897923562134362E-006
  2.553944417922111E-005  6.897923562134362E-006
  3.448655646827452E-005  6.897923562134362E-006
  4.137308874398229E-005  6.897923562134362E-006
  4.630873615188710E-005  6.897923562134362E-006
  4.863343247535641E-005  6.897923562134362E-006
  5.342774868510413E-005  6.897923562134362E-006
  5.795835123524131E-005  6.897923562134362E-006
  5.971999244202577E-005  6.897923562134362E-006
  7.355988235351425E-005  6.897923562134362E-006
  7.760749243838173E-005  6.897923562134362E-006
  9.595306992828969E-005  6.897923562134362E-006
  9.967931835926716E-005  6.897923562134362E-006
  1.090976397117629E-004  6.897923562134362E-006
  1.136526755027537E-004  6.897923562134362E-006
  1.249197531010667E-004  6.897923562134362E-006
  1.288879994970764E-004  6.897923562134362E-006
  1.306407349416218E-004  6.897923562134362E-006
  1.488239052786270E-004  6.897923562134362E-006
  1.917373098461358E-004  6.897923562134362E-006
  2.378495675840868E-004  6.897923562134362E-006
  2.380813751495499E-004  6.897923562134362E-006
  2.609911984109572E-004  6.897923562134362E-006
  2.817691514702567E-004  6.897923562134362E-006
  3.133517367110305E-004  6.897923562134362E-006
  3.559766212677523E-004  6.897923562134362E-006
  3.704204000723520E-004  6.897923562134362E-006
  3.870063142301692E-004  6.897923562134362E-006
  4.281241087653567E-004  6.897923562134362E-006
  4.388447144382050E-004  6.897923562134362E-006
  4.396605812019986E-004  6.897923562134362E-006
  5.833796284649454E-004  6.897923562134362E-006
  5.937195410558831E-004  6.897923562134362E-006
  5.937251615499314E-004  6.897923562134362E-006
  6.053314532847331E-004  6.897923562134362E-006
  6.059403126199861E-004  6.897923562134362E-006
  6.429050004627068E-004  6.897923562134362E-006
  6.430648298208084E-004  6.897923562134362E-006
  6.608817991889785E-004  6.897923562134362E-006
  8.964231506859047E-004  6.897923562134362E-006
  9.051205424033999E-004  6.897923562134362E-006
  1.036812231137383E-003  6.897923562134362E-006
  1.037098713443804E-003  6.897923562134362E-006
  1.110856126923009E-003  6.897923562134362E-006
  1.110869168158181E-003  6.897923562134362E-006
  1.150895566415387E-003  6.897923562134362E-006
  1.150967767940063E-003  6.897923562134362E-006
  1.201691579715434E-003  6.897923562134362E-006
  1.494400218524579E-003  6.897923562134362E-006
  1.572257326853761E-003  6.897923562134362E-006
  1.683866350255932E-003  6.897923562134362E-006
  2.090821467549746E-003  6.897923562134362E-006
  2.671891399456438E-003  6.897923562134362E-006
  2.691597334276671E-003  6.897923562134362E-006
  3.824528002550563E-003  6.897923562134362E-006
  3.825479822776187E-003  6.897923562134362E-006
 cut=1d-8, nber non-redundant internal coords=          60
 Check on Eigenvals of non-red overlap matrix:
  0.00000690  0.00001099  0.00001162  0.00002004  0.00002094  0.00002554  0.00003449  0.00004137
  0.00004631  0.00004863  0.00005343  0.00005796  0.00005972  0.00007356  0.00007761  0.00009595
  0.00009968  0.00010910  0.00011365  0.00012492  0.00012889  0.00013064  0.00014882  0.00019174
  0.00023785  0.00023808  0.00026099  0.00028177  0.00031335  0.00035598  0.00037042  0.00038701
  0.00042812  0.00043884  0.00043966  0.00058338  0.00059372  0.00059373  0.00060533  0.00060594
  0.00064291  0.00064306  0.00066088  0.00089642  0.00090512  0.00103681  0.00103710  0.00111086
  0.00111087  0.00115090  0.00115097  0.00120169  0.00149440  0.00157226  0.00168387  0.00209082
  0.00267189  0.00269160  0.00382453  0.00382548
 d1=
  -5.3  12.8   0.0  -0.0  -3.6  -7.5  -0.0   0.0  -0.0   0.0  -3.3  -0.0  -2.5  -0.0   1.2  -0.0   3.1   0.0  -0.0   1.5
  -0.0  -1.0   7.1  -0.0  -0.0   0.0   0.0  -2.0   0.0   0.0  -1.1   0.0  -0.0   2.7  -0.0  -0.0  -0.0  -0.7  -0.3  -0.0
   0.8   0.0  -0.0   0.0  -0.0   0.0   0.0   0.5  -0.0  -0.1   0.0   0.0  -0.0  -0.0  -0.0  -0.0  -0.0   0.0  -0.0   0.0
 d2=
   5.1 -12.6  -0.0   0.0   3.1  -7.9  -0.0  -0.0   0.0  -0.0   3.3   0.0   2.6  -0.0   1.2   0.0   3.0  -0.0  -0.0   1.6
  -0.0  -1.0   7.1  -0.0   0.0   0.0  -0.2  -2.1   0.0   0.0  -0.9  -0.0  -0.0  -2.8  -0.0  -0.0   0.0   0.7  -0.3   0.0
   0.8  -0.0   0.0  -0.0  -0.0   0.0   0.0   0.5   0.0  -0.1   0.0  -0.0   0.0   0.0   0.0   0.0   0.0  -0.0   0.0  -0.0
 curvilinear- renormalizn of Dush matrix done
  mol 1 sym            1  -> mol 2 sym            1
  mol 1 sym            2  -> mol 2 sym            2
  mol 1 sym            3  -> mol 2 sym            3
  mol 1 sym            4  -> mol 2 sym            4

 Dushinsky matrix, ncs 2 in terms of ncs 1

   mode   freq    coeff     %      %tot     of    at

   1 A1     -0.  0.0000     0.0     0.0  11 A1    236.
   2 B2     -0. -0.0000     0.0     0.0  16 B2    393.
   3 B2     -0. -0.0000     0.0     0.0  16 B2    393.
   4 B1     -0.  0.0000     0.0     0.0   8 B1     81.
   5 A2      0. -0.0000     0.0     0.0  12 A2    258.
   6 B1      0. -0.0000     0.0     0.0  15 B1    384.
   7 A2     66.  0.9661    93.3    98.5   7 A2     66.
   8 B1     92.  0.9993    99.9    97.2   8 B1     81.
   9 A2    123. -0.9627    92.7    98.4   9 A2    130.
  10 B1    142.  0.9679    93.7    97.6  10 B1    162.
  11 A2    191.  0.9843    96.9    97.5  12 A2    258.
  12 A1    232.  0.9993    99.9    97.8  11 A1    236.
  13 B1    292.  0.9535    90.9    96.2  15 B1    384.
  14 B2    317. -0.9991    99.8    98.5  13 B2    321.
  15 A1    368.  0.9979    99.6    97.9  14 A1    370.
  16 A2    377. -0.9643    93.0    96.1  20 A2    465.
  17 A1    404.  0.9894    97.9    99.0  17 A1    416.
  18 B2    404.  0.9958    99.2    98.8  16 B2    393.
  19 B1    444. -0.9159    83.9   101.0  18 B1    418.
  20 A1    457. -0.9837    96.8    98.7  19 A1    454.
  21 B1    486. -0.3782    14.3   101.1  18 B1    418.
                 0.6879    47.3          22 B1    582.
                 0.5596    31.3          33 B1    846.
  22 A2    507.  0.7418    55.0    98.8  21 A2    541.
                 0.3373    11.4          29 A2    721.
                 0.5306    28.2          34 A2    850.
  23 A2    549.  0.5908    34.9   100.8  21 A2    541.
                -0.6372    40.6          34 A2    850.
                -0.3185    10.1          36 A2    892.
  24 B1    568.  0.5959    35.5   100.7  22 B1    582.
                -0.5051    25.5          25 B1    651.
                -0.4855    23.6          33 B1    846.
                -0.3285    10.8          35 B1    890.
  25 B2    577.  0.9939    98.8    99.1  23 B2    587.
  26 B2    593. -0.9885    97.7    99.1  24 B2    622.
  27 B1    623. -0.8157    66.5    98.1  25 B1    651.
                 0.4481    20.1          35 B1    890.
  28 A2    634. -0.7774    60.4    97.5  27 A2    675.
                 0.5529    30.6          36 A2    892.
  29 A1    637.  0.9960    99.2    98.7  26 A1    661.
  30 B1    672. -0.6352    40.4    99.7  30 B1    740.
                -0.4989    24.9          33 B1    846.
                 0.4785    22.9          35 B1    890.
  31 A2    688. -0.5094    26.0    97.7  27 A2    675.
                 0.6354    40.4          29 A2    721.
                -0.4512    20.4          36 A2    892.
  32 B2    697. -0.9888    97.8    99.2  28 B2    706.
  33 A2    735.  0.6597    43.5    98.2  29 A2    721.
                -0.5004    25.0          34 A2    850.
                 0.5018    25.2          36 A2    892.
  34 B1    737.  0.7209    52.0    98.0  30 B1    740.
                 0.6345    40.3          35 B1    890.
  35 A2    780. -0.9141    83.6    98.4  31 A2    777.
                 0.3622    13.1          36 A2    892.
  36 A1    822.  0.9957    99.1   100.7  32 A1    831.
  37 B2    896. -0.9874    97.5    97.9  37 B2    923.
  38 B2    977. -0.3556    12.6    99.6  39 B2   1028.
                -0.7076    50.1          41 B2   1063.
                 0.4169    17.4          43 B2   1082.
  39 A1    977. -0.8726    76.1   100.8  38 A1   1027.
                -0.4252    18.1          42 A1   1082.
  40 A1    992. -0.3829    14.7    99.4  38 A1   1027.
                -0.5758    33.2          40 A1   1042.
                 0.6859    47.0          42 A1   1082.
  41 B2   1021.  0.9130    83.4    98.6  39 B2   1028.
                 0.3196    10.2          43 B2   1082.
  42 A1   1038.  0.8032    64.5    98.6  40 A1   1042.
                 0.5345    28.6          42 A1   1082.
  43 B2   1043. -0.6092    37.1    99.1  41 B2   1063.
                -0.7476    55.9          43 B2   1082.
  44 A1   1107. -0.9832    96.7    99.8  44 A1   1160.
  45 B2   1155.  0.9053    82.0    98.1  45 B2   1171.
  46 B2   1217. -0.3262    10.6    99.1  43 B2   1082.
                -0.7834    61.4          48 B2   1276.
                -0.3705    13.7          54 B2   1455.
  47 A1   1224. -0.5421    29.4    98.6  47 A1   1271.
                 0.7575    57.4          49 A1   1321.
  48 A1   1258.  0.7010    49.1   100.0  47 A1   1271.
                 0.5283    27.9          49 A1   1321.
                 0.4053    16.4          50 A1   1341.
  49 B2   1264.  0.3387    11.5    99.7  45 B2   1171.
                 0.8120    65.9          46 B2   1236.
                 0.3595    12.9          54 B2   1455.
  50 A1   1298. -0.3497    12.2   100.1  47 A1   1271.
                 0.7994    63.9          50 A1   1341.
  51 B2   1340.  0.8547    73.0   100.0  51 B2   1377.
                 0.3375    11.4          59 B2   1554.
  52 A1   1365. -0.9797    96.0    99.3  52 A1   1429.
  53 B2   1399. -0.3313    11.0    98.9  48 B2   1276.
                 0.3824    14.6          53 B2   1438.
                 0.3628    13.2          54 B2   1455.
                -0.6854    47.0          55 B2   1467.
  54 B2   1418.  0.4644    21.6    99.0  51 B2   1377.
                 0.4731    22.4          53 B2   1438.
                -0.6867    47.2          59 B2   1554.
  55 A1   1424.  0.9498    90.2    99.6  56 A1   1483.
  56 A1   1450. -0.4239    18.0    99.5  57 A1   1510.
                -0.8403    70.6          58 A1   1539.
  57 A1   1490.  0.6808    46.4    99.8  57 A1   1510.
                -0.6495    42.2          60 A1   1565.
  58 A1   1494. -0.4610    21.2   100.1  57 A1   1510.
                 0.4611    21.3          58 A1   1539.
                -0.6881    47.3          60 A1   1565.
  59 B2   1508. -0.3300    10.9    99.7  46 B2   1236.
                 0.5057    25.6          54 B2   1455.
                 0.6831    46.7          55 B2   1467.
  60 B2   1543.  0.6930    48.0   100.0  53 B2   1438.
                -0.4792    23.0          54 B2   1455.
                 0.4033    16.3          59 B2   1554.
  61 B2   2896. -0.9918    98.4   100.0  61 B2   2990.
  62 A1   2899. -0.9902    98.0   100.0  62 A1   2992.
  63 B2   2977.  0.9886    97.7   100.0  63 B2   3095.
  64 A1   2979.  0.9879    97.6   100.0  64 A1   3096.
  65 B2   3137.  0.9964    99.3   100.0  65 B2   3159.
  66 A1   3137.  0.9972    99.4   100.0  66 A1   3160.
 nber times 1st assigned=           1           0
 nber times 1st assigned=           2           0
 nber times 1st assigned=           3           0
 nber times 1st assigned=           4           0
 nber times 1st assigned=           5           0
 nber times 1st assigned=           6           0
 nber times 1st assigned=           7           0
 nber times 1st assigned=           9           0
 nber times 1st assigned=          10           0
 nber times 1st assigned=          13           0
 nber times 1st assigned=          14           0
 nber times 1st assigned=          16           2
 nber times 1st assigned=          17           0
 nber times 1st assigned=          18           0
 nber times 1st assigned=          19           0
 nber times 1st assigned=          20           0
 nber times 1st assigned=          21           0
 nber times 1st assigned=          22           0
 nber times 1st assigned=          23           0
 nber times 1st assigned=          24           0
 nber times 1st assigned=          25           0
 nber times 1st assigned=          26           0
 nber times 1st assigned=          27           0
 nber times 1st assigned=          28           0
 nber times 1st assigned=          29           0
 nber times 1st assigned=          30           0
 nber times 1st assigned=          31           0
 nber times 1st assigned=          32           0
 nber times 1st assigned=          33           0
 nber times 1st assigned=          34           0
 nber times 1st assigned=          35           0
 nber times 1st assigned=          36           0
 nber times 1st assigned=          37           0
 nber times 1st assigned=          38           0
 nber times 1st assigned=          39           0
 nber times 1st assigned=          40           0
 nber times 1st assigned=          41           0
 nber times 1st assigned=          42           0
 nber times 1st assigned=          43           0
 nber times 1st assigned=          44           0
 nber times 1st assigned=          45           0
 nber times 1st assigned=          46           0
 nber times 1st assigned=          47           0
 nber times 1st assigned=          48           0
 nber times 1st assigned=          49           0
 nber times 1st assigned=          50           0
 nber times 1st assigned=          51           0
 nber times 1st assigned=          52           0
 nber times 1st assigned=          53           0
 nber times 1st assigned=          54           0
 nber times 1st assigned=          55           0
 nber times 1st assigned=          56           0
 nber times 1st assigned=          57           0
 nber times 1st assigned=          58           0
 nber times 1st assigned=          59           0
 nber times 1st assigned=          60           0
 nber times 1st assigned=          61           0
 nber times 1st assigned=          62           0
 nber times 1st assigned=          63           0
 nber times 1st assigned=          64           0
 nber times 1st assigned=          65           0
 nber times 1st assigned=          66           0
 Dushinsky matrix written to .out file
 modes represented=   59.4437603003940     

 Dushinsky matrix, ncs 1 in terms of ncs 2

   mode   freq    coeff     %      %tot     of    at

   7 A2     66.  0.9661    93.3    98.9   7 A2     66.
   8 B1     81.  0.9993    99.9    97.6   8 B1     92.
   9 A2    130. -0.9627    92.7    98.9   9 A2    123.
  10 B1    162.  0.9679    93.7    98.4  10 B1    142.
  11 A1    236.  0.9993    99.9    98.1  12 A1    232.
  12 A2    258.  0.9843    96.9    98.1  11 A2    191.
  13 B2    321. -0.9991    99.8    98.9  14 B2    317.
  14 A1    370.  0.9979    99.6    97.9  15 A1    368.
  15 B1    384.  0.9535    90.9    95.9  13 B1    292.
  16 B2    393.  0.9958    99.2    99.6  18 B2    404.
  17 A1    416.  0.9894    97.9    99.4  17 A1    404.
  18 B1    418. -0.9159    83.9   101.1  19 B1    444.
                -0.3782    14.3          21 B1    486.
  19 A1    454. -0.9837    96.8    98.7  20 A1    457.
  20 A2    465. -0.9643    93.0    94.9  16 A2    377.
  21 A2    541.  0.7418    55.0    99.8  22 A2    507.
                 0.5908    34.9          23 A2    549.
  22 B1    582.  0.6879    47.3   101.6  21 B1    486.
                 0.5959    35.5          24 B1    568.
  23 B2    587.  0.9939    98.8    98.8  25 B2    577.
  24 B2    622. -0.9885    97.7    99.8  26 B2    593.
  25 B1    651. -0.5051    25.5    97.8  24 B1    568.
                -0.8157    66.5          27 B1    623.
  26 A1    661.  0.9960    99.2    98.6  29 A1    637.
  27 A2    675. -0.7774    60.4    96.8  28 A2    634.
                -0.5094    26.0          31 A2    688.
  28 B2    706. -0.9888    97.8    98.7  32 B2    697.
  29 A2    721.  0.3373    11.4    97.2  22 A2    507.
                 0.6354    40.4          31 A2    688.
                 0.6597    43.5          33 A2    735.
  30 B1    740. -0.6352    40.4    98.0  30 B1    672.
                 0.7209    52.0          34 B1    737.
  31 A2    777. -0.9141    83.6    98.2  35 A2    780.
  32 A1    831.  0.9957    99.1   100.5  36 A1    822.
  33 B1    846.  0.5596    31.3   100.4  21 B1    486.
                -0.4855    23.6          24 B1    568.
                -0.4989    24.9          30 B1    672.
  34 A2    850.  0.5306    28.2   100.4  22 A2    507.
                -0.6372    40.6          23 A2    549.
                -0.5004    25.0          33 A2    735.
  35 B1    890. -0.3285    10.8    98.8  24 B1    568.
                 0.4481    20.1          27 B1    623.
                 0.4785    22.9          30 B1    672.
                 0.6345    40.3          34 B1    737.
  36 A2    892. -0.3185    10.1    98.8  23 A2    549.
                 0.5529    30.6          28 A2    634.
                -0.4512    20.4          31 A2    688.
                 0.5018    25.2          33 A2    735.
                 0.3622    13.1          35 A2    780.
  37 B2    923. -0.9874    97.5    97.3  37 B2    896.
  38 A1   1027. -0.8726    76.1    99.8  39 A1    977.
                -0.3829    14.7          40 A1    992.
  39 B2   1028. -0.3556    12.6    98.5  38 B2    977.
                 0.9130    83.4          41 B2   1021.
  40 A1   1042. -0.5758    33.2    98.4  40 A1    992.
                 0.8032    64.5          42 A1   1038.
  41 B2   1063. -0.7076    50.1    99.5  38 B2    977.
                -0.6092    37.1          43 B2   1043.
  42 A1   1082. -0.4252    18.1   100.0  39 A1    977.
                 0.6859    47.0          40 A1    992.
                 0.5345    28.6          42 A1   1038.
  43 B2   1082.  0.4169    17.4    98.9  38 B2    977.
                 0.3196    10.2          41 B2   1021.
                -0.7476    55.9          43 B2   1043.
                -0.3262    10.6          46 B2   1217.
  44 A1   1160. -0.9832    96.7    99.7  44 A1   1107.
  45 B2   1171.  0.9053    82.0    97.9  45 B2   1155.
                 0.3387    11.5          49 B2   1264.
  46 B2   1236.  0.8120    65.9    99.9  49 B2   1264.
                -0.3300    10.9          59 B2   1508.
  47 A1   1271. -0.5421    29.4   100.6  47 A1   1224.
                 0.7010    49.1          48 A1   1258.
                -0.3497    12.2          50 A1   1298.
  48 B2   1276. -0.7834    61.4    99.5  46 B2   1217.
                -0.3313    11.0          53 B2   1399.
  49 A1   1321.  0.7575    57.4    99.4  47 A1   1224.
                 0.5283    27.9          48 A1   1258.
  50 A1   1341.  0.4053    16.4    99.5  48 A1   1258.
                 0.7994    63.9          50 A1   1298.
  51 B2   1377.  0.8547    73.0    99.1  51 B2   1340.
                 0.4644    21.6          54 B2   1418.
  52 A1   1429. -0.9797    96.0    99.4  52 A1   1365.
  53 B2   1438.  0.3824    14.6    99.3  53 B2   1399.
                 0.4731    22.4          54 B2   1418.
                 0.6930    48.0          60 B2   1543.
  54 B2   1455. -0.3705    13.7    99.3  46 B2   1217.
                 0.3595    12.9          49 B2   1264.
                 0.3628    13.2          53 B2   1399.
                 0.5057    25.6          59 B2   1508.
                -0.4792    23.0          60 B2   1543.
  55 B2   1467. -0.6854    47.0    99.2  53 B2   1399.
                 0.6831    46.7          59 B2   1508.
  56 A1   1483.  0.9498    90.2    99.7  55 A1   1424.
  57 A1   1510. -0.4239    18.0    99.7  56 A1   1450.
                 0.6808    46.4          57 A1   1490.
                -0.4610    21.2          58 A1   1494.
  58 A1   1539. -0.8403    70.6    99.5  56 A1   1450.
                 0.4611    21.3          58 A1   1494.
  59 B2   1554.  0.3375    11.4    99.9  51 B2   1340.
                -0.6867    47.2          54 B2   1418.
                 0.4033    16.3          60 B2   1543.
  60 A1   1565. -0.6495    42.2    99.6  57 A1   1490.
                -0.6881    47.3          58 A1   1494.
  61 B2   2990. -0.9918    98.4   100.0  61 B2   2896.
  62 A1   2992. -0.9902    98.0   100.0  62 A1   2899.
  63 B2   3095.  0.9886    97.7   100.0  63 B2   2977.
  64 A1   3096.  0.9879    97.6   100.0  64 A1   2979.
  65 B2   3159.  0.9964    99.3   100.0  65 B2   3137.
  66 A1   3160.  0.9972    99.4   100.0  66 A1   3137.
 nber times 1st assigned=           1           0
 nber times 1st assigned=           2           0
 nber times 1st assigned=           3           0
 nber times 1st assigned=           4           0
 nber times 1st assigned=           5           0
 nber times 1st assigned=           6           0
 nber times 1st assigned=           7           0
 nber times 1st assigned=           8           0
 nber times 1st assigned=           9           0
 nber times 1st assigned=          10           0
 nber times 1st assigned=          11           0
 nber times 1st assigned=          12           0
 nber times 1st assigned=          13           0
 nber times 1st assigned=          14           0
 nber times 1st assigned=          15           0
 nber times 1st assigned=          16           0
 nber times 1st assigned=          17           0
 nber times 1st assigned=          18           0
 nber times 1st assigned=          19           0
 nber times 1st assigned=          20           0
 nber times 1st assigned=          21           0
 nber times 1st assigned=          22           0
 nber times 1st assigned=          23           0
 nber times 1st assigned=          24           0
 nber times 1st assigned=          25           0
 nber times 1st assigned=          26           0
 nber times 1st assigned=          27           0
 nber times 1st assigned=          28           0
 nber times 1st assigned=          29           0
 nber times 1st assigned=          30           0
 nber times 1st assigned=          31           0
 nber times 1st assigned=          32           0
 nber times 1st assigned=          33           0
 nber times 1st assigned=          34           0
 nber times 1st assigned=          35           0
 nber times 1st assigned=          36           0
 nber times 1st assigned=          37           0
 nber times 1st assigned=          38           0
 nber times 1st assigned=          39           0
 nber times 1st assigned=          40           0
 nber times 1st assigned=          41           0
 nber times 1st assigned=          42           0
 nber times 1st assigned=          43           0
 nber times 1st assigned=          44           0
 nber times 1st assigned=          45           0
 nber times 1st assigned=          46           0
 nber times 1st assigned=          47           0
 nber times 1st assigned=          48           0
 nber times 1st assigned=          49           0
 nber times 1st assigned=          50           0
 nber times 1st assigned=          51           0
 nber times 1st assigned=          52           0
 nber times 1st assigned=          53           0
 nber times 1st assigned=          54           0
 nber times 1st assigned=          55           0
 nber times 1st assigned=          56           0
 nber times 1st assigned=          57           0
 nber times 1st assigned=          58           0
 nber times 1st assigned=          59           0
 nber times 1st assigned=          60           0
 nber times 1st assigned=          61           0
 nber times 1st assigned=          62           0
 nber times 1st assigned=          63           0
 nber times 1st assigned=          64           0
 nber times 1st assigned=          65           0
 nber times 1st assigned=          66           0
 modes represented=   59.4437603003940     
 p1=
    0.    0.   -0.   -0.   -0.   -0.    0.   -0.    0.   -0.    0.   -0.    0.  -11.    0.   -0.  -10.   -0.   -3.   -0.
   -0.    0.    0.   -0.   -0.   -7.    0.   -0.    0.   -0.   -0.    2.   -0.    0.    0.   -0.    0.   -1.    0.   -0.
   -0.    1.   -0.   -0.   -0.    0.   -6.    0.   -3.   -2.    0.   -1.    0.    0.    0.    1.    2.   -2.    0.   -4.
   -0.   -0.   -0.   -1.    0.   -0.
 p2=
    0.    0.    0.    0.    0.    0.   -0.    0.    0.    0.    0.   -0.   -0.    0.   11.   -0.   11.   -0.   -0.   -1.
   -0.    0.    0.    0.   -0.   -0.   -0.    0.    7.   -0.   -0.   -0.   -0.   -0.    0.   -2.    0.    0.   -1.   -1.
    0.   -1.   -0.   -1.    0.   -0.    1.    6.   -0.   -1.    0.   -0.    0.   -0.   -2.   -2.   -5.   -2.   -0.    0.
    0.   -0.   -0.    1.   -0.    0.

 Displacement: in terms of nc of 1 THEN of nc of 2

   1 A1  freq=    -0. Q=  0.000 lam=    -0.0 A1  freq=    -0. Q=  0.000 lam=    -0.0
   2 B1  freq=    -0. Q=  0.000 lam=    -0.0 B2  freq=    -0. Q=  0.000 lam=    -0.0
   3 A2  freq=    -0. Q= -0.000 lam=    -0.0 B2  freq=    -0. Q= -0.000 lam=    -0.0
   4 B2  freq=    -0. Q= -0.000 lam=    -0.0 B1  freq=    -0. Q= -0.000 lam=    -0.0
   5 B1  freq=     0. Q= -0.000 lam=     0.0 A2  freq=     0. Q= -0.000 lam=     0.0
   6 B2  freq=     0. Q= -0.000 lam=     0.0 B1  freq=     0. Q= -0.000 lam=     0.0
   7 A2  freq=    66. Q=  0.000 lam=     0.0 A2  freq=    66. Q=  0.000 lam=     0.0
   8 B1  freq=    81. Q= -0.000 lam=     0.0 B1  freq=    92. Q= -0.000 lam=     0.0
   9 A2  freq=   130. Q=  0.000 lam=     0.0 A2  freq=   123. Q=  0.000 lam=     0.0
  10 B1  freq=   162. Q= -0.000 lam=     0.0 B1  freq=   142. Q= -0.000 lam=     0.0
  11 A1  freq=   236. Q=  0.021 lam=     0.1 A2  freq=   191. Q=  0.000 lam=     0.0
  12 A2  freq=   258. Q= -0.000 lam=     0.0 A1  freq=   232. Q= -0.021 lam=     0.0
  13 B2  freq=   321. Q=  0.000 lam=     0.0 B1  freq=   292. Q=  0.000 lam=     0.0
  14 A1  freq=   370. Q= -0.829 lam=   126.9 B2  freq=   317. Q= -0.000 lam=     0.0
  15 B1  freq=   384. Q=  0.000 lam=     0.0 A1  freq=   368. Q=  0.823 lam=   124.7
  16 B2  freq=   393. Q= -0.000 lam=     0.0 A2  freq=   377. Q= -0.000 lam=     0.0
  17 A1  freq=   416. Q= -0.816 lam=   138.5 A1  freq=   404. Q= -0.851 lam=   146.1
  18 B1  freq=   418. Q= -0.000 lam=     0.0 B2  freq=   404. Q= -0.000 lam=     0.0
  19 A1  freq=   454. Q= -0.278 lam=    17.6 B1  freq=   444. Q= -0.000 lam=     0.0
  20 A2  freq=   465. Q= -0.000 lam=     0.0 A1  freq=   457. Q= -0.100 lam=     2.3
  21 A2  freq=   541. Q= -0.000 lam=     0.0 B1  freq=   486. Q= -0.000 lam=     0.0
  22 B1  freq=   582. Q=  0.000 lam=     0.0 A2  freq=   507. Q=  0.000 lam=     0.0
  23 B2  freq=   587. Q=  0.000 lam=     0.0 A2  freq=   549. Q=  0.000 lam=     0.0
  24 B2  freq=   622. Q= -0.000 lam=     0.0 B1  freq=   568. Q= -0.000 lam=     0.0
  25 B1  freq=   651. Q= -0.000 lam=     0.0 B2  freq=   577. Q= -0.000 lam=     0.0
  26 A1  freq=   661. Q= -0.718 lam=   170.3 B2  freq=   593. Q= -0.000 lam=     0.0
  27 A2  freq=   675. Q=  0.000 lam=     0.0 B1  freq=   623. Q=  0.000 lam=     0.0
  28 B2  freq=   706. Q= -0.000 lam=     0.0 A2  freq=   634. Q= -0.000 lam=     0.0
  29 A2  freq=   721. Q=  0.000 lam=     0.0 A1  freq=   637. Q=  0.698 lam=   155.1
  30 B1  freq=   740. Q= -0.000 lam=     0.0 B1  freq=   672. Q= -0.000 lam=     0.0
  31 A2  freq=   777. Q= -0.000 lam=     0.0 A2  freq=   688. Q= -0.000 lam=     0.0
  32 A1  freq=   831. Q=  0.260 lam=    28.2 B2  freq=   697. Q=  0.000 lam=     0.0
  33 B1  freq=   846. Q= -0.000 lam=     0.0 A2  freq=   735. Q= -0.000 lam=     0.0
  34 A2  freq=   850. Q=  0.000 lam=     0.0 B1  freq=   737. Q=  0.000 lam=     0.0
  35 B1  freq=   890. Q=  0.000 lam=     0.0 A2  freq=   780. Q=  0.000 lam=     0.0
  36 A2  freq=   892. Q= -0.000 lam=     0.0 A1  freq=   822. Q= -0.231 lam=    21.9
  37 B2  freq=   923. Q=  0.000 lam=     0.0 B2  freq=   896. Q=  0.000 lam=     0.0
  38 A1  freq=  1027. Q= -0.169 lam=    14.7 B2  freq=   977. Q= -0.000 lam=     0.0
  39 B2  freq=  1028. Q=  0.000 lam=     0.0 A1  freq=   977. Q=  0.089 lam=     3.9
  40 A1  freq=  1042. Q= -0.062 lam=     2.0 A1  freq=   992. Q= -0.184 lam=    16.7
  41 B2  freq=  1063. Q= -0.000 lam=     0.0 B2  freq=  1021. Q= -0.000 lam=     0.0
  42 A1  freq=  1082. Q=  0.103 lam=     5.7 A1  freq=  1038. Q=  0.093 lam=     4.5
  43 B2  freq=  1082. Q= -0.000 lam=     0.0 B2  freq=  1043. Q= -0.000 lam=     0.0
  44 A1  freq=  1160. Q= -0.009 lam=     0.0 A1  freq=  1107. Q= -0.152 lam=    12.8
  45 B2  freq=  1171. Q= -0.000 lam=     0.0 B2  freq=  1155. Q= -0.000 lam=     0.0
  46 B2  freq=  1236. Q=  0.000 lam=     0.0 B2  freq=  1217. Q=  0.000 lam=     0.0
  47 A1  freq=  1271. Q= -0.836 lam=   444.1 A1  freq=  1224. Q= -0.076 lam=     3.5
  48 B2  freq=  1276. Q=  0.000 lam=     0.0 A1  freq=  1258. Q=  0.886 lam=   494.0
  49 A1  freq=  1321. Q= -0.494 lam=   161.2 B2  freq=  1264. Q= -0.000 lam=     0.0
  50 A1  freq=  1341. Q= -0.249 lam=    41.6 A1  freq=  1298. Q= -0.165 lam=    17.7
  51 B2  freq=  1377. Q=  0.000 lam=     0.0 B2  freq=  1340. Q=  0.000 lam=     0.0
  52 A1  freq=  1429. Q= -0.159 lam=    18.2 A1  freq=  1365. Q= -0.073 lam=     3.7
  53 B2  freq=  1438. Q=  0.000 lam=     0.0 B2  freq=  1399. Q=  0.000 lam=     0.0
  54 B2  freq=  1455. Q=  0.000 lam=     0.0 B2  freq=  1418. Q=  0.000 lam=     0.0
  55 B2  freq=  1467. Q=  0.000 lam=     0.0 A1  freq=  1424. Q=  0.230 lam=    37.7
  56 A1  freq=  1483. Q=  0.132 lam=    12.9 A1  freq=  1450. Q=  0.244 lam=    43.1
  57 A1  freq=  1510. Q=  0.314 lam=    74.3 A1  freq=  1490. Q=  0.771 lam=   442.9
  58 A1  freq=  1539. Q= -0.371 lam=   106.0 A1  freq=  1494. Q= -0.276 lam=    56.8
  59 B2  freq=  1554. Q=  0.000 lam=     0.0 B2  freq=  1508. Q=  0.000 lam=     0.0
  60 A1  freq=  1565. Q= -0.702 lam=   385.2 B2  freq=  1543. Q= -0.000 lam=     0.0
  61 B2  freq=  2990. Q= -0.000 lam=     0.0 B2  freq=  2896. Q= -0.000 lam=     0.0
  62 A1  freq=  2992. Q= -0.084 lam=    10.4 A1  freq=  2899. Q= -0.074 lam=     7.9
  63 B2  freq=  3095. Q= -0.000 lam=     0.0 B2  freq=  2977. Q= -0.000 lam=     0.0
  64 A1  freq=  3096. Q= -0.122 lam=    23.0 A1  freq=  2979. Q= -0.132 lam=    25.8
  65 B2  freq=  3159. Q=  0.000 lam=     0.0 B2  freq=  3137. Q=  0.000 lam=     0.0
  66 A1  freq=  3160. Q= -0.024 lam=     0.9 A1  freq=  3137. Q= -0.016 lam=     0.4

 total reorg energy (cm**-1, kcal/mol)=     1782.     1621.      5.09      4.64
 Nber of molecules processed=           2
