 Enter ifcurve (0=recti, 1=orth curvi, 2=apprx curvi, -1 = skip
 And atom ordering flag, 0= never changes, 1= use the first order thenceforth,
  2= deduce it (does read on fail), 3= always read it
 Reading file: 
 ./TT_0_C0S2.log                                                                
                                          
  Entering Gaussian System, Link 0=g16                                          
  
 Gaussian format, type: g94, g98, g03= F F F
  #P Geom=AllCheck Guess=TCheck SCRF=Check GenChk RB3LYP TD(FC,Read)/6-3    
 energy type= TD      
 Original G94 input coords:
  6 -2.307794 -0.012023 -0.000773
  6 -1.413019 -1.116378 -0.001423
  6 -0.096116 -0.706487 -0.001027
 16  1.504093 -1.533289 -0.001426
  6  2.302363  0.018872 -0.000305
  6  1.407577  1.123209  0.000343
  6  0.090679  0.713304 -0.000061
 16 -1.509532  1.540147  0.000339
  1 -3.386011 -0.052832 -0.000913
  1 -1.761444 -2.139807 -0.002139
  1  3.380579  0.059682 -0.000160
  1  1.755993  2.146641  0.001065
 nber atoms=          12
  Total Energy, E(TD-HF/TD-DFT) =  -1027.34166833                               
  
          32          49 "  -1027.34166833"
After scan for Atom:   Atom  AN      X      Y      Z        X      Y      Z        X      Y      Z   
After scan for Atom:   Atom  AN      X      Y      Z        X      Y      Z        X      Y      Z   
After scan for Atom:   Atom  AN      X      Y      Z        X      Y      Z        X      Y      Z   
After scan for Atom:   Atom  AN      X      Y      Z        X      Y      Z        X      Y      Z   
After scan for Atom:   Atom  AN      X      Y      Z        X      Y      Z        X      Y      Z   
After scan for Atom:   Atom  AN      X      Y      Z        X      Y      Z        X      Y      Z   
After scan for Atom:   Atom  AN      X      Y      Z        X      Y      Z        X      Y      Z   
After scan for Atom:   Atom  AN      X      Y      Z        X      Y      Z        X      Y      Z   
After scan for Atom:   Atom  AN      X      Y      Z        X      Y      Z        X      Y      Z   
After scan for Atom:   Atom  AN      X      Y      Z        X      Y      Z        X      Y      Z   
 g94    frequencies=
     0.0    0.0    0.0    0.0    0.0    0.0  -73.0  -66.5   99.4  329.4
   352.0  356.3  404.3  467.6  552.2  559.3  577.0  690.9  744.9  787.3
   793.6  826.6  867.0 1028.8 1050.3 1113.8 1230.7 1298.9 1299.2 1326.8
  1454.1 1550.3 3213.3 3213.5 3243.0 3243.8
 g94    symmetries=
                                                 A      A      A      A
       A      A      A      A      A      A      A      A      A      A
       A      A      A      A      A      A      A      A      A      A
       A      A      A      A      A      A
 atomic masses:
 12.0000 12.0000 12.0000 31.9721 12.0000 12.0000 12.0000 31.9721  1.0078  1.0078
  1.0078  1.0078
 looking for force constants in 
 ./TT_0_C0S2.fchk                                                               
  
 Cartesian Force Constants                  R   N=         666                  
  
 n3=          36         666
 g94-fc frequencies=
   -73.0  -66.5   -2.3   -0.0    0.0    0.0    5.0   10.4   99.4  329.4
   352.0  356.3  404.3  467.6  552.2  559.3  577.1  690.9  744.9  787.3
   793.6  826.6  867.1 1028.8 1050.3 1113.9 1230.7 1298.9 1299.3 1326.8
  1454.2 1550.4 3213.4 3213.6 3243.1 3243.9
 at 99999: n3=          36
 symm operator            1 :  F  nop=           0
 symm operator            2 :  F  nop=           0
 symm operator            3 :  F  nop=           0
 symm operator            4 :  F  nop=           0
 symm operator            5 :  F  nop=           0
 symm operator            6 :  F  nop=           0
 symm operator            7 :  F  nop=           0
 The point group of the molecule is  C1
 Symmetry rotation matrix:
   1.00000   0.00000   0.00000
   0.00000   1.00000   0.00000
   0.00000   0.00000   1.00000

 Projecting out zero-frequency components
 generating redundant internal coords
         300        3600          12
 search for int coords
   1 str   2   1   1.421
   2 str   3   2   1.379
   3 str   4   3   1.801
   4 str   5   4   1.745
   5 str   6   5   1.421
   6 str   7   3   1.432
   7 str   7   6   1.379
   8 str   8   1   1.745
   9 str   8   7   1.801
  10 str   9   1   1.079
  11 str  10   2   1.081
  12 str  11   5   1.079
  13 str  12   6   1.081
 nber stretches=          13
  14 ben   1   2   3
  15 prop tor   1   2   3   4
  16 prop tor   1   2   3   7
  17 ben   1   2  10
  18 ben   1   8   7
  19 ben   2   1   8
  20 prop tor   2   1   8   7
  21 ben   2   1   9
  22 ben   2   3   4
  23 prop tor   2   3   4   5
  24 ben   2   3   7
  25 prop tor   2   3   7   6
  26 prop tor   2   3   7   8
  27 ben   3   2  10
  28 ben   3   4   5
  29 prop tor   3   4   5   6
  30 prop tor   3   4   5  11
  31 ben   3   7   6
  32 ben   3   7   8
  33 prop tor   3   7   8   1
  34 ben   4   3   7
  35 prop tor   4   3   7   6
  36 prop tor   4   3   7   8
  37 ben   4   5   6
  38 prop tor   4   5   6   7
  39 prop tor   4   5   6  12
  40 ben   4   5  11
  41 ben   5   6   7
  42 prop tor   5   6   7   3
  43 prop tor   5   6   7   8
  44 ben   5   6  12
  45 ben   6   5  11
  46 ben   6   7   8
  47 prop tor   6   7   8   1
  48 prop tor   7   3   4   5
  49 ben   7   6  12
  50 prop tor   8   1   2   3
  51 prop tor   8   1   2  10
  52 ben   8   1   9
  53 prop tor   9   1   2   3
  54 prop tor   9   1   2  10
  55 prop tor   9   1   8   7
  56 prop tor  10   2   3   4
  57 prop tor  10   2   3   7
  58 prop tor  11   5   6   7
  59 prop tor  11   5   6  12
  60 prop tor  12   6   7   3
  61 prop tor  12   6   7   8
 nber bend=              20
 nber lin bend=           0
 nber prop tor=          28
 nber impr tor=           0
 nber tot redund int=          61
 Eigenvalues of G in red int coords
    Gval -0.00000000 -0.00000000 -0.00000000 -0.00000000 -0.00000000 -0.00000000 -0.00000000 -0.00000000
    Gval -0.00000000 -0.00000000 -0.00000000 -0.00000000 -0.00000000 -0.00000000 -0.00000000 -0.00000000
    Gval  0.00000000  0.00000000  0.00000000  0.00000000  0.00000000  0.00000000  0.00000000  0.00000000
    Gval  0.00000000  0.00000000  0.00000000  0.00000000  0.00000000  0.00000000  0.00000000  0.00001793
    Gval  0.00002683  0.00003466  0.00004575  0.00005183  0.00007872  0.00009642  0.00010716  0.00011028
    Gval  0.00014944  0.00015887  0.00022383  0.00029105  0.00029771  0.00035875  0.00038256  0.00059643
    Gval  0.00059659  0.00062051  0.00062521  0.00062890  0.00108336  0.00108493  0.00117613  0.00117878
    Gval  0.00125983  0.00202827  0.00214933  0.00390215  0.00391398
  1.792543172723581E-005  1.792543172723581E-005
  2.682823654402110E-005  1.792543172723581E-005
  3.466292842974248E-005  1.792543172723581E-005
  4.575351326799516E-005  1.792543172723581E-005
  5.182782053444152E-005  1.792543172723581E-005
  7.872297682775093E-005  1.792543172723581E-005
  9.641727813915535E-005  1.792543172723581E-005
  1.071594599514887E-004  1.792543172723581E-005
  1.102803241952906E-004  1.792543172723581E-005
  1.494423239428159E-004  1.792543172723581E-005
  1.588671434737513E-004  1.792543172723581E-005
  2.238252853644480E-004  1.792543172723581E-005
  2.910481786435027E-004  1.792543172723581E-005
  2.977108251963711E-004  1.792543172723581E-005
  3.587535235603911E-004  1.792543172723581E-005
  3.825599692849620E-004  1.792543172723581E-005
  5.964251313678125E-004  1.792543172723581E-005
  5.965871473812848E-004  1.792543172723581E-005
  6.205080626997923E-004  1.792543172723581E-005
  6.252082110054767E-004  1.792543172723581E-005
  6.289008290776464E-004  1.792543172723581E-005
  1.083362261076990E-003  1.792543172723581E-005
  1.084931017814845E-003  1.792543172723581E-005
  1.176128543716331E-003  1.792543172723581E-005
  1.178778057270907E-003  1.792543172723581E-005
  1.259829310328730E-003  1.792543172723581E-005
  2.028270415194264E-003  1.792543172723581E-005
  2.149333022527111E-003  1.792543172723581E-005
  3.902151113069761E-003  1.792543172723581E-005
  3.913982838260764E-003  1.792543172723581E-005
 cut=1d-8, nber non-redundant internal coords=          30
 Check on Eigenvals of non-red overlap matrix:
  0.00001793  0.00002683  0.00003466  0.00004575  0.00005183  0.00007872  0.00009642  0.00010716
  0.00011028  0.00014944  0.00015887  0.00022383  0.00029105  0.00029771  0.00035875  0.00038256
  0.00059643  0.00059659  0.00062051  0.00062521  0.00062890  0.00108336  0.00108493  0.00117613
  0.00117878  0.00125983  0.00202827  0.00214933  0.00390215  0.00391398
 Checking for correct frequencies
 recalc frequencies=
   -73.0  -66.5   -0.0   -0.0   -0.0    0.0    0.0    0.0   99.4  329.4
   352.0  356.3  404.3  467.6  552.2  559.3  577.1  690.9  744.9  787.3
   793.6  826.6  867.1 1028.8 1050.3 1113.9 1230.7 1298.9 1299.3 1326.8
  1454.2 1550.4 3213.4 3213.6 3243.1 3243.9
 recalc symmetries=
                                                                       
                                                                       
                                                                       
                                           
 recalc freqs check OK
 Zero-point lengths:
 29.0195 30.4108 10.0000 10.0000 10.0000 10.0000 10.0000 10.0000 24.8698 13.6590
 13.2144 13.1332 12.3288 11.4643 10.5500 10.4823 10.3202  9.4313  9.0835  8.8351
  8.8000  8.6227  8.4192  7.7291  7.6495  7.4282  7.0666  6.8788  6.8778  6.8059
  6.5012  6.2962  4.3733  4.3732  4.3533  4.3527
 highest evec of mol 1
  0.1993  0.0024  0.0000
  0.0119  0.0469  0.0000
 -0.0067 -0.0022 -0.0000
 -0.0007 -0.0010 -0.0000
  0.2010  0.0024  0.0000
  0.0120  0.0473  0.0000
 -0.0067 -0.0021 -0.0000
 -0.0007 -0.0009 -0.0000
 -0.6580 -0.0224 -0.0001
 -0.0439 -0.1349 -0.0001
 -0.6637 -0.0226 -0.0001
 -0.0444 -0.1362 -0.0001
 generating redundant internal coords
         300        3600          12
 Adding extra bonds for z output only
           6           6           6          16           6           6
           6          16           1           1           1           1
 search for int coords
   1 str   2   1   1.421
   2 str   3   2   1.379
   3 str   4   3   1.801
   4 str   5   4   1.745
   5 str   6   5   1.421
   6 str   7   3   1.432
   7 str   7   6   1.379
   8 str   8   1   1.745
   9 str   8   7   1.801
  10 str   9   1   1.079
  11 str  10   2   1.081
  12 str  11   5   1.079
  13 str  12   6   1.081
 nber stretches=          13
  14 ben   1   2   3
  15 prop tor   1   2   3   4
  16 prop tor   1   2   3   7
  17 ben   1   2  10
  18 ben   1   8   7
  19 ben   2   1   8
  20 prop tor   2   1   8   7
  21 ben   2   1   9
  22 ben   2   3   4
  23 prop tor   2   3   4   5
  24 ben   2   3   7
  25 prop tor   2   3   7   6
  26 prop tor   2   3   7   8
  27 ben   3   2  10
  28 ben   3   4   5
  29 prop tor   3   4   5   6
  30 prop tor   3   4   5  11
  31 ben   3   7   6
  32 ben   3   7   8
  33 prop tor   3   7   8   1
  34 ben   4   3   7
  35 prop tor   4   3   7   6
  36 prop tor   4   3   7   8
  37 ben   4   5   6
  38 prop tor   4   5   6   7
  39 prop tor   4   5   6  12
  40 ben   4   5  11
  41 ben   5   6   7
  42 prop tor   5   6   7   3
  43 prop tor   5   6   7   8
  44 ben   5   6  12
  45 ben   6   5  11
  46 ben   6   7   8
  47 prop tor   6   7   8   1
  48 prop tor   7   3   4   5
  49 ben   7   6  12
  50 prop tor   8   1   2   3
  51 prop tor   8   1   2  10
  52 ben   8   1   9
  53 prop tor   9   1   2   3
  54 prop tor   9   1   2  10
  55 prop tor   9   1   8   7
  56 prop tor  10   2   3   4
  57 prop tor  10   2   3   7
  58 prop tor  11   5   6   7
  59 prop tor  11   5   6  12
  60 prop tor  12   6   7   3
  61 prop tor  12   6   7   8
 nber bend=              20
 nber lin bend=           0
 nber prop tor=          28
 nber impr tor=           0
 nber tot redund int=          61
 Reading file: 
 ./TT_0_C1S0.log                                                                
                                          
  Entering Gaussian System, Link 0=g16                                          
  
 Gaussian format, type: g94, g98, g03= F F F
  #P Geom=AllCheck Guess=TCheck SCRF=Check GenChk UB3LYP/6-311G(d,p) Fre    
 energy type= B3LYP   
 Original G94 input coords:
  6 -2.268074 -0.007488 -0.000769
  6 -1.402220 -1.119005 -0.001425
  6 -0.083834 -0.702758 -0.001019
 16  1.481496 -1.510139 -0.001408
  6  2.262634  0.014327 -0.000309
  6  1.396784  1.125838  0.000344
  6  0.078394  0.709596 -0.000062
 16 -1.486936  1.516988  0.000326
  1 -3.349477 -0.047698 -0.000904
  1 -1.756381 -2.140540 -0.002143
  1  3.344036  0.054547 -0.000173
  1  1.750949  2.147372  0.001062
 nber atoms=          12
  SCF Done:  E(UB3LYP) =  -1027.22028207     A.U. after    1 cycles             
  
          23          40 "  -1027.22028207"
After scan for Atom:   Atom  AN      X      Y      Z        X      Y      Z        X      Y      Z   
After scan for Atom:   Atom  AN      X      Y      Z        X      Y      Z        X      Y      Z   
After scan for Atom:   Atom  AN      X      Y      Z        X      Y      Z        X      Y      Z   
After scan for Atom:   Atom  AN      X      Y      Z        X      Y      Z        X      Y      Z   
After scan for Atom:   Atom  AN      X      Y      Z        X      Y      Z        X      Y      Z   
After scan for Atom:   Atom  AN      X      Y      Z        X      Y      Z        X      Y      Z   
After scan for Atom:   Atom  AN      X      Y      Z        X      Y      Z        X      Y      Z   
After scan for Atom:   Atom  AN      X      Y      Z        X      Y      Z        X      Y      Z   
After scan for Atom:   Atom  AN      X      Y      Z        X      Y      Z        X      Y      Z   
After scan for Atom:   Atom  AN      X      Y      Z        X      Y      Z        X      Y      Z   
 g94    frequencies=
     0.0    0.0    0.0    0.0    0.0    0.0  187.4  213.4  354.1  421.9
   443.9  461.1  519.9  631.7  646.9  762.6  764.0  770.8  784.2  862.0
   906.9  909.0  922.0 1085.2 1092.7 1174.8 1263.0 1337.4 1357.8 1377.0
  1472.8 1532.7 3221.9 3222.3 3233.8 3234.3
 g94    symmetries=
                                                 A      A      A      A
       A      A      A      A      A      A      A      A      A      A
       A      A      A      A      A      A      A      A      A      A
       A      A      A      A      A      A
 atomic masses:
 12.0000 12.0000 12.0000 31.9721 12.0000 12.0000 12.0000 31.9721  1.0078  1.0078
  1.0078  1.0078
 looking for force constants in 
 ./TT_0_C1S0.fchk                                                               
  
 Cartesian Force Constants                  R   N=         666                  
  
 n3=          36         666
 g94-fc frequencies=
    -3.8   -0.0   -0.0    0.0    4.0    9.4  187.4  213.4  354.1  422.0
   443.9  461.2  519.9  631.7  646.9  762.7  764.0  770.9  784.2  862.1
   906.9  909.0  922.1 1085.2 1092.7 1174.9 1263.0 1337.4 1357.8 1377.0
  1472.8 1532.7 3221.9 3222.3 3233.9 3234.4
 at 99999: n3=          36
 symm operator            1 :  F  nop=           0
 symm operator            2 :  F  nop=           0
 symm operator            3 :  F  nop=           0
 symm operator            4 :  F  nop=           0
 symm operator            5 :  F  nop=           0
 symm operator            6 :  F  nop=           0
 symm operator            7 :  F  nop=           0
 The point group of the molecule is  C1
 Symmetry rotation matrix:
   1.00000   0.00000   0.00000
   0.00000   1.00000   0.00000
   0.00000   0.00000   1.00000

 Projecting out zero-frequency components
 generating redundant internal coords
         300        3600          12
 search for int coords
   1 str   2   1   1.409
   2 str   3   2   1.383
   3 str   4   3   1.761
   4 str   5   4   1.713
   5 str   6   5   1.409
   6 str   7   3   1.422
   7 str   7   6   1.383
   8 str   8   1   1.713
   9 str   8   7   1.761
  10 str   9   1   1.082
  11 str  10   2   1.081
  12 str  11   5   1.082
  13 str  12   6   1.081
 nber stretches=          13
  14 ben   1   2   3
  15 prop tor   1   2   3   4
  16 prop tor   1   2   3   7
  17 ben   1   2  10
  18 ben   1   8   7
  19 ben   2   1   8
  20 prop tor   2   1   8   7
  21 ben   2   1   9
  22 ben   2   3   4
  23 prop tor   2   3   4   5
  24 ben   2   3   7
  25 prop tor   2   3   7   6
  26 prop tor   2   3   7   8
  27 ben   3   2  10
  28 ben   3   4   5
  29 prop tor   3   4   5   6
  30 prop tor   3   4   5  11
  31 ben   3   7   6
  32 ben   3   7   8
  33 prop tor   3   7   8   1
  34 ben   4   3   7
  35 prop tor   4   3   7   6
  36 prop tor   4   3   7   8
  37 ben   4   5   6
  38 prop tor   4   5   6   7
  39 prop tor   4   5   6  12
  40 ben   4   5  11
  41 ben   5   6   7
  42 prop tor   5   6   7   3
  43 prop tor   5   6   7   8
  44 ben   5   6  12
  45 ben   6   5  11
  46 ben   6   7   8
  47 prop tor   6   7   8   1
  48 prop tor   7   3   4   5
  49 ben   7   6  12
  50 prop tor   8   1   2   3
  51 prop tor   8   1   2  10
  52 ben   8   1   9
  53 prop tor   9   1   2   3
  54 prop tor   9   1   2  10
  55 prop tor   9   1   8   7
  56 prop tor  10   2   3   4
  57 prop tor  10   2   3   7
  58 prop tor  11   5   6   7
  59 prop tor  11   5   6  12
  60 prop tor  12   6   7   3
  61 prop tor  12   6   7   8
 nber bend=              20
 nber lin bend=           0
 nber prop tor=          28
 nber impr tor=           0
 nber tot redund int=          61
 Eigenvalues of G in red int coords
    Gval -0.00000000 -0.00000000 -0.00000000 -0.00000000 -0.00000000 -0.00000000 -0.00000000 -0.00000000
    Gval -0.00000000 -0.00000000 -0.00000000 -0.00000000 -0.00000000  0.00000000  0.00000000  0.00000000
    Gval  0.00000000  0.00000000  0.00000000  0.00000000  0.00000000  0.00000000  0.00000000  0.00000000
    Gval  0.00000000  0.00000000  0.00000000  0.00000000  0.00000000  0.00000000  0.00000000  0.00001796
    Gval  0.00002732  0.00003502  0.00004584  0.00005211  0.00007913  0.00009979  0.00010838  0.00011105
    Gval  0.00015230  0.00016166  0.00022905  0.00029188  0.00030328  0.00036887  0.00038263  0.00059646
    Gval  0.00059665  0.00062091  0.00062562  0.00062958  0.00107983  0.00108110  0.00117604  0.00117884
    Gval  0.00126449  0.00200214  0.00212272  0.00392271  0.00393706
  1.795550658774886E-005  1.795550658774886E-005
  2.731651167244994E-005  1.795550658774886E-005
  3.501929883154966E-005  1.795550658774886E-005
  4.583647915916962E-005  1.795550658774886E-005
  5.210846245797722E-005  1.795550658774886E-005
  7.912963340729463E-005  1.795550658774886E-005
  9.979116294037352E-005  1.795550658774886E-005
  1.083821709973722E-004  1.795550658774886E-005
  1.110507418801117E-004  1.795550658774886E-005
  1.523034232656485E-004  1.795550658774886E-005
  1.616597392081912E-004  1.795550658774886E-005
  2.290488432803003E-004  1.795550658774886E-005
  2.918788863182503E-004  1.795550658774886E-005
  3.032801383008016E-004  1.795550658774886E-005
  3.688702868801658E-004  1.795550658774886E-005
  3.826273298078005E-004  1.795550658774886E-005
  5.964600740602067E-004  1.795550658774886E-005
  5.966451004584764E-004  1.795550658774886E-005
  6.209135720075637E-004  1.795550658774886E-005
  6.256190704398601E-004  1.795550658774886E-005
  6.295802957474087E-004  1.795550658774886E-005
  1.079831294167028E-003  1.795550658774886E-005
  1.081100407405900E-003  1.795550658774886E-005
  1.176035730826441E-003  1.795550658774886E-005
  1.178844876325204E-003  1.795550658774886E-005
  1.264494629027834E-003  1.795550658774886E-005
  2.002143008112555E-003  1.795550658774886E-005
  2.122718698985548E-003  1.795550658774886E-005
  3.922712409749059E-003  1.795550658774886E-005
  3.937057536193048E-003  1.795550658774886E-005
 cut=1d-8, nber non-redundant internal coords=          30
 Check on Eigenvals of non-red overlap matrix:
  0.00001796  0.00002732  0.00003502  0.00004584  0.00005211  0.00007913  0.00009979  0.00010838
  0.00011105  0.00015230  0.00016166  0.00022905  0.00029188  0.00030328  0.00036887  0.00038263
  0.00059646  0.00059665  0.00062091  0.00062562  0.00062958  0.00107983  0.00108110  0.00117604
  0.00117884  0.00126449  0.00200214  0.00212272  0.00392271  0.00393706
 Checking for correct frequencies
 recalc frequencies=
    -0.0   -0.0   -0.0    0.0    0.0    0.0  187.4  213.4  354.1  422.0
   443.9  461.2  519.9  631.7  646.9  762.7  764.0  770.9  784.2  862.1
   906.9  909.0  922.1 1085.2 1092.7 1174.9 1263.0 1337.4 1357.8 1377.0
  1472.8 1532.7 3221.9 3222.3 3233.9 3234.4
 recalc symmetries=
                                                                       
                                                                       
                                                                       
                                           
 recalc freqs check OK
 Zero-point lengths:
 10.0000 10.0000 10.0000 10.0000 10.0000 10.0000 18.1114 16.9697 13.1752 12.0688
 11.7665 11.5444 10.8726  9.8639  9.7472  8.9770  8.9688  8.9291  8.8530  8.4436
  8.2322  8.2226  8.1643  7.5256  7.4996  7.2327  6.9757  6.7790  6.7278  6.6808
  6.4598  6.3323  4.3675  4.3673  4.3595  4.3591
 highest evec of mol 2
  0.1329 -0.0030  0.0000
  0.0525  0.1600  0.0001
 -0.0123 -0.0049 -0.0000
 -0.0005 -0.0019 -0.0000
  0.1316 -0.0029  0.0000
  0.0519  0.1584  0.0001
 -0.0123 -0.0049 -0.0000
 -0.0005 -0.0019 -0.0000
 -0.4213 -0.0132 -0.0001
 -0.1729 -0.5011 -0.0004
 -0.4174 -0.0131 -0.0001
 -0.1712 -0.4961 -0.0003
 Enter nber and list of atoms to keep of mol #2
 keep list:          12           1           2           3           4
           5           6           7           8           9          10
          11          12
 reordering atoms
           1  -2.01773412190306     
           2 -0.744094928683221     
           3  0.245591327309333     
           4   2.00680326380240     
           5   2.01773505246918     
           6  0.744102133327042     
           7 -0.245589945770029     
           8  -2.00680683570096     
           9  -2.96516899704559     
          10 -0.600281518370841     
          11   2.96516453121715     
          12  0.600292744791323     
           1           1
           2           2
           3           3
           4           4
           5           5
           6           6
           7           7
           8           8
           9           9
          10          10
          11          11
          12          12
 initial cartes coords mol 1
   6   0.00000   1.05167  -2.05124
   6   0.00000   1.63487  -0.75506
   6  -0.00000   0.67593   0.23625
  16  -0.00000   0.69367   2.03735
   6   0.00000  -1.05168   2.05125
   6   0.00000  -1.63485   0.75506
   6  -0.00000  -0.67591  -0.23624
  16  -0.00000  -0.69368  -2.03735
   1  -0.00001   1.57358  -2.99561
   1   0.00001   2.70557  -0.60536
   1   0.00002  -1.57359   2.99561
   1   0.00000  -2.70555   0.60535
 initial cartes coords mol 2
   6  -0.00000   1.02990  -2.01773
   6   0.00000   1.63241  -0.74409
   6   0.00000   0.66705   0.24559
  16  -0.00000   0.68301   2.00680
   6   0.00000  -1.02990   2.01774
   6  -0.00000  -1.63240   0.74410
   6  -0.00000  -0.66704  -0.24559
  16   0.00000  -0.68302  -2.00681
   1  -0.00000   1.55279  -2.96517
   1   0.00000   2.70399  -0.60028
   1   0.00001  -1.55280   2.96516
   1  -0.00000  -2.70398   0.60029
 loop 1 0
 mod cartes coords mol 2
   6  -0.00000   1.02990  -2.01773
   6   0.00000   1.63241  -0.74409
   6   0.00000   0.66705   0.24559
  16  -0.00000   0.68301   2.00680
   6   0.00000  -1.02990   2.01774
   6  -0.00000  -1.63240   0.74410
   6  -0.00000  -0.66704  -0.24559
  16   0.00000  -0.68302  -2.00681
   1  -0.00000   1.55279  -2.96517
   1   0.00000   2.70399  -0.60028
   1   0.00001  -1.55280   2.96516
   1  -0.00000  -2.70398   0.60029
 read in order, maxerr=  0.04 for atom   5
 final axis swaps:           1           1           1
 final xyz swap pattern=           1
 reorder list:
   1   2   3   4   5   6   7   8   9  10  11  12
 axis signs=           1           1           1
  6    -0.000000  1.029902 -2.017734     0.000002  1.051670 -2.051244
  6     0.000002  1.632411 -0.744095     0.000004  1.634867 -0.755056
  6     0.000001  0.667049  0.245591    -0.000001  0.675930  0.236248
 16    -0.000001  0.683010  2.006803    -0.000002  0.693673  2.037347
  6     0.000003 -1.029899  2.017735     0.000004 -1.051677  2.051248
  6    -0.000002 -1.632404  0.744102     0.000000 -1.634853  0.755058
  6    -0.000001 -0.667044 -0.245590    -0.000002 -0.675906 -0.236235
 16     0.000000 -0.683015 -2.006807    -0.000001 -0.693685 -2.037354
  1    -0.000003  1.552795 -2.965169    -0.000006  1.573584 -2.995607
  1     0.000001  2.703990 -0.600282     0.000006  2.705567 -0.605357
  1     0.000007 -1.552800  2.965165     0.000018 -1.573591  2.995610
  1    -0.000001 -2.703984  0.600293     0.000004 -2.705551  0.605350
 generating redundant internal coords
         300        3600          12
 Adding extra bonds for z output only
           6           6           6          16           6           6
           6          16           1           1           1           1
 search for int coords
   1 str   2   1   1.409
   2 str   3   2   1.383
   3 str   4   3   1.761
   4 str   5   4   1.713
   5 str   6   5   1.409
   6 str   7   3   1.422
   7 str   7   6   1.383
   8 str   8   1   1.713
   9 str   8   7   1.761
  10 str   9   1   1.082
  11 str  10   2   1.081
  12 str  11   5   1.082
  13 str  12   6   1.081
 nber stretches=          13
  14 ben   1   2   3
  15 prop tor   1   2   3   4
  16 prop tor   1   2   3   7
  17 ben   1   2  10
  18 ben   1   8   7
  19 ben   2   1   8
  20 prop tor   2   1   8   7
  21 ben   2   1   9
  22 ben   2   3   4
  23 prop tor   2   3   4   5
  24 ben   2   3   7
  25 prop tor   2   3   7   6
  26 prop tor   2   3   7   8
  27 ben   3   2  10
  28 ben   3   4   5
  29 prop tor   3   4   5   6
  30 prop tor   3   4   5  11
  31 ben   3   7   6
  32 ben   3   7   8
  33 prop tor   3   7   8   1
  34 ben   4   3   7
  35 prop tor   4   3   7   6
  36 prop tor   4   3   7   8
  37 ben   4   5   6
  38 prop tor   4   5   6   7
  39 prop tor   4   5   6  12
  40 ben   4   5  11
  41 ben   5   6   7
  42 prop tor   5   6   7   3
  43 prop tor   5   6   7   8
  44 ben   5   6  12
  45 ben   6   5  11
  46 ben   6   7   8
  47 prop tor   6   7   8   1
  48 prop tor   7   3   4   5
  49 ben   7   6  12
  50 prop tor   8   1   2   3
  51 prop tor   8   1   2  10
  52 ben   8   1   9
  53 prop tor   9   1   2   3
  54 prop tor   9   1   2  10
  55 prop tor   9   1   8   7
  56 prop tor  10   2   3   4
  57 prop tor  10   2   3   7
  58 prop tor  11   5   6   7
  59 prop tor  11   5   6  12
  60 prop tor  12   6   7   3
  61 prop tor  12   6   7   8
 nber bend=              20
 nber lin bend=           0
 nber prop tor=          28
 nber impr tor=           0
 nber tot redund int=          61
 generating redundant internal coords
         300        3600          12
 search for int coords
   1 str   2   1   1.421
   2 str   3   2   1.379
   3 str   4   3   1.801
   4 str   5   4   1.745
   5 str   6   5   1.421
   6 str   7   3   1.432
   7 str   7   6   1.379
   8 str   8   1   1.745
   9 str   8   7   1.801
  10 str   9   1   1.079
  11 str  10   2   1.081
  12 str  11   5   1.079
  13 str  12   6   1.081
 nber stretches=          13
  14 ben   1   2   3
  15 prop tor   1   2   3   4
  16 prop tor   1   2   3   7
  17 ben   1   2  10
  18 ben   1   8   7
  19 ben   2   1   8
  20 prop tor   2   1   8   7
  21 ben   2   1   9
  22 ben   2   3   4
  23 prop tor   2   3   4   5
  24 ben   2   3   7
  25 prop tor   2   3   7   6
  26 prop tor   2   3   7   8
  27 ben   3   2  10
  28 ben   3   4   5
  29 prop tor   3   4   5   6
  30 prop tor   3   4   5  11
  31 ben   3   7   6
  32 ben   3   7   8
  33 prop tor   3   7   8   1
  34 ben   4   3   7
  35 prop tor   4   3   7   6
  36 prop tor   4   3   7   8
  37 ben   4   5   6
  38 prop tor   4   5   6   7
  39 prop tor   4   5   6  12
  40 ben   4   5  11
  41 ben   5   6   7
  42 prop tor   5   6   7   3
  43 prop tor   5   6   7   8
  44 ben   5   6  12
  45 ben   6   5  11
  46 ben   6   7   8
  47 prop tor   6   7   8   1
  48 prop tor   7   3   4   5
  49 ben   7   6  12
  50 prop tor   8   1   2   3
  51 prop tor   8   1   2  10
  52 ben   8   1   9
  53 prop tor   9   1   2   3
  54 prop tor   9   1   2  10
  55 prop tor   9   1   8   7
  56 prop tor  10   2   3   4
  57 prop tor  10   2   3   7
  58 prop tor  11   5   6   7
  59 prop tor  11   5   6  12
  60 prop tor  12   6   7   3
  61 prop tor  12   6   7   8
 nber bend=              20
 nber lin bend=           0
 nber prop tor=          28
 nber impr tor=           0
 nber tot redund int=          61
 Eigenvalues of G in red int coords
    Gval -0.00000000 -0.00000000 -0.00000000 -0.00000000 -0.00000000 -0.00000000 -0.00000000 -0.00000000
    Gval -0.00000000 -0.00000000 -0.00000000 -0.00000000 -0.00000000 -0.00000000 -0.00000000 -0.00000000
    Gval -0.00000000  0.00000000  0.00000000  0.00000000  0.00000000  0.00000000  0.00000000  0.00000000
    Gval  0.00000000  0.00000000  0.00000000  0.00000000  0.00000000  0.00000000  0.00000000  0.00001793
    Gval  0.00002683  0.00003466  0.00004575  0.00005183  0.00007872  0.00009642  0.00010716  0.00011028
    Gval  0.00014944  0.00015887  0.00022383  0.00029105  0.00029771  0.00035875  0.00038256  0.00059643
    Gval  0.00059659  0.00062051  0.00062521  0.00062890  0.00108336  0.00108493  0.00117613  0.00117878
    Gval  0.00125983  0.00202827  0.00214933  0.00390215  0.00391398
  1.792543172723580E-005  1.792543172723580E-005
  2.682823654402091E-005  1.792543172723580E-005
  3.466292842974239E-005  1.792543172723580E-005
  4.575351326799508E-005  1.792543172723580E-005
  5.182782053444146E-005  1.792543172723580E-005
  7.872297682775094E-005  1.792543172723580E-005
  9.641727813915564E-005  1.792543172723580E-005
  1.071594599514885E-004  1.792543172723580E-005
  1.102803241952909E-004  1.792543172723580E-005
  1.494423239428159E-004  1.792543172723580E-005
  1.588671434737511E-004  1.792543172723580E-005
  2.238252853644477E-004  1.792543172723580E-005
  2.910481786435030E-004  1.792543172723580E-005
  2.977108251963711E-004  1.792543172723580E-005
  3.587535235603906E-004  1.792543172723580E-005
  3.825599692849619E-004  1.792543172723580E-005
  5.964251313678125E-004  1.792543172723580E-005
  5.965871473812854E-004  1.792543172723580E-005
  6.205080626997935E-004  1.792543172723580E-005
  6.252082110054772E-004  1.792543172723580E-005
  6.289008290776469E-004  1.792543172723580E-005
  1.083362261076992E-003  1.792543172723580E-005
  1.084931017814846E-003  1.792543172723580E-005
  1.176128543716332E-003  1.792543172723580E-005
  1.178778057270908E-003  1.792543172723580E-005
  1.259829310328729E-003  1.792543172723580E-005
  2.028270415194270E-003  1.792543172723580E-005
  2.149333022527113E-003  1.792543172723580E-005
  3.902151113069758E-003  1.792543172723580E-005
  3.913982838260761E-003  1.792543172723580E-005
 cut=1d-8, nber non-redundant internal coords=          30
 Check on Eigenvals of non-red overlap matrix:
  0.00001793  0.00002683  0.00003466  0.00004575  0.00005183  0.00007872  0.00009642  0.00010716
  0.00011028  0.00014944  0.00015887  0.00022383  0.00029105  0.00029771  0.00035875  0.00038256
  0.00059643  0.00059659  0.00062051  0.00062521  0.00062890  0.00108336  0.00108493  0.00117613
  0.00117878  0.00125983  0.00202827  0.00214933  0.00390215  0.00391398
 generating redundant internal coords
         300        3600          12
 search for int coords
   1 str   2   1   1.409
   2 str   3   2   1.383
   3 str   4   3   1.761
   4 str   5   4   1.713
   5 str   6   5   1.409
   6 str   7   3   1.422
   7 str   7   6   1.383
   8 str   8   1   1.713
   9 str   8   7   1.761
  10 str   9   1   1.082
  11 str  10   2   1.081
  12 str  11   5   1.082
  13 str  12   6   1.081
 nber stretches=          13
  14 ben   1   2   3
  15 prop tor   1   2   3   4
  16 prop tor   1   2   3   7
  17 ben   1   2  10
  18 ben   1   8   7
  19 ben   2   1   8
  20 prop tor   2   1   8   7
  21 ben   2   1   9
  22 ben   2   3   4
  23 prop tor   2   3   4   5
  24 ben   2   3   7
  25 prop tor   2   3   7   6
  26 prop tor   2   3   7   8
  27 ben   3   2  10
  28 ben   3   4   5
  29 prop tor   3   4   5   6
  30 prop tor   3   4   5  11
  31 ben   3   7   6
  32 ben   3   7   8
  33 prop tor   3   7   8   1
  34 ben   4   3   7
  35 prop tor   4   3   7   6
  36 prop tor   4   3   7   8
  37 ben   4   5   6
  38 prop tor   4   5   6   7
  39 prop tor   4   5   6  12
  40 ben   4   5  11
  41 ben   5   6   7
  42 prop tor   5   6   7   3
  43 prop tor   5   6   7   8
  44 ben   5   6  12
  45 ben   6   5  11
  46 ben   6   7   8
  47 prop tor   6   7   8   1
  48 prop tor   7   3   4   5
  49 ben   7   6  12
  50 prop tor   8   1   2   3
  51 prop tor   8   1   2  10
  52 ben   8   1   9
  53 prop tor   9   1   2   3
  54 prop tor   9   1   2  10
  55 prop tor   9   1   8   7
  56 prop tor  10   2   3   4
  57 prop tor  10   2   3   7
  58 prop tor  11   5   6   7
  59 prop tor  11   5   6  12
  60 prop tor  12   6   7   3
  61 prop tor  12   6   7   8
 nber bend=              20
 nber lin bend=           0
 nber prop tor=          28
 nber impr tor=           0
 nber tot redund int=          61
 Eigenvalues of G in red int coords
    Gval -0.00000000 -0.00000000 -0.00000000 -0.00000000 -0.00000000 -0.00000000 -0.00000000 -0.00000000
    Gval -0.00000000 -0.00000000 -0.00000000 -0.00000000 -0.00000000 -0.00000000  0.00000000  0.00000000
    Gval  0.00000000  0.00000000  0.00000000  0.00000000  0.00000000  0.00000000  0.00000000  0.00000000
    Gval  0.00000000  0.00000000  0.00000000  0.00000000  0.00000000  0.00000000  0.00000000  0.00001796
    Gval  0.00002732  0.00003502  0.00004584  0.00005211  0.00007913  0.00009979  0.00010838  0.00011105
    Gval  0.00015230  0.00016166  0.00022905  0.00029188  0.00030328  0.00036887  0.00038263  0.00059646
    Gval  0.00059665  0.00062091  0.00062562  0.00062958  0.00107983  0.00108110  0.00117604  0.00117884
    Gval  0.00126449  0.00200214  0.00212272  0.00392271  0.00393706
  1.795550658774883E-005  1.795550658774883E-005
  2.731651167244990E-005  1.795550658774883E-005
  3.501929883154966E-005  1.795550658774883E-005
  4.583647915916960E-005  1.795550658774883E-005
  5.210846245797715E-005  1.795550658774883E-005
  7.912963340729459E-005  1.795550658774883E-005
  9.979116294037320E-005  1.795550658774883E-005
  1.083821709973720E-004  1.795550658774883E-005
  1.110507418801116E-004  1.795550658774883E-005
  1.523034232656483E-004  1.795550658774883E-005
  1.616597392081909E-004  1.795550658774883E-005
  2.290488432803011E-004  1.795550658774883E-005
  2.918788863182505E-004  1.795550658774883E-005
  3.032801383008018E-004  1.795550658774883E-005
  3.688702868801655E-004  1.795550658774883E-005
  3.826273298078007E-004  1.795550658774883E-005
  5.964600740602058E-004  1.795550658774883E-005
  5.966451004584762E-004  1.795550658774883E-005
  6.209135720075632E-004  1.795550658774883E-005
  6.256190704398598E-004  1.795550658774883E-005
  6.295802957474101E-004  1.795550658774883E-005
  1.079831294167029E-003  1.795550658774883E-005
  1.081100407405900E-003  1.795550658774883E-005
  1.176035730826441E-003  1.795550658774883E-005
  1.178844876325204E-003  1.795550658774883E-005
  1.264494629027835E-003  1.795550658774883E-005
  2.002143008112556E-003  1.795550658774883E-005
  2.122718698985550E-003  1.795550658774883E-005
  3.922712409749054E-003  1.795550658774883E-005
  3.937057536193044E-003  1.795550658774883E-005
 cut=1d-8, nber non-redundant internal coords=          30
 Check on Eigenvals of non-red overlap matrix:
  0.00001796  0.00002732  0.00003502  0.00004584  0.00005211  0.00007913  0.00009979  0.00010838
  0.00011105  0.00015230  0.00016166  0.00022905  0.00029188  0.00030328  0.00036887  0.00038263
  0.00059646  0.00059665  0.00062091  0.00062562  0.00062958  0.00107983  0.00108110  0.00117604
  0.00117884  0.00126449  0.00200214  0.00212272  0.00392271  0.00393706
 d1=
 -13.0  -0.0   1.1   3.4  -0.0  -0.0   0.0   0.0  -2.3  -3.5  -0.0   0.0  -0.0   3.0  -0.0  -0.5   0.4  -0.0   0.0  -0.6
  -0.0  -0.0  -0.4   0.0   0.7   0.0  -0.0   0.0  -0.0  -0.0
 d2=
 -13.0  -0.0  -1.2  -3.4   0.0   0.0   0.0  -0.0   2.3   3.5   0.0  -0.0   0.0  -3.0   0.0   0.6   0.4   0.0   0.0   0.6
  -0.0   0.0   0.4   0.0   0.7  -0.0   0.0  -0.0   0.0   0.0
 curvilinear- renormalizn of Dush matrix done
  mol 1 sym            1  -> mol 2 sym            1

 Dushinsky matrix, ncs 2 in terms of ncs 1

   mode   freq    coeff     %      %tot     of    at

   1        -0.  0.0000     0.0     0.0   1       -73.
   2        -0. -0.0000     0.0     0.0  10       329.
   3        -0.  0.0000     0.0     0.0   1       -73.
   4         0.  0.0000     0.0     0.0   1       -73.
   5         0.  0.0000     0.0     0.0   1       -73.
   6         0.  0.0000     0.0     0.0   1       -73.
   7       187. -0.9606    92.3   101.0   1       -73.
   8       213.  0.9636    92.8   104.0   9        99.
   9       354.  0.9972    99.4   102.3  10       329.
  10       422.  0.8269    68.4   102.8   2       -66.
                -0.5458    29.8          12       356.
  11       444. -0.9749    95.0   100.1  13       404.
  12       461. -0.9981    99.6   101.1  11       352.
  13       520.  0.9719    94.5   102.6  14       468.
  14       632.  0.5214    27.2   100.2  12       356.
                 0.8308    69.0          15       552.
  15       647.  0.9878    97.6   102.5  17       577.
  16       763. -0.9863    97.3   100.1  19       745.
  17       764.  0.9878    97.6   100.4  18       691.
  18       771. -0.4747    22.5    98.9   2       -66.
                -0.6293    39.6          12       356.
                 0.5280    27.9          15       552.
  19       784. -0.9397    88.3    99.0  16       559.
                 0.3330    11.1          20       787.
  20       862.  0.9890    97.8   101.5  22       827.
  21       907.  0.3190    10.2   100.5  16       559.
                 0.9475    89.8          20       787.
  22       909. -0.9508    90.4   100.7  21       794.
  23       922.  0.9905    98.1   100.2  23       867.
  24      1085. -0.9908    98.2    99.9  24      1029.
  25      1093. -0.9884    97.7    99.9  25      1050.
  26      1175.  0.9879    97.6   100.4  26      1114.
  27      1263. -0.9932    98.6   100.0  27      1231.
  28      1337. -0.8990    80.8   100.0  29      1299.
                -0.4141    17.2          30      1327.
  29      1358. -0.9907    98.1   100.2  28      1299.
  30      1377.  0.4231    17.9   100.8  29      1299.
                -0.9003    81.0          30      1327.
  31      1473. -0.9983    99.7   100.4  31      1454.
  32      1533.  0.9867    97.4   100.2  32      1550.
  33      3222. -0.7745    60.0   100.0  33      3213.
                 0.6324    40.0          36      3244.
  34      3222. -0.7939    63.0   100.0  34      3214.
                 0.6078    36.9          35      3243.
  35      3234. -0.6079    37.0   100.0  34      3214.
                -0.7939    63.0          35      3243.
  36      3234.  0.6324    40.0   100.0  33      3213.
                 0.7745    60.0          36      3244.
 nber times 1st assigned=           1           5
 nber times 1st assigned=           2           0
 nber times 1st assigned=           3           0
 nber times 1st assigned=           4           0
 nber times 1st assigned=           5           0
 nber times 1st assigned=           6           0
 nber times 1st assigned=           7           0
 nber times 1st assigned=           8           0
 nber times 1st assigned=           9           0
 nber times 1st assigned=          11           0
 nber times 1st assigned=          12           0
 nber times 1st assigned=          13           0
 nber times 1st assigned=          14           0
 nber times 1st assigned=          15           0
 nber times 1st assigned=          16           0
 nber times 1st assigned=          17           0
 nber times 1st assigned=          18           0
 nber times 1st assigned=          19           0
 nber times 1st assigned=          20           0
 nber times 1st assigned=          21           0
 nber times 1st assigned=          22           0
 nber times 1st assigned=          23           0
 nber times 1st assigned=          24           0
 nber times 1st assigned=          25           0
 nber times 1st assigned=          26           0
 nber times 1st assigned=          27           0
 nber times 1st assigned=          28           0
 nber times 1st assigned=          29           0
 nber times 1st assigned=          30           0
 nber times 1st assigned=          31           0
 nber times 1st assigned=          32           0
 nber times 1st assigned=          33           0
 nber times 1st assigned=          34           0
 nber times 1st assigned=          35           0
 nber times 1st assigned=          36           0
 Dushinsky matrix written to .out file
 modes represented=   30.1971998175648     

 Dushinsky matrix, ncs 1 in terms of ncs 2

   mode   freq    coeff     %      %tot     of    at

   1       -73. -0.9606    92.3   100.6   7       187.
   2       -66.  0.8269    68.4    99.5  10       422.
                -0.4747    22.5          18       771.
   9        99.  0.9636    92.8   104.3   8       213.
  10       329.  0.9972    99.4   102.5   9       354.
  11       352. -0.9981    99.6   101.4  12       461.
  12       356. -0.5458    29.8   102.0  10       422.
                 0.5214    27.2          14       632.
                -0.6293    39.6          18       771.
  13       404. -0.9749    95.0   100.8  11       444.
  14       468.  0.9719    94.5   102.3  13       520.
  15       552.  0.8308    69.0    99.7  14       632.
                 0.5280    27.9          18       771.
  16       559. -0.9397    88.3    98.1  19       784.
                 0.3190    10.2          21       907.
  17       577.  0.9878    97.6   102.3  15       647.
  18       691.  0.9878    97.6   100.2  17       764.
  19       745. -0.9863    97.3    99.9  16       763.
  20       787.  0.3330    11.1   101.2  19       784.
                 0.9475    89.8          21       907.
  21       794. -0.9508    90.4   101.3  22       909.
  22       827.  0.9890    97.8   101.6  20       862.
  23       867.  0.9905    98.1   100.3  23       922.
  24      1029. -0.9908    98.2   100.0  24      1085.
  25      1050. -0.9884    97.7   100.1  25      1093.
  26      1114.  0.9879    97.6   100.4  26      1175.
  27      1231. -0.9932    98.6    99.9  27      1263.
  28      1299. -0.9907    98.1   100.3  29      1358.
  29      1299. -0.8990    80.8   100.1  28      1337.
                 0.4231    17.9          30      1377.
  30      1327. -0.4141    17.2   100.7  28      1337.
                -0.9003    81.0          30      1377.
  31      1454. -0.9983    99.7   100.4  31      1473.
  32      1550.  0.9867    97.4   100.0  32      1533.
  33      3213. -0.7745    60.0   100.0  33      3222.
                 0.6324    40.0          36      3234.
  34      3214. -0.7939    63.0   100.0  34      3222.
                -0.6079    37.0          35      3234.
  35      3243.  0.6078    36.9   100.0  34      3222.
                -0.7939    63.0          35      3234.
  36      3244.  0.6324    40.0   100.0  33      3222.
                 0.7745    60.0          36      3234.
 nber times 1st assigned=           1           0
 nber times 1st assigned=           2           0
 nber times 1st assigned=           3           0
 nber times 1st assigned=           4           0
 nber times 1st assigned=           5           0
 nber times 1st assigned=           6           0
 nber times 1st assigned=           7           0
 nber times 1st assigned=           8           0
 nber times 1st assigned=           9           0
 nber times 1st assigned=          10           0
 nber times 1st assigned=          11           0
 nber times 1st assigned=          12           0
 nber times 1st assigned=          13           0
 nber times 1st assigned=          14           0
 nber times 1st assigned=          15           0
 nber times 1st assigned=          16           0
 nber times 1st assigned=          17           0
 nber times 1st assigned=          18           0
 nber times 1st assigned=          19           0
 nber times 1st assigned=          20           0
 nber times 1st assigned=          21           0
 nber times 1st assigned=          22           0
 nber times 1st assigned=          23           0
 nber times 1st assigned=          24           0
 nber times 1st assigned=          25           0
 nber times 1st assigned=          26           0
 nber times 1st assigned=          27           0
 nber times 1st assigned=          28           0
 nber times 1st assigned=          29           0
 nber times 1st assigned=          30           0
 nber times 1st assigned=          31           0
 nber times 1st assigned=          32           0
 nber times 1st assigned=          33           0
 nber times 1st assigned=          34           0
 nber times 1st assigned=          35           0
 nber times 1st assigned=          36           0
 modes represented=   30.1971998175648     
 p1=
    0.    0.   -0.    0.    0.   -0.   -0.   -0.   -0.    0.   -0.    0.   11.    5.   -0.    0.    0.   -0.    7.   -0.
   -0.    4.   -0.    0.    1.   -1.   -0.    0.    0.    0.    0.   -2.   -0.    0.   -0.   -0.
 p2=
    0.    0.    0.   -0.    0.   -0.    0.   -0.   -0.   -0.   12.   -0.   -2.   -0.   -0.    7.    0.    0.   -0.   -4.
   -0.   -0.    0.   -0.    1.    0.   -0.    0.   -0.    0.    0.    2.    0.    0.   -0.   -0.

 Displacement: in terms of nc of 1 THEN of nc of 2

   1     freq=   -73. Q=  0.000 lam=    -0.0     freq=    -0. Q=  0.000 lam=    -0.0
   2     freq=   -66. Q=  0.000 lam=    -0.0     freq=    -0. Q=  0.000 lam=    -0.0
   3     freq=    -0. Q= -0.000 lam=    -0.0     freq=    -0. Q= -0.000 lam=    -0.0
   4     freq=    -0. Q=  0.000 lam=    -0.0     freq=     0. Q=  0.000 lam=     0.0
   5     freq=    -0. Q=  0.000 lam=    -0.0     freq=     0. Q=  0.000 lam=     0.0
   6     freq=     0. Q= -0.000 lam=     0.0     freq=     0. Q= -0.000 lam=     0.0
   7     freq=     0. Q= -0.000 lam=     0.0     freq=   187. Q= -0.000 lam=     0.0
   8     freq=     0. Q= -0.000 lam=     0.0     freq=   213. Q= -0.000 lam=     0.0
   9     freq=    99. Q= -0.000 lam=     0.0     freq=   354. Q= -0.000 lam=     0.0
  10     freq=   329. Q=  0.000 lam=     0.0     freq=   422. Q=  0.000 lam=     0.0
  11     freq=   352. Q= -0.000 lam=     0.0     freq=   444. Q= -0.992 lam=   218.6
  12     freq=   356. Q=  0.000 lam=     0.0     freq=   461. Q=  0.000 lam=     0.0
  13     freq=   404. Q=  0.886 lam=   158.6     freq=   520. Q=  0.175 lam=     8.0
  14     freq=   468. Q=  0.442 lam=    45.6     freq=   632. Q=  0.000 lam=     0.0
  15     freq=   552. Q= -0.000 lam=     0.0     freq=   647. Q= -0.000 lam=     0.0
  16     freq=   559. Q=  0.000 lam=     0.0     freq=   763. Q=  0.765 lam=   223.1
  17     freq=   577. Q=  0.000 lam=     0.0     freq=   764. Q=  0.002 lam=     0.0
  18     freq=   691. Q= -0.000 lam=     0.0     freq=   771. Q= -0.000 lam=     0.0
  19     freq=   745. Q=  0.741 lam=   204.7     freq=   784. Q=  0.000 lam=     0.0
  20     freq=   787. Q= -0.000 lam=     0.0     freq=   862. Q= -0.479 lam=    98.9
  21     freq=   794. Q= -0.000 lam=     0.0     freq=   907. Q= -0.000 lam=     0.0
  22     freq=   827. Q=  0.415 lam=    71.2     freq=   909. Q=  0.000 lam=     0.0
  23     freq=   867. Q= -0.000 lam=     0.0     freq=   922. Q= -0.000 lam=     0.0
  24     freq=  1029. Q=  0.000 lam=     0.0     freq=  1085. Q=  0.000 lam=     0.0
  25     freq=  1050. Q=  0.099 lam=     5.1     freq=  1093. Q=  0.143 lam=    11.1
  26     freq=  1114. Q= -0.099 lam=     5.4     freq=  1175. Q= -0.023 lam=     0.3
  27     freq=  1231. Q= -0.000 lam=     0.0     freq=  1263. Q= -0.000 lam=     0.0
  28     freq=  1299. Q=  0.000 lam=     0.0     freq=  1337. Q=  0.025 lam=     0.4
  29     freq=  1299. Q=  0.014 lam=     0.1     freq=  1358. Q=  0.000 lam=     0.0
  30     freq=  1327. Q=  0.018 lam=     0.2     freq=  1377. Q=  0.019 lam=     0.2
  31     freq=  1454. Q=  0.000 lam=     0.0     freq=  1473. Q=  0.000 lam=     0.0
  32     freq=  1550. Q= -0.325 lam=    82.1     freq=  1533. Q= -0.362 lam=   100.7
  33     freq=  3213. Q= -0.000 lam=     0.0     freq=  3222. Q= -0.000 lam=     0.0
  34     freq=  3214. Q=  0.008 lam=     0.1     freq=  3222. Q=  0.050 lam=     4.1
  35     freq=  3243. Q= -0.064 lam=     6.7     freq=  3234. Q= -0.049 lam=     3.9
  36     freq=  3244. Q= -0.000 lam=     0.0     freq=  3234. Q= -0.000 lam=     0.0

 total reorg energy (cm**-1, kcal/mol)=      580.      669.      1.66      1.91
 Nber of molecules processed=           2
