 Enter ifcurve (0=recti, 1=orth curvi, 2=apprx curvi, -1 = skip
 And atom ordering flag, 0= never changes, 1= use the first order thenceforth,
  2= deduce it (does read on fail), 3= always read it
 Reading file: 
 ./phenothiazine-pyrene_0_C0S0.log                                              
                                          
  Entering Gaussian System, Link 0=g16                                          
  
 Gaussian format, type: g94, g98, g03= F F F
  #P Geom=AllCheck Guess=TCheck SCRF=Check Test GenChk RB3LYP/6-311G(d,p    
 energy type= B3LYP   
 Original G94 input coords:
  6 -4.142573  3.324773 -1.605477
  6 -2.791289  3.396844 -1.287883
  6 -2.112682  2.276101 -0.815440
  6 -2.765130  1.043293 -0.675750
  6 -4.122897  0.973277 -1.036580
  6 -4.805457  2.108151 -1.466869
 16 -4.949376 -0.603616 -1.074410
  6 -4.126370 -1.379128  0.301232
  6 -4.811898 -2.327805  1.055579
  6 -4.151782 -3.070343  2.031134
  6 -2.800340 -2.836966  2.257282
  6 -2.118767 -1.859204  1.536703
  6 -2.768334 -1.107706  0.547596
  7 -2.088808 -0.109849 -0.198796
  6 -0.649907 -0.082229 -0.145985
  6  0.063136 -0.676123 -1.182834
  6  1.464836 -0.677681 -1.181396
  6  2.231760 -1.281205 -2.235199
  6  3.590045 -1.270419 -2.213159
  6  4.316775 -0.656290 -1.137282
  6  5.718021 -0.632483 -1.092781
  6  6.385639 -0.027345 -0.032795
  6  5.675568  0.567286  1.005790
  6  4.273791  0.569066  1.006059
  6  3.503857  1.171622  2.058639
  6  2.145775  1.161507  2.038037
  6  1.421157  0.546527  0.960258
  6  0.020910  0.523691  0.916683
  6  2.157872 -0.060241 -0.099529
  6  3.581924 -0.049129 -0.076791
  1 -4.676925  4.197975 -1.959975
  1 -2.252912  4.331491 -1.395546
  1 -1.064072  2.358087 -0.567181
  1 -5.857560  2.024692 -1.714355
  1 -5.864115 -2.495542  0.856016
  1 -4.688424 -3.820296  2.599696
  1 -2.264186 -3.408405  3.006288
  1 -1.070067 -1.689893  1.735505
  1 -0.482231 -1.140283 -1.996396
  1  1.699564 -1.749682 -3.056037
  1  4.153713 -1.731081 -3.017591
  1  6.280644 -1.093326 -1.897617
  1  7.469617 -0.018848 -0.015756
  1  6.205472  1.036659  1.827740
  1  4.034774  1.640696  2.880339
  1  1.581327  1.621773  2.842015
  1 -0.550077  0.981606  1.716818
 nber atoms=          47
  SCF Done:  E(RB3LYP) =  -1530.48494329     A.U. after    1 cycles             
  
          23          40 "  -1530.48494329"
After scan for Atom:   Atom  AN      X      Y      Z        X      Y      Z        X      Y      Z   
After scan for Atom:   Atom  AN      X      Y      Z        X      Y      Z        X      Y      Z   
After scan for Atom:   Atom  AN      X      Y      Z        X      Y      Z        X      Y      Z   
After scan for Atom:   Atom  AN      X      Y      Z        X      Y      Z        X      Y      Z   
After scan for Atom:   Atom  AN      X      Y      Z        X      Y      Z        X      Y      Z   
After scan for Atom:   Atom  AN      X      Y      Z        X      Y      Z        X      Y      Z   
After scan for Atom:   Atom  AN      X      Y      Z        X      Y      Z        X      Y      Z   
After scan for Atom:   Atom  AN      X      Y      Z        X      Y      Z        X      Y      Z   
After scan for Atom:   Atom  AN      X      Y      Z        X      Y      Z        X      Y      Z   
After scan for Atom:   Atom  AN      X      Y      Z        X      Y      Z        X      Y      Z   
After scan for Atom:   Atom  AN      X      Y      Z        X      Y      Z        X      Y      Z   
After scan for Atom:   Atom  AN      X      Y      Z        X      Y      Z        X      Y      Z   
After scan for Atom:   Atom  AN      X      Y      Z        X      Y      Z        X      Y      Z   
After scan for Atom:   Atom  AN      X      Y      Z        X      Y      Z        X      Y      Z   
After scan for Atom:   Atom  AN      X      Y      Z        X      Y      Z        X      Y      Z   
After scan for Atom:   Atom  AN      X      Y      Z        X      Y      Z        X      Y      Z   
After scan for Atom:   Atom  AN      X      Y      Z        X      Y      Z        X      Y      Z   
After scan for Atom:   Atom  AN      X      Y      Z        X      Y      Z        X      Y      Z   
After scan for Atom:   Atom  AN      X      Y      Z        X      Y      Z        X      Y      Z   
After scan for Atom:   Atom  AN      X      Y      Z        X      Y      Z        X      Y      Z   
After scan for Atom:   Atom  AN      X      Y      Z        X      Y      Z        X      Y      Z   
After scan for Atom:   Atom  AN      X      Y      Z        X      Y      Z        X      Y      Z   
After scan for Atom:   Atom  AN      X      Y      Z        X      Y      Z        X      Y      Z   
After scan for Atom:   Atom  AN      X      Y      Z        X      Y      Z        X      Y      Z   
After scan for Atom:   Atom  AN      X      Y      Z        X      Y      Z        X      Y      Z   
After scan for Atom:   Atom  AN      X      Y      Z        X      Y      Z        X      Y      Z   
After scan for Atom:   Atom  AN      X      Y      Z        X      Y      Z        X      Y      Z   
After scan for Atom:   Atom  AN      X      Y      Z        X      Y      Z        X      Y      Z   
After scan for Atom:   Atom  AN      X      Y      Z        X      Y      Z        X      Y      Z   
After scan for Atom:   Atom  AN      X      Y      Z        X      Y      Z        X      Y      Z   
After scan for Atom:   Atom  AN      X      Y      Z        X      Y      Z        X      Y      Z   
After scan for Atom:   Atom  AN      X      Y      Z        X      Y      Z        X      Y      Z   
After scan for Atom:   Atom  AN      X      Y      Z        X      Y      Z        X      Y      Z   
After scan for Atom:   Atom  AN      X      Y      Z        X      Y      Z        X      Y      Z   
After scan for Atom:   Atom  AN      X      Y      Z        X      Y      Z        X      Y      Z   
After scan for Atom:   Atom  AN      X      Y      Z        X      Y      Z        X      Y      Z   
After scan for Atom:   Atom  AN      X      Y      Z        X      Y      Z        X      Y      Z   
After scan for Atom:   Atom  AN      X      Y      Z        X      Y      Z        X      Y      Z   
After scan for Atom:   Atom  AN      X      Y      Z        X      Y      Z        X      Y      Z   
After scan for Atom:   Atom  AN      X      Y      Z        X      Y      Z        X      Y      Z   
After scan for Atom:   Atom  AN      X      Y      Z        X      Y      Z        X      Y      Z   
After scan for Atom:   Atom  AN      X      Y      Z        X      Y      Z        X      Y      Z   
After scan for Atom:   Atom  AN      X      Y      Z        X      Y      Z        X      Y      Z   
After scan for Atom:   Atom  AN      X      Y      Z        X      Y      Z        X      Y      Z   
After scan for Atom:   Atom  AN      X      Y      Z        X      Y      Z        X      Y      Z   
 g94    frequencies=
     0.0    0.0    0.0    0.0    0.0    0.0   21.2   28.2   31.5   53.9
    91.3  112.0  138.6  155.5  158.8  205.2  207.2  225.3  236.8  257.8
   299.7  329.9  355.0  358.0  407.0  409.4  429.5  435.6  436.2  451.4
   465.3  477.9  509.3  514.3  514.5  534.7  538.4  542.4  545.9  554.3
   583.2  600.7  609.5  667.3  667.4  688.5  701.1  711.2  726.4  731.7
   741.6  758.2  759.5  760.4  771.0  777.0  817.2  827.6  828.3  843.8
   851.7  863.2  865.2  894.6  907.3  920.8  941.3  941.3  949.9  977.9
   978.0  979.8  984.2  992.3  997.5 1015.5 1021.4 1061.2 1065.4 1079.6
  1092.4 1104.5 1134.0 1147.4 1151.9 1164.4 1172.3 1181.5 1186.0 1189.4
  1203.6 1221.3 1252.2 1258.7 1261.8 1266.3 1293.8 1315.1 1325.6 1328.8
  1338.0 1340.3 1351.5 1397.6 1404.7 1431.8 1449.0 1465.4 1466.8 1475.5
  1486.2 1493.1 1493.9 1519.4 1528.7 1599.7 1603.6 1614.6 1619.3 1621.7
  1632.9 1641.4 1643.5 1670.6 3158.7 3159.8 3161.4 3167.6 3167.8 3168.9
  3175.9 3176.2 3176.3 3178.3 3178.5 3185.1 3185.4 3191.7 3191.8 3212.2
  3212.6
 g94    symmetries=
                                                 A      A      A      A
       A      A      A      A      A      A      A      A      A      A
       A      A      A      A      A      A      A      A      A      A
       A      A      A      A      A      A      A      A      A      A
       A      A      A      A      A      A      A      A      A      A
       A      A      A      A      A      A      A      A      A      A
       A      A      A      A      A      A      A      A      A      A
       A      A      A      A      A      A      A      A      A      A
       A      A      A      A      A      A      A      A      A      A
       A      A      A      A      A      A      A      A      A      A
       A      A      A      A      A      A      A      A      A      A
       A      A      A      A      A      A      A      A      A      A
       A      A      A      A      A      A      A      A      A      A
       A      A      A      A      A      A      A      A      A      A
       A
 atomic masses:
 12.0000 12.0000 12.0000 12.0000 12.0000 12.0000 31.9721 12.0000 12.0000 12.0000
 12.0000 12.0000 12.0000 14.0031 12.0000 12.0000 12.0000 12.0000 12.0000 12.0000
 12.0000 12.0000 12.0000 12.0000 12.0000 12.0000 12.0000 12.0000 12.0000 12.0000
  1.0078  1.0078  1.0078  1.0078  1.0078  1.0078  1.0078  1.0078  1.0078  1.0078
  1.0078  1.0078  1.0078  1.0078  1.0078  1.0078  1.0078
 looking for force constants in 
 ./phenothiazine-pyrene_0_C0S0.fchk                                             
  
 Cartesian Force Constants                  R   N=       10011                  
  
 n3=         141       10011
 g94-fc frequencies=
    -0.0   -0.0    0.0    1.4    2.3    5.2   21.2   28.2   31.5   53.9
    91.3  112.0  138.6  155.5  158.9  205.2  207.2  225.3  236.8  257.8
   299.7  329.9  355.0  358.0  407.0  409.4  429.5  435.6  436.2  451.4
   465.3  477.9  509.3  514.3  514.5  534.8  538.4  542.4  545.9  554.3
   583.2  600.8  609.5  667.3  667.5  688.5  701.1  711.2  726.4  731.8
   741.6  758.2  759.5  760.4  771.0  777.0  817.2  827.6  828.4  843.8
   851.7  863.2  865.2  894.6  907.3  920.8  941.3  941.4  949.9  977.9
   978.0  979.8  984.3  992.3  997.5 1015.5 1021.4 1061.2 1065.5 1079.6
  1092.4 1104.5 1134.0 1147.4 1151.9 1164.4 1172.3 1181.6 1186.0 1189.4
  1203.7 1221.4 1252.2 1258.7 1261.9 1266.4 1293.9 1315.1 1325.7 1328.9
  1338.0 1340.4 1351.5 1397.6 1404.7 1431.8 1449.0 1465.5 1466.8 1475.6
  1486.3 1493.1 1494.0 1519.5 1528.7 1599.8 1603.6 1614.6 1619.4 1621.7
  1632.9 1641.4 1643.5 1670.6 3158.8 3159.9 3161.5 3167.7 3167.8 3169.0
  3175.9 3176.3 3176.4 3178.3 3178.5 3185.1 3185.4 3191.7 3191.9 3212.3
  3212.7
 at 99999: n3=         141
 symm operator            1 :  F  nop=           0
 symm operator            2 :  F  nop=           0
 symm operator            3 :  F  nop=           0
 symm operator            4 :  F  nop=           0
 symm operator            5 :  F  nop=           0
 symm operator            6 :  F  nop=           0
 symm operator            7 :  F  nop=           0
 The point group of the molecule is  C1
 Symmetry rotation matrix:
   1.00000   0.00000   0.00000
   0.00000   1.00000   0.00000
   0.00000   0.00000   1.00000

 Projecting out zero-frequency components
 generating redundant internal coords
         300        3600          47
 search for int coords
   1 str   2   1   1.390
   2 str   3   2   1.393
   3 str   4   3   1.402
   4 str   5   4   1.407
   5 str   6   1   1.392
   6 str   6   5   1.392
   7 str   7   5   1.781
   8 str   8   7   1.781
   9 str   9   8   1.392
  10 str  10   9   1.392
  11 str  11  10   1.390
  12 str  12  11   1.393
  13 str  13   8   1.407
  14 str  13  12   1.402
  15 str  14   4   1.419
  16 str  14  13   1.419
  17 str  15  14   1.440
  18 str  16  15   1.391
  19 str  17  16   1.402
  20 str  18  17   1.436
  21 str  19  18   1.359
  22 str  20  19   1.436
  23 str  21  20   1.402
  24 str  22  21   1.391
  25 str  23  22   1.392
  26 str  24  23   1.402
  27 str  25  24   1.437
  28 str  26  25   1.358
  29 str  27  26   1.437
  30 str  28  15   1.395
  31 str  28  27   1.401
  32 str  29  17   1.425
  33 str  29  27   1.426
  34 str  30  20   1.426
  35 str  30  24   1.426
  36 str  30  29   1.424
  37 str  31   1   1.083
  38 str  32   2   1.084
  39 str  33   3   1.081
  40 str  34   6   1.084
  41 str  35   9   1.084
  42 str  36  10   1.083
  43 str  37  11   1.084
  44 str  38  12   1.081
  45 str  39  16   1.084
  46 str  40  18   1.085
  47 str  41  19   1.085
  48 str  42  21   1.085
  49 str  43  22   1.084
  50 str  44  23   1.085
  51 str  45  25   1.085
  52 str  46  26   1.085
  53 str  47  28   1.084
 nber stretches=          53
  54 ben   1   2   3
  55 prop tor   1   2   3   4
  56 prop tor   1   2   3  33
  57 ben   1   2  32
  58 ben   1   6   5
  59 ben   1   6  34
  60 ben   2   1   6
  61 prop tor   2   1   6   5
  62 prop tor   2   1   6  34
  63 ben   2   1  31
  64 ben   2   3   4
  65 prop tor   2   3   4   5
  66 prop tor   2   3   4  14
  67 ben   2   3  33
  68 ben   3   2  32
  69 ben   3   4   5
  70 prop tor   3   4   5   6
  71 prop tor   3   4   5   7
  72 ben   3   4  14
  73 prop tor   3   4  14  13
  74 prop tor   3   4  14  15
  75 ben   4   3  33
  76 ben   4   5   6
  77 prop tor   4   5   6   1
  78 prop tor   4   5   6  34
  79 ben   4   5   7
  80 prop tor   4   5   7   8
  81 ben   4  14  13
  82 ben   4  14  15
  83 prop tor   4  14  15  16
  84 prop tor   4  14  15  28
  85 ben   5   4  14
  86 prop tor   5   4  14  13
  87 prop tor   5   4  14  15
  88 ben   5   6  34
  89 ben   5   7   8
  90 prop tor   5   7   8   9
  91 prop tor   5   7   8  13
  92 prop tor   6   1   2   3
  93 prop tor   6   1   2  32
  94 ben   6   1  31
  95 ben   6   5   7
  96 prop tor   6   5   7   8
  97 prop tor   7   5   6   1
  98 prop tor   7   5   6  34
  99 ben   7   8   9
 100 prop tor   7   8   9  10
 101 prop tor   7   8   9  35
 102 ben   7   8  13
 103 prop tor   7   8  13  12
 104 prop tor   7   8  13  14
 105 ben   8   9  10
 106 prop tor   8   9  10  11
 107 prop tor   8   9  10  36
 108 ben   8   9  35
 109 ben   8  13  12
 110 ben   8  13  14
 111 prop tor   8  13  14   4
 112 prop tor   8  13  14  15
 113 ben   9   8  13
 114 prop tor   9   8  13  12
 115 prop tor   9   8  13  14
 116 ben   9  10  11
 117 prop tor   9  10  11  12
 118 prop tor   9  10  11  37
 119 ben   9  10  36
 120 ben  10   9  35
 121 ben  10  11  12
 122 prop tor  10  11  12  13
 123 prop tor  10  11  12  38
 124 ben  10  11  37
 125 ben  11  10  36
 126 ben  11  12  13
 127 prop tor  11  12  13   8
 128 prop tor  11  12  13  14
 129 ben  11  12  38
 130 ben  12  11  37
 131 ben  12  13  14
 132 prop tor  12  13  14   4
 133 prop tor  12  13  14  15
 134 prop tor  13   8   9  10
 135 prop tor  13   8   9  35
 136 ben  13  12  38
 137 ben  13  14  15
 138 prop tor  13  14  15  16
 139 prop tor  13  14  15  28
 140 prop tor  14   4   5   6
 141 prop tor  14   4   5   7
 142 ben  14  15  16
 143 prop tor  14  15  16  17
 144 prop tor  14  15  16  39
 145 ben  14  15  28
 146 prop tor  14  15  28  27
 147 prop tor  14  15  28  47
 148 ben  15  16  17
 149 prop tor  15  16  17  18
 150 prop tor  15  16  17  29
 151 ben  15  16  39
 152 ben  15  28  27
 153 ben  15  28  47
 154 ben  16  15  28
 155 prop tor  16  15  28  27
 156 prop tor  16  15  28  47
 157 ben  16  17  18
 158 prop tor  16  17  18  19
 159 prop tor  16  17  18  40
 160 ben  16  17  29
 161 prop tor  16  17  29  27
 162 prop tor  16  17  29  30
 163 ben  17  16  39
 164 ben  17  18  19
 165 prop tor  17  18  19  20
 166 prop tor  17  18  19  41
 167 ben  17  18  40
 168 ben  17  29  27
 169 ben  17  29  30
 170 prop tor  17  29  30  20
 171 prop tor  17  29  30  24
 172 ben  18  17  29
 173 prop tor  18  17  29  27
 174 prop tor  18  17  29  30
 175 ben  18  19  20
 176 prop tor  18  19  20  21
 177 prop tor  18  19  20  30
 178 ben  18  19  41
 179 ben  19  18  40
 180 ben  19  20  21
 181 prop tor  19  20  21  22
 182 prop tor  19  20  21  42
 183 ben  19  20  30
 184 prop tor  19  20  30  24
 185 prop tor  19  20  30  29
 186 ben  20  19  41
 187 ben  20  21  22
 188 prop tor  20  21  22  23
 189 prop tor  20  21  22  43
 190 ben  20  21  42
 191 ben  20  30  24
 192 ben  20  30  29
 193 ben  21  20  30
 194 prop tor  21  20  30  24
 195 prop tor  21  20  30  29
 196 ben  21  22  23
 197 prop tor  21  22  23  24
 198 prop tor  21  22  23  44
 199 ben  21  22  43
 200 ben  22  21  42
 201 ben  22  23  24
 202 prop tor  22  23  24  25
 203 prop tor  22  23  24  30
 204 ben  22  23  44
 205 ben  23  22  43
 206 ben  23  24  25
 207 prop tor  23  24  25  26
 208 prop tor  23  24  25  45
 209 ben  23  24  30
 210 prop tor  23  24  30  20
 211 prop tor  23  24  30  29
 212 ben  24  23  44
 213 ben  24  25  26
 214 prop tor  24  25  26  27
 215 prop tor  24  25  26  46
 216 ben  24  25  45
 217 ben  24  30  29
 218 ben  25  24  30
 219 prop tor  25  24  30  20
 220 prop tor  25  24  30  29
 221 ben  25  26  27
 222 prop tor  25  26  27  28
 223 prop tor  25  26  27  29
 224 ben  25  26  46
 225 ben  26  25  45
 226 ben  26  27  28
 227 prop tor  26  27  28  15
 228 prop tor  26  27  28  47
 229 ben  26  27  29
 230 prop tor  26  27  29  17
 231 prop tor  26  27  29  30
 232 ben  27  26  46
 233 ben  27  28  47
 234 ben  27  29  30
 235 prop tor  27  29  30  20
 236 prop tor  27  29  30  24
 237 prop tor  28  15  16  17
 238 prop tor  28  15  16  39
 239 ben  28  27  29
 240 prop tor  28  27  29  17
 241 prop tor  28  27  29  30
 242 prop tor  29  17  18  19
 243 prop tor  29  17  18  40
 244 prop tor  29  27  28  15
 245 prop tor  29  27  28  47
 246 prop tor  30  20  21  22
 247 prop tor  30  20  21  42
 248 prop tor  30  24  25  26
 249 prop tor  30  24  25  45
 250 prop tor  31   1   2   3
 251 prop tor  31   1   2  32
 252 prop tor  31   1   6   5
 253 prop tor  31   1   6  34
 254 prop tor  32   2   3   4
 255 prop tor  32   2   3  33
 256 prop tor  33   3   4   5
 257 prop tor  33   3   4  14
 258 prop tor  35   9  10  11
 259 prop tor  35   9  10  36
 260 prop tor  36  10  11  12
 261 prop tor  36  10  11  37
 262 prop tor  37  11  12  13
 263 prop tor  37  11  12  38
 264 prop tor  38  12  13   8
 265 prop tor  38  12  13  14
 266 prop tor  39  16  17  18
 267 prop tor  39  16  17  29
 268 prop tor  40  18  19  20
 269 prop tor  40  18  19  41
 270 prop tor  41  19  20  21
 271 prop tor  41  19  20  30
 272 prop tor  42  21  22  23
 273 prop tor  42  21  22  43
 274 prop tor  43  22  23  24
 275 prop tor  43  22  23  44
 276 prop tor  44  23  24  25
 277 prop tor  44  23  24  30
 278 prop tor  45  25  26  27
 279 prop tor  45  25  26  46
 280 prop tor  46  26  27  28
 281 prop tor  46  26  27  29
 nber bend=              88
 nber lin bend=           0
 nber prop tor=         140
 nber impr tor=           0
 nber tot redund int=         281
 Eigenvalues of G in red int coords
    Gval -0.00000000 -0.00000000 -0.00000000 -0.00000000 -0.00000000 -0.00000000 -0.00000000 -0.00000000
    Gval -0.00000000 -0.00000000 -0.00000000 -0.00000000 -0.00000000 -0.00000000 -0.00000000 -0.00000000
    Gval -0.00000000 -0.00000000 -0.00000000 -0.00000000 -0.00000000 -0.00000000 -0.00000000 -0.00000000
    Gval -0.00000000 -0.00000000 -0.00000000 -0.00000000 -0.00000000 -0.00000000 -0.00000000 -0.00000000
    Gval -0.00000000 -0.00000000 -0.00000000 -0.00000000 -0.00000000 -0.00000000 -0.00000000 -0.00000000
    Gval -0.00000000 -0.00000000 -0.00000000 -0.00000000 -0.00000000 -0.00000000 -0.00000000 -0.00000000
    Gval -0.00000000 -0.00000000 -0.00000000 -0.00000000 -0.00000000 -0.00000000 -0.00000000 -0.00000000
    Gval -0.00000000 -0.00000000 -0.00000000 -0.00000000 -0.00000000 -0.00000000 -0.00000000 -0.00000000
    Gval -0.00000000 -0.00000000 -0.00000000 -0.00000000 -0.00000000 -0.00000000 -0.00000000 -0.00000000
    Gval -0.00000000 -0.00000000 -0.00000000  0.00000000  0.00000000  0.00000000  0.00000000  0.00000000
    Gval  0.00000000  0.00000000  0.00000000  0.00000000  0.00000000  0.00000000  0.00000000  0.00000000
    Gval  0.00000000  0.00000000  0.00000000  0.00000000  0.00000000  0.00000000  0.00000000  0.00000000
    Gval  0.00000000  0.00000000  0.00000000  0.00000000  0.00000000  0.00000000  0.00000000  0.00000000
    Gval  0.00000000  0.00000000  0.00000000  0.00000000  0.00000000  0.00000000  0.00000000  0.00000000
    Gval  0.00000000  0.00000000  0.00000000  0.00000000  0.00000000  0.00000000  0.00000000  0.00000000
    Gval  0.00000000  0.00000000  0.00000000  0.00000000  0.00000000  0.00000000  0.00000000  0.00000000
    Gval  0.00000000  0.00000000  0.00000000  0.00000000  0.00000000  0.00000000  0.00000000  0.00000000
    Gval  0.00000000  0.00000000  0.00000000  0.00000000  0.00000000  0.00000000  0.00000000  0.00000000
    Gval  0.00000000  0.00000000  0.00000093  0.00000155  0.00000204  0.00000443  0.00000842  0.00000912
    Gval  0.00001065  0.00001254  0.00001661  0.00002090  0.00002216  0.00002305  0.00002449  0.00002839
    Gval  0.00003072  0.00003599  0.00004248  0.00004686  0.00005157  0.00005546  0.00005628  0.00005835
    Gval  0.00006249  0.00006765  0.00006836  0.00007107  0.00007427  0.00007655  0.00007669  0.00008158
    Gval  0.00008322  0.00008566  0.00010337  0.00010602  0.00011267  0.00011635  0.00011991  0.00012235
    Gval  0.00012939  0.00013957  0.00014111  0.00014457  0.00015714  0.00016405  0.00017392  0.00018395
    Gval  0.00018952  0.00019369  0.00020324  0.00023931  0.00025159  0.00025955  0.00026207  0.00026849
    Gval  0.00027307  0.00031814  0.00032377  0.00034062  0.00034476  0.00037270  0.00037849  0.00039316
    Gval  0.00040222  0.00040407  0.00041959  0.00043492  0.00044622  0.00046153  0.00048740  0.00056554
    Gval  0.00059322  0.00059327  0.00059387  0.00059691  0.00059718  0.00059732  0.00059763  0.00059862
    Gval  0.00060805  0.00061802  0.00062026  0.00062389  0.00062835  0.00064332  0.00064505  0.00065519
    Gval  0.00065636  0.00065849  0.00069300  0.00075780  0.00078521  0.00081456  0.00092327  0.00097713
    Gval  0.00105516  0.00105526  0.00106502  0.00108494  0.00108529  0.00110753  0.00112283  0.00112289
    Gval  0.00113842  0.00113952  0.00115443  0.00116057  0.00116167  0.00116230  0.00116368  0.00116793
    Gval  0.00117406  0.00117412  0.00132220  0.00145622  0.00170327  0.00172878  0.00175146  0.00181160
    Gval  0.00193004  0.00206549  0.00229588  0.00237984  0.00257834  0.00266277  0.00270604  0.00307253
    Gval  0.00310494  0.00316237  0.00349442  0.00350552  0.00368608  0.00372457  0.00392402  0.00403258
    Gval  0.00403362
  9.259966511050919E-007  9.259966511050919E-007
  1.551041806415116E-006  9.259966511050919E-007
  2.044551941211391E-006  9.259966511050919E-007
  4.432664929215297E-006  9.259966511050919E-007
  8.419829086850992E-006  9.259966511050919E-007
  9.117910901650130E-006  9.259966511050919E-007
  1.065244022986580E-005  9.259966511050919E-007
  1.253709881111670E-005  9.259966511050919E-007
  1.661376055744667E-005  9.259966511050919E-007
  2.089681952793576E-005  9.259966511050919E-007
  2.215703749332859E-005  9.259966511050919E-007
  2.305389992058529E-005  9.259966511050919E-007
  2.449003092147103E-005  9.259966511050919E-007
  2.839262504529856E-005  9.259966511050919E-007
  3.071739981976520E-005  9.259966511050919E-007
  3.598564525723657E-005  9.259966511050919E-007
  4.248057879668706E-005  9.259966511050919E-007
  4.686060120257285E-005  9.259966511050919E-007
  5.157047366661876E-005  9.259966511050919E-007
  5.546471591591701E-005  9.259966511050919E-007
  5.628273078832380E-005  9.259966511050919E-007
  5.834894483227027E-005  9.259966511050919E-007
  6.249304938113342E-005  9.259966511050919E-007
  6.764722602051360E-005  9.259966511050919E-007
  6.836162232531811E-005  9.259966511050919E-007
  7.107379547762717E-005  9.259966511050919E-007
  7.427460296364672E-005  9.259966511050919E-007
  7.655217493507865E-005  9.259966511050919E-007
  7.669343359352940E-005  9.259966511050919E-007
  8.158086503591906E-005  9.259966511050919E-007
  8.321534357521827E-005  9.259966511050919E-007
  8.566019118986706E-005  9.259966511050919E-007
  1.033705139399153E-004  9.259966511050919E-007
  1.060193739801329E-004  9.259966511050919E-007
  1.126656897867915E-004  9.259966511050919E-007
  1.163483823493368E-004  9.259966511050919E-007
  1.199120074660473E-004  9.259966511050919E-007
  1.223498357519876E-004  9.259966511050919E-007
  1.293903947378704E-004  9.259966511050919E-007
  1.395747411495511E-004  9.259966511050919E-007
  1.411066577620652E-004  9.259966511050919E-007
  1.445723585387424E-004  9.259966511050919E-007
  1.571441230010362E-004  9.259966511050919E-007
  1.640536666474882E-004  9.259966511050919E-007
  1.739164724548684E-004  9.259966511050919E-007
  1.839465723690297E-004  9.259966511050919E-007
  1.895165206889117E-004  9.259966511050919E-007
  1.936916460491309E-004  9.259966511050919E-007
  2.032372878552909E-004  9.259966511050919E-007
  2.393083838015007E-004  9.259966511050919E-007
  2.515900517267257E-004  9.259966511050919E-007
  2.595454404728590E-004  9.259966511050919E-007
  2.620742243699898E-004  9.259966511050919E-007
  2.684878738342547E-004  9.259966511050919E-007
  2.730678785672036E-004  9.259966511050919E-007
  3.181356138686251E-004  9.259966511050919E-007
  3.237652716149362E-004  9.259966511050919E-007
  3.406173124482555E-004  9.259966511050919E-007
  3.447569943920989E-004  9.259966511050919E-007
  3.727006701975708E-004  9.259966511050919E-007
  3.784869544276426E-004  9.259966511050919E-007
  3.931584763158760E-004  9.259966511050919E-007
  4.022231454730437E-004  9.259966511050919E-007
  4.040664839358859E-004  9.259966511050919E-007
  4.195853328951928E-004  9.259966511050919E-007
  4.349169292626186E-004  9.259966511050919E-007
  4.462166544921142E-004  9.259966511050919E-007
  4.615300941990595E-004  9.259966511050919E-007
  4.874044795765143E-004  9.259966511050919E-007
  5.655414590861216E-004  9.259966511050919E-007
  5.932188860853710E-004  9.259966511050919E-007
  5.932744922693108E-004  9.259966511050919E-007
  5.938740428855843E-004  9.259966511050919E-007
  5.969073811333927E-004  9.259966511050919E-007
  5.971800907639311E-004  9.259966511050919E-007
  5.973249556018283E-004  9.259966511050919E-007
  5.976341165196365E-004  9.259966511050919E-007
  5.986178225996784E-004  9.259966511050919E-007
  6.080520482331498E-004  9.259966511050919E-007
  6.180247137385066E-004  9.259966511050919E-007
  6.202594630031936E-004  9.259966511050919E-007
  6.238852370947985E-004  9.259966511050919E-007
  6.283462916128692E-004  9.259966511050919E-007
  6.433236685104006E-004  9.259966511050919E-007
  6.450459658104647E-004  9.259966511050919E-007
  6.551949973148799E-004  9.259966511050919E-007
  6.563550999699792E-004  9.259966511050919E-007
  6.584926346726589E-004  9.259966511050919E-007
  6.930033048800706E-004  9.259966511050919E-007
  7.577994647560968E-004  9.259966511050919E-007
  7.852112011541391E-004  9.259966511050919E-007
  8.145569209144131E-004  9.259966511050919E-007
  9.232696737792174E-004  9.259966511050919E-007
  9.771340627546135E-004  9.259966511050919E-007
  1.055157842167608E-003  9.259966511050919E-007
  1.055263167742112E-003  9.259966511050919E-007
  1.065018651553208E-003  9.259966511050919E-007
  1.084937154984208E-003  9.259966511050919E-007
  1.085294551033405E-003  9.259966511050919E-007
  1.107532190465896E-003  9.259966511050919E-007
  1.122829195123435E-003  9.259966511050919E-007
  1.122892453562612E-003  9.259966511050919E-007
  1.138418604969007E-003  9.259966511050919E-007
  1.139521506901953E-003  9.259966511050919E-007
  1.154431594244846E-003  9.259966511050919E-007
  1.160573221802290E-003  9.259966511050919E-007
  1.161673904487475E-003  9.259966511050919E-007
  1.162303487548940E-003  9.259966511050919E-007
  1.163684609225708E-003  9.259966511050919E-007
  1.167927582888617E-003  9.259966511050919E-007
  1.174062221044731E-003  9.259966511050919E-007
  1.174117295444010E-003  9.259966511050919E-007
  1.322201893494690E-003  9.259966511050919E-007
  1.456221365915887E-003  9.259966511050919E-007
  1.703271496246518E-003  9.259966511050919E-007
  1.728781267705104E-003  9.259966511050919E-007
  1.751459599037878E-003  9.259966511050919E-007
  1.811600016298240E-003  9.259966511050919E-007
  1.930043141182352E-003  9.259966511050919E-007
  2.065489738418825E-003  9.259966511050919E-007
  2.295883878941775E-003  9.259966511050919E-007
  2.379842024214753E-003  9.259966511050919E-007
  2.578340927625781E-003  9.259966511050919E-007
  2.662770829337186E-003  9.259966511050919E-007
  2.706041036707556E-003  9.259966511050919E-007
  3.072528422187009E-003  9.259966511050919E-007
  3.104938564015790E-003  9.259966511050919E-007
  3.162366906260284E-003  9.259966511050919E-007
  3.494416888241524E-003  9.259966511050919E-007
  3.505523680374083E-003  9.259966511050919E-007
  3.686077118217913E-003  9.259966511050919E-007
  3.724567487006978E-003  9.259966511050919E-007
  3.924016395199978E-003  9.259966511050919E-007
  4.032576354133249E-003  9.259966511050919E-007
  4.033624968816145E-003  9.259966511050919E-007
 cut=1d-8, nber non-redundant internal coords=         135
 Check on Eigenvals of non-red overlap matrix:
  0.00000093  0.00000155  0.00000204  0.00000443  0.00000842  0.00000912  0.00001065  0.00001254
  0.00001661  0.00002090  0.00002216  0.00002305  0.00002449  0.00002839  0.00003072  0.00003599
  0.00004248  0.00004686  0.00005157  0.00005546  0.00005628  0.00005835  0.00006249  0.00006765
  0.00006836  0.00007107  0.00007427  0.00007655  0.00007669  0.00008158  0.00008322  0.00008566
  0.00010337  0.00010602  0.00011267  0.00011635  0.00011991  0.00012235  0.00012939  0.00013957
  0.00014111  0.00014457  0.00015714  0.00016405  0.00017392  0.00018395  0.00018952  0.00019369
  0.00020324  0.00023931  0.00025159  0.00025955  0.00026207  0.00026849  0.00027307  0.00031814
  0.00032377  0.00034062  0.00034476  0.00037270  0.00037849  0.00039316  0.00040222  0.00040407
  0.00041959  0.00043492  0.00044622  0.00046153  0.00048740  0.00056554  0.00059322  0.00059327
  0.00059387  0.00059691  0.00059718  0.00059732  0.00059763  0.00059862  0.00060805  0.00061802
  0.00062026  0.00062389  0.00062835  0.00064332  0.00064505  0.00065519  0.00065636  0.00065849
  0.00069300  0.00075780  0.00078521  0.00081456  0.00092327  0.00097713  0.00105516  0.00105526
  0.00106502  0.00108494  0.00108529  0.00110753  0.00112283  0.00112289  0.00113842  0.00113952
  0.00115443  0.00116057  0.00116167  0.00116230  0.00116368  0.00116793  0.00117406  0.00117412
  0.00132220  0.00145622  0.00170327  0.00172878  0.00175146  0.00181160  0.00193004  0.00206549
  0.00229588  0.00237984  0.00257834  0.00266277  0.00270604  0.00307253  0.00310494  0.00316237
  0.00349442  0.00350552  0.00368608  0.00372457  0.00392402  0.00403258  0.00403362
 Checking for correct frequencies
 recalc frequencies=
    -0.0   -0.0   -0.0   -0.0    0.0    0.0   21.2   28.2   31.5   53.9
    91.3  112.0  138.6  155.5  158.9  205.2  207.2  225.3  236.8  257.8
   299.7  329.9  355.0  358.0  407.0  409.4  429.5  435.6  436.2  451.4
   465.3  477.9  509.3  514.3  514.5  534.8  538.4  542.4  545.9  554.3
   583.2  600.8  609.5  667.3  667.5  688.5  701.1  711.2  726.4  731.8
   741.6  758.2  759.5  760.4  771.0  777.0  817.2  827.6  828.4  843.8
   851.7  863.2  865.2  894.6  907.3  920.8  941.3  941.4  949.9  977.9
   978.0  979.8  984.3  992.3  997.5 1015.5 1021.4 1061.2 1065.5 1079.6
  1092.4 1104.5 1134.0 1147.4 1151.9 1164.4 1172.3 1181.6 1186.0 1189.4
  1203.7 1221.4 1252.2 1258.7 1261.9 1266.4 1293.9 1315.1 1325.7 1328.9
  1338.0 1340.4 1351.5 1397.6 1404.7 1431.8 1449.0 1465.5 1466.8 1475.6
  1486.3 1493.1 1494.0 1519.5 1528.7 1599.8 1603.6 1614.6 1619.4 1621.7
  1632.9 1641.4 1643.5 1670.6 3158.8 3159.9 3161.5 3167.7 3167.8 3169.0
  3175.9 3176.3 3176.4 3178.3 3178.5 3185.1 3185.4 3191.7 3191.9 3212.3
  3212.7
 recalc symmetries=
                                                                       
                                                                       
                                                                       
                                                                       
                                                                       
                                                                       
                                                                       
                                                                       
                                                                       
                                                                       
                                                                       
                                                                       
                                                                       
                                                                       
        
 recalc freqs check OK
 Zero-point lengths:
 10.0000 10.0000 10.0000 10.0000 10.0000 10.0000 53.7997 46.6811 44.1567 33.7650
 25.9425 23.4284 21.0583 19.8814 19.6698 17.3075 17.2210 16.5174 16.1090 15.4410
 14.3213 13.6494 13.1574 13.1028 12.2884 12.2525 11.9618 11.8786 11.8703 11.6683
 11.4923 11.3401 10.9856 10.9318 10.9291 10.7206 10.6838 10.6443 10.6108 10.5297
 10.2653 10.1145 10.0414  9.5971  9.5959  9.4481  9.3626  9.2959  9.1982  9.1646
  9.1037  9.0031  8.9955  8.9905  8.9280  8.8939  8.6723  8.6173  8.6136  8.5344
  8.4947  8.4380  8.4282  8.2884  8.2304  8.1699  8.0804  8.0802  8.0437  7.9276
  7.9272  7.9201  7.9021  7.8699  7.8494  7.7797  7.7572  7.6103  7.5950  7.5452
  7.5006  7.4594  7.3618  7.3186  7.3043  7.2652  7.2405  7.2122  7.1987  7.1885
  7.1457  7.0937  7.0058  6.9876  6.9790  6.9665  6.8921  6.8363  6.8090  6.8007
  6.7775  6.7715  6.7434  6.6314  6.6145  6.5517  6.5126  6.4760  6.4730  6.4538
  6.4305  6.4158  6.4140  6.3599  6.3406  6.1982  6.1908  6.1696  6.1606  6.1562
  6.1350  6.1191  6.1152  6.0654  4.4110  4.4102  4.4091  4.4048  4.4047  4.4039
  4.3991  4.3988  4.3987  4.3974  4.3973  4.3927  4.3925  4.3882  4.3880  4.3741
  4.3738
 highest evec of mol 1
 -0.0096  0.0111 -0.0052
  0.0177  0.0391 -0.0058
  0.1645  0.0128  0.0392
 -0.0021 -0.0058  0.0013
 -0.0007 -0.0001 -0.0003
 -0.0075 -0.0011 -0.0016
  0.0001  0.0000  0.0000
 -0.0010 -0.0002 -0.0004
 -0.0097 -0.0010 -0.0023
 -0.0125 -0.0131  0.0088
  0.0229 -0.0326  0.0400
  0.2149  0.0351  0.0408
 -0.0025  0.0052 -0.0056
  0.0025  0.0000  0.0004
 -0.0000 -0.0006 -0.0017
 -0.0006  0.0007  0.0011
  0.0004 -0.0000 -0.0000
 -0.0001  0.0001  0.0001
  0.0001  0.0000  0.0001
 -0.0001 -0.0000 -0.0001
  0.0001  0.0000  0.0001
 -0.0000 -0.0001 -0.0001
 -0.0001  0.0000  0.0000
  0.0001 -0.0000 -0.0000
 -0.0000  0.0000  0.0001
 -0.0001  0.0002  0.0004
 -0.0001  0.0001  0.0001
 -0.0030  0.0037  0.0060
  0.0002 -0.0002 -0.0003
 -0.0001  0.0000  0.0000
  0.0233 -0.0365  0.0150
 -0.0641 -0.1141  0.0136
 -0.5473 -0.0415 -0.1306
  0.0226  0.0021  0.0053
  0.0294  0.0044  0.0058
  0.0302  0.0406 -0.0305
 -0.0831  0.0914 -0.1187
 -0.7151 -0.1174 -0.1348
 -0.0007 -0.0007 -0.0011
 -0.0000 -0.0000 -0.0000
  0.0000 -0.0000 -0.0000
  0.0000 -0.0000 -0.0000
  0.0001 -0.0000 -0.0000
  0.0001  0.0001  0.0001
 -0.0001 -0.0001 -0.0002
  0.0006 -0.0006 -0.0010
  0.0140 -0.0114 -0.0199
 generating redundant internal coords
         300        3600          47
 Adding extra bonds for z output only
           6           6           6           6           6           6
          16           6           6           6           6           6
           6           7           6           6           6           6
           6           6           6           6           6           6
           6           6           6           6           6           6
           1           1           1           1           1           1
           1           1           1           1           1           1
           1           1           1           1           1
 search for int coords
   1 str   2   1   1.390
   2 str   3   2   1.393
   3 str   4   3   1.402
   4 str   5   4   1.407
   5 str   6   1   1.392
   6 str   6   5   1.392
   7 str   7   5   1.781
   8 str   8   7   1.781
   9 str   9   8   1.392
  10 str  10   9   1.392
  11 str  11  10   1.390
  12 str  12  11   1.393
  13 str  13   8   1.407
  14 str  13  12   1.402
  15 str  14   4   1.419
  16 str  14  13   1.419
  17 str  15  14   1.440
  18 str  16  15   1.391
  19 str  17  16   1.402
  20 str  18  17   1.436
  21 str  19  18   1.359
  22 str  20  19   1.436
  23 str  21  20   1.402
  24 str  22  21   1.391
  25 str  23  22   1.392
  26 str  24  23   1.402
  27 str  25  24   1.437
  28 str  26  25   1.358
  29 str  27  26   1.437
  30 str  28  15   1.395
  31 str  28  27   1.401
  32 str  29  17   1.425
  33 str  29  27   1.426
  34 str  30  20   1.426
  35 str  30  24   1.426
  36 str  30  29   1.424
  37 str  31   1   1.083
  38 str  32   2   1.084
  39 str  33   3   1.081
  40 str  34   6   1.084
  41 str  35   9   1.084
  42 str  36  10   1.083
  43 str  37  11   1.084
  44 str  38  12   1.081
  45 str  39  16   1.084
  46 str  40  18   1.085
  47 str  41  19   1.085
  48 str  42  21   1.085
  49 str  43  22   1.084
  50 str  44  23   1.085
  51 str  45  25   1.085
  52 str  46  26   1.085
  53 str  47  28   1.084
 nber stretches=          53
  54 ben   1   2   3
  55 prop tor   1   2   3   4
  56 prop tor   1   2   3  33
  57 ben   1   2  32
  58 ben   1   6   5
  59 ben   1   6  34
  60 ben   2   1   6
  61 prop tor   2   1   6   5
  62 prop tor   2   1   6  34
  63 ben   2   1  31
  64 ben   2   3   4
  65 prop tor   2   3   4   5
  66 prop tor   2   3   4  14
  67 ben   2   3  33
  68 ben   3   2  32
  69 ben   3   4   5
  70 prop tor   3   4   5   6
  71 prop tor   3   4   5   7
  72 ben   3   4  14
  73 prop tor   3   4  14  13
  74 prop tor   3   4  14  15
  75 ben   4   3  33
  76 ben   4   5   6
  77 prop tor   4   5   6   1
  78 prop tor   4   5   6  34
  79 ben   4   5   7
  80 prop tor   4   5   7   8
  81 ben   4  14  13
  82 ben   4  14  15
  83 prop tor   4  14  15  16
  84 prop tor   4  14  15  28
  85 ben   5   4  14
  86 prop tor   5   4  14  13
  87 prop tor   5   4  14  15
  88 ben   5   6  34
  89 ben   5   7   8
  90 prop tor   5   7   8   9
  91 prop tor   5   7   8  13
  92 prop tor   6   1   2   3
  93 prop tor   6   1   2  32
  94 ben   6   1  31
  95 ben   6   5   7
  96 prop tor   6   5   7   8
  97 prop tor   7   5   6   1
  98 prop tor   7   5   6  34
  99 ben   7   8   9
 100 prop tor   7   8   9  10
 101 prop tor   7   8   9  35
 102 ben   7   8  13
 103 prop tor   7   8  13  12
 104 prop tor   7   8  13  14
 105 ben   8   9  10
 106 prop tor   8   9  10  11
 107 prop tor   8   9  10  36
 108 ben   8   9  35
 109 ben   8  13  12
 110 ben   8  13  14
 111 prop tor   8  13  14   4
 112 prop tor   8  13  14  15
 113 ben   9   8  13
 114 prop tor   9   8  13  12
 115 prop tor   9   8  13  14
 116 ben   9  10  11
 117 prop tor   9  10  11  12
 118 prop tor   9  10  11  37
 119 ben   9  10  36
 120 ben  10   9  35
 121 ben  10  11  12
 122 prop tor  10  11  12  13
 123 prop tor  10  11  12  38
 124 ben  10  11  37
 125 ben  11  10  36
 126 ben  11  12  13
 127 prop tor  11  12  13   8
 128 prop tor  11  12  13  14
 129 ben  11  12  38
 130 ben  12  11  37
 131 ben  12  13  14
 132 prop tor  12  13  14   4
 133 prop tor  12  13  14  15
 134 prop tor  13   8   9  10
 135 prop tor  13   8   9  35
 136 ben  13  12  38
 137 ben  13  14  15
 138 prop tor  13  14  15  16
 139 prop tor  13  14  15  28
 140 prop tor  14   4   5   6
 141 prop tor  14   4   5   7
 142 ben  14  15  16
 143 prop tor  14  15  16  17
 144 prop tor  14  15  16  39
 145 ben  14  15  28
 146 prop tor  14  15  28  27
 147 prop tor  14  15  28  47
 148 ben  15  16  17
 149 prop tor  15  16  17  18
 150 prop tor  15  16  17  29
 151 ben  15  16  39
 152 ben  15  28  27
 153 ben  15  28  47
 154 ben  16  15  28
 155 prop tor  16  15  28  27
 156 prop tor  16  15  28  47
 157 ben  16  17  18
 158 prop tor  16  17  18  19
 159 prop tor  16  17  18  40
 160 ben  16  17  29
 161 prop tor  16  17  29  27
 162 prop tor  16  17  29  30
 163 ben  17  16  39
 164 ben  17  18  19
 165 prop tor  17  18  19  20
 166 prop tor  17  18  19  41
 167 ben  17  18  40
 168 ben  17  29  27
 169 ben  17  29  30
 170 prop tor  17  29  30  20
 171 prop tor  17  29  30  24
 172 ben  18  17  29
 173 prop tor  18  17  29  27
 174 prop tor  18  17  29  30
 175 ben  18  19  20
 176 prop tor  18  19  20  21
 177 prop tor  18  19  20  30
 178 ben  18  19  41
 179 ben  19  18  40
 180 ben  19  20  21
 181 prop tor  19  20  21  22
 182 prop tor  19  20  21  42
 183 ben  19  20  30
 184 prop tor  19  20  30  24
 185 prop tor  19  20  30  29
 186 ben  20  19  41
 187 ben  20  21  22
 188 prop tor  20  21  22  23
 189 prop tor  20  21  22  43
 190 ben  20  21  42
 191 ben  20  30  24
 192 ben  20  30  29
 193 ben  21  20  30
 194 prop tor  21  20  30  24
 195 prop tor  21  20  30  29
 196 ben  21  22  23
 197 prop tor  21  22  23  24
 198 prop tor  21  22  23  44
 199 ben  21  22  43
 200 ben  22  21  42
 201 ben  22  23  24
 202 prop tor  22  23  24  25
 203 prop tor  22  23  24  30
 204 ben  22  23  44
 205 ben  23  22  43
 206 ben  23  24  25
 207 prop tor  23  24  25  26
 208 prop tor  23  24  25  45
 209 ben  23  24  30
 210 prop tor  23  24  30  20
 211 prop tor  23  24  30  29
 212 ben  24  23  44
 213 ben  24  25  26
 214 prop tor  24  25  26  27
 215 prop tor  24  25  26  46
 216 ben  24  25  45
 217 ben  24  30  29
 218 ben  25  24  30
 219 prop tor  25  24  30  20
 220 prop tor  25  24  30  29
 221 ben  25  26  27
 222 prop tor  25  26  27  28
 223 prop tor  25  26  27  29
 224 ben  25  26  46
 225 ben  26  25  45
 226 ben  26  27  28
 227 prop tor  26  27  28  15
 228 prop tor  26  27  28  47
 229 ben  26  27  29
 230 prop tor  26  27  29  17
 231 prop tor  26  27  29  30
 232 ben  27  26  46
 233 ben  27  28  47
 234 ben  27  29  30
 235 prop tor  27  29  30  20
 236 prop tor  27  29  30  24
 237 prop tor  28  15  16  17
 238 prop tor  28  15  16  39
 239 ben  28  27  29
 240 prop tor  28  27  29  17
 241 prop tor  28  27  29  30
 242 prop tor  29  17  18  19
 243 prop tor  29  17  18  40
 244 prop tor  29  27  28  15
 245 prop tor  29  27  28  47
 246 prop tor  30  20  21  22
 247 prop tor  30  20  21  42
 248 prop tor  30  24  25  26
 249 prop tor  30  24  25  45
 250 prop tor  31   1   2   3
 251 prop tor  31   1   2  32
 252 prop tor  31   1   6   5
 253 prop tor  31   1   6  34
 254 prop tor  32   2   3   4
 255 prop tor  32   2   3  33
 256 prop tor  33   3   4   5
 257 prop tor  33   3   4  14
 258 prop tor  35   9  10  11
 259 prop tor  35   9  10  36
 260 prop tor  36  10  11  12
 261 prop tor  36  10  11  37
 262 prop tor  37  11  12  13
 263 prop tor  37  11  12  38
 264 prop tor  38  12  13   8
 265 prop tor  38  12  13  14
 266 prop tor  39  16  17  18
 267 prop tor  39  16  17  29
 268 prop tor  40  18  19  20
 269 prop tor  40  18  19  41
 270 prop tor  41  19  20  21
 271 prop tor  41  19  20  30
 272 prop tor  42  21  22  23
 273 prop tor  42  21  22  43
 274 prop tor  43  22  23  24
 275 prop tor  43  22  23  44
 276 prop tor  44  23  24  25
 277 prop tor  44  23  24  30
 278 prop tor  45  25  26  27
 279 prop tor  45  25  26  46
 280 prop tor  46  26  27  28
 281 prop tor  46  26  27  29
 nber bend=              88
 nber lin bend=           0
 nber prop tor=         140
 nber impr tor=           0
 nber tot redund int=         281
 Reading file: 
 ./phenothiazine-pyrene_0_C0S2.log                                              
                                          
  Entering Gaussian System, Link 0=g16                                          
  
 Gaussian format, type: g94, g98, g03= F F F
  #P Geom=AllCheck Guess=TCheck SCRF=Check Test GenChk RB3LYP TD(FC,Read    
 energy type= TD      
 Original G94 input coords:
  6 -4.050952  3.286588  1.882052
  6 -2.627407  3.193174  1.827137
  6 -2.018557  2.122720  1.214916
  6 -2.764887  1.076331  0.617761
  6 -4.215317  1.181988  0.678864
  6 -4.809746  2.293399  1.314741
 16 -5.265972  0.001996  0.002627
  6 -4.217071 -1.181865 -0.669578
  6 -4.813217 -2.293854 -1.302866
  6 -4.055972 -3.287934 -1.870643
  6 -2.632276 -3.194433 -1.819854
  6 -2.021767 -2.123392 -1.210269
  6 -2.766480 -1.076596 -0.611802
  7 -2.133770 -0.000075  0.002117
  6 -0.683376 -0.000086  0.000435
  6 -0.002565 -0.603379  1.051264
  6  1.398651 -0.614411  1.069304
  6  2.145235 -1.225260  2.133632
  6  3.504223 -1.223787  2.129776
  6  4.250569 -0.614055  1.066002
  6  5.653416 -0.601161  1.042062
  6  6.340594  0.000615 -0.007371
  6  5.650958  0.602238 -1.055272
  6  4.248049  0.614844 -1.076119
  6  3.499236  1.224420 -2.138248
  6  2.140239  1.225649 -2.139116
  6  1.396153  0.614589 -1.073158
  6 -0.004995  0.603307 -1.051949
  6  2.111615  0.000148 -0.002712
  6  3.536126  0.000314 -0.004268
  1 -4.528365  4.129949  2.364634
  1 -2.015509  3.969236  2.270049
  1 -0.939195  2.078568  1.188531
  1 -5.893290  2.349919  1.347902
  1 -5.896846 -2.350365 -1.333124
  1 -4.534707 -4.132130 -2.350449
  1 -2.021608 -3.970825 -2.263874
  1 -0.942334 -2.079235 -1.186797
  1 -0.562464 -1.064954  1.856196
  1  1.598317 -1.691093  2.946128
  1  4.052835 -1.689797  2.941482
  1  6.200670 -1.067378  1.854262
  1  7.424764  0.000742 -0.008580
  1  6.196329  1.068556 -1.868682
  1  4.045976  1.690529 -2.951159
  1  1.591457  1.691373 -2.950413
  1 -0.566771  1.064874 -1.855571
 nber atoms=          47
  Total Energy, E(TD-HF/TD-DFT) =  -1530.36906740                               
  
          32          49 "  -1530.36906740"
After scan for Atom:   Atom  AN      X      Y      Z        X      Y      Z        X      Y      Z   
After scan for Atom:   Atom  AN      X      Y      Z        X      Y      Z        X      Y      Z   
After scan for Atom:   Atom  AN      X      Y      Z        X      Y      Z        X      Y      Z   
After scan for Atom:   Atom  AN      X      Y      Z        X      Y      Z        X      Y      Z   
After scan for Atom:   Atom  AN      X      Y      Z        X      Y      Z        X      Y      Z   
After scan for Atom:   Atom  AN      X      Y      Z        X      Y      Z        X      Y      Z   
After scan for Atom:   Atom  AN      X      Y      Z        X      Y      Z        X      Y      Z   
After scan for Atom:   Atom  AN      X      Y      Z        X      Y      Z        X      Y      Z   
After scan for Atom:   Atom  AN      X      Y      Z        X      Y      Z        X      Y      Z   
After scan for Atom:   Atom  AN      X      Y      Z        X      Y      Z        X      Y      Z   
After scan for Atom:   Atom  AN      X      Y      Z        X      Y      Z        X      Y      Z   
After scan for Atom:   Atom  AN      X      Y      Z        X      Y      Z        X      Y      Z   
After scan for Atom:   Atom  AN      X      Y      Z        X      Y      Z        X      Y      Z   
After scan for Atom:   Atom  AN      X      Y      Z        X      Y      Z        X      Y      Z   
After scan for Atom:   Atom  AN      X      Y      Z        X      Y      Z        X      Y      Z   
After scan for Atom:   Atom  AN      X      Y      Z        X      Y      Z        X      Y      Z   
After scan for Atom:   Atom  AN      X      Y      Z        X      Y      Z        X      Y      Z   
After scan for Atom:   Atom  AN      X      Y      Z        X      Y      Z        X      Y      Z   
After scan for Atom:   Atom  AN      X      Y      Z        X      Y      Z        X      Y      Z   
After scan for Atom:   Atom  AN      X      Y      Z        X      Y      Z        X      Y      Z   
After scan for Atom:   Atom  AN      X      Y      Z        X      Y      Z        X      Y      Z   
After scan for Atom:   Atom  AN      X      Y      Z        X      Y      Z        X      Y      Z   
After scan for Atom:   Atom  AN      X      Y      Z        X      Y      Z        X      Y      Z   
After scan for Atom:   Atom  AN      X      Y      Z        X      Y      Z        X      Y      Z   
After scan for Atom:   Atom  AN      X      Y      Z        X      Y      Z        X      Y      Z   
After scan for Atom:   Atom  AN      X      Y      Z        X      Y      Z        X      Y      Z   
After scan for Atom:   Atom  AN      X      Y      Z        X      Y      Z        X      Y      Z   
After scan for Atom:   Atom  AN      X      Y      Z        X      Y      Z        X      Y      Z   
After scan for Atom:   Atom  AN      X      Y      Z        X      Y      Z        X      Y      Z   
After scan for Atom:   Atom  AN      X      Y      Z        X      Y      Z        X      Y      Z   
After scan for Atom:   Atom  AN      X      Y      Z        X      Y      Z        X      Y      Z   
After scan for Atom:   Atom  AN      X      Y      Z        X      Y      Z        X      Y      Z   
After scan for Atom:   Atom  AN      X      Y      Z        X      Y      Z        X      Y      Z   
After scan for Atom:   Atom  AN      X      Y      Z        X      Y      Z        X      Y      Z   
After scan for Atom:   Atom  AN      X      Y      Z        X      Y      Z        X      Y      Z   
After scan for Atom:   Atom  AN      X      Y      Z        X      Y      Z        X      Y      Z   
After scan for Atom:   Atom  AN      X      Y      Z        X      Y      Z        X      Y      Z   
After scan for Atom:   Atom  AN      X      Y      Z        X      Y      Z        X      Y      Z   
After scan for Atom:   Atom  AN      X      Y      Z        X      Y      Z        X      Y      Z   
After scan for Atom:   Atom  AN      X      Y      Z        X      Y      Z        X      Y      Z   
After scan for Atom:   Atom  AN      X      Y      Z        X      Y      Z        X      Y      Z   
After scan for Atom:   Atom  AN      X      Y      Z        X      Y      Z        X      Y      Z   
After scan for Atom:   Atom  AN      X      Y      Z        X      Y      Z        X      Y      Z   
After scan for Atom:   Atom  AN      X      Y      Z        X      Y      Z        X      Y      Z   
After scan for Atom:   Atom  AN      X      Y      Z        X      Y      Z        X      Y      Z   
 g94    frequencies=
     0.0    0.0    0.0    0.0    0.0    0.0  -69.1   18.1   29.1   51.1
    66.0   91.5   91.7  152.4  157.0  199.3  200.9  209.6  226.6  252.1
   266.3  334.5  360.8  368.7  381.4  395.6  401.4  405.1  408.1  442.6
   445.8  448.0  476.5  500.5  508.7  512.7  518.8  535.0  540.0  545.3
   586.7  599.5  607.8  629.9  648.5  658.9  660.5  686.0  686.5  705.1
   712.1  721.4  755.1  756.2  771.1  779.0  789.2  793.4  814.0  825.4
   826.3  838.9  850.1  887.8  897.7  913.7  928.1  929.0  932.0  936.1
   937.2  978.1  981.7  990.8  997.3 1009.3 1011.2 1014.8 1023.5 1078.0
  1100.8 1107.4 1136.7 1144.7 1151.2 1171.3 1172.3 1181.6 1181.8 1194.5
  1205.2 1209.8 1222.6 1257.1 1259.1 1266.9 1279.5 1322.1 1323.0 1339.9
  1340.7 1351.0 1384.5 1407.9 1415.7 1431.4 1446.5 1450.1 1450.4 1465.3
  1477.7 1485.4 1492.4 1494.9 1525.5 1528.4 1562.8 1576.7 1594.5 1597.8
  1630.4 1634.5 1662.7 1674.1 3155.7 3155.8 3160.0 3160.7 3162.2 3169.9
  3178.8 3179.0 3179.0 3179.2 3185.4 3185.7 3186.6 3195.6 3196.1 3214.7
  3215.6
 g94    symmetries=
                                                 A      A      A      A
       A      A      A      A      A      A      A      A      A      A
       A      A      A      A      A      A      A      A      A      A
       A      A      A      A      A      A      A      A      A      A
       A      A      A      A      A      A      A      A      A      A
       A      A      A      A      A      A      A      A      A      A
       A      A      A      A      A      A      A      A      A      A
       A      A      A      A      A      A      A      A      A      A
       A      A      A      A      A      A      A      A      A      A
       A      A      A      A      A      A      A      A      A      A
       A      A      A      A      A      A      A      A      A      A
       A      A      A      A      A      A      A      A      A      A
       A      A      A      A      A      A      A      A      A      A
       A      A      A      A      A      A      A      A      A      A
       A
 atomic masses:
 12.0000 12.0000 12.0000 12.0000 12.0000 12.0000 31.9721 12.0000 12.0000 12.0000
 12.0000 12.0000 12.0000 14.0031 12.0000 12.0000 12.0000 12.0000 12.0000 12.0000
 12.0000 12.0000 12.0000 12.0000 12.0000 12.0000 12.0000 12.0000 12.0000 12.0000
  1.0078  1.0078  1.0078  1.0078  1.0078  1.0078  1.0078  1.0078  1.0078  1.0078
  1.0078  1.0078  1.0078  1.0078  1.0078  1.0078  1.0078
 looking for force constants in 
 ./phenothiazine-pyrene_0_C0S2.fchk                                             
  
 Cartesian Force Constants                  R   N=       10011                  
  
 n3=         141       10011
 g94-fc frequencies=
   -69.1   -0.0   -0.0    0.0    2.6    2.9    4.7   18.1   29.2   51.1
    66.1   91.5   91.7  152.4  157.0  199.3  200.9  209.6  226.6  252.1
   266.3  334.5  360.8  368.7  381.4  395.6  401.4  405.1  408.1  442.6
   445.8  448.0  476.5  500.5  508.7  512.7  518.8  535.0  540.0  545.3
   586.7  599.5  607.8  629.9  648.5  658.9  660.5  686.0  686.5  705.1
   712.1  721.4  755.1  756.2  771.1  779.1  789.2  793.4  814.1  825.4
   826.3  838.9  850.1  887.8  897.7  913.7  928.1  929.0  932.0  936.2
   937.2  978.1  981.7  990.8  997.3 1009.3 1011.3 1014.8 1023.5 1078.0
  1100.8 1107.4 1136.7 1144.7 1151.2 1171.3 1172.3 1181.7 1181.8 1194.6
  1205.2 1209.8 1222.6 1257.1 1259.1 1266.9 1279.5 1322.2 1323.0 1340.0
  1340.7 1351.0 1384.5 1407.9 1415.7 1431.4 1446.5 1450.2 1450.4 1465.3
  1477.7 1485.5 1492.5 1495.0 1525.5 1528.5 1562.8 1576.7 1594.5 1597.8
  1630.4 1634.6 1662.7 1674.1 3155.8 3155.9 3160.1 3160.8 3162.2 3170.0
  3178.9 3179.1 3179.1 3179.3 3185.5 3185.8 3186.7 3195.7 3196.1 3214.8
  3215.6
 at 99999: n3=         141
 symm operator            1 :  F  nop=           0
 symm operator            2 :  F  nop=           0
 symm operator            3 :  F  nop=           0
 symm operator            4 :  F  nop=           0
 symm operator            5 :  F  nop=           0
 symm operator            6 :  F  nop=           0
 symm operator            7 :  F  nop=           0
 The point group of the molecule is  C1
 Symmetry rotation matrix:
   1.00000   0.00000   0.00000
   0.00000   1.00000   0.00000
   0.00000   0.00000   1.00000

 Projecting out zero-frequency components
 generating redundant internal coords
         300        3600          47
 search for int coords
   1 str   2   1   1.428
   2 str   3   2   1.375
   3 str   4   3   1.417
   4 str   5   4   1.456
   5 str   6   1   1.373
   6 str   6   5   1.412
   7 str   7   5   1.719
   8 str   8   7   1.719
   9 str   9   8   1.412
  10 str  10   9   1.373
  11 str  11  10   1.428
  12 str  12  11   1.375
  13 str  13   8   1.456
  14 str  13  12   1.417
  15 str  14   4   1.391
  16 str  14  13   1.391
  17 str  15  14   1.450
  18 str  16  15   1.390
  19 str  17  16   1.401
  20 str  18  17   1.436
  21 str  19  18   1.359
  22 str  20  19   1.435
  23 str  21  20   1.403
  24 str  22  21   1.391
  25 str  23  22   1.391
  26 str  24  23   1.403
  27 str  25  24   1.435
  28 str  26  25   1.359
  29 str  27  26   1.436
  30 str  28  15   1.390
  31 str  28  27   1.401
  32 str  29  17   1.427
  33 str  29  27   1.427
  34 str  30  20   1.426
  35 str  30  24   1.426
  36 str  30  29   1.425
  37 str  31   1   1.083
  38 str  32   2   1.083
  39 str  33   3   1.081
  40 str  34   6   1.086
  41 str  35   9   1.086
  42 str  36  10   1.083
  43 str  37  11   1.083
  44 str  38  12   1.081
  45 str  39  16   1.084
  46 str  40  18   1.085
  47 str  41  19   1.085
  48 str  42  21   1.085
  49 str  43  22   1.084
  50 str  44  23   1.085
  51 str  45  25   1.085
  52 str  46  26   1.085
  53 str  47  28   1.084
 nber stretches=          53
  54 ben   1   2   3
  55 prop tor   1   2   3   4
  56 prop tor   1   2   3  33
  57 ben   1   2  32
  58 ben   1   6   5
  59 ben   1   6  34
  60 ben   2   1   6
  61 prop tor   2   1   6   5
  62 prop tor   2   1   6  34
  63 ben   2   1  31
  64 ben   2   3   4
  65 prop tor   2   3   4   5
  66 prop tor   2   3   4  14
  67 ben   2   3  33
  68 ben   3   2  32
  69 ben   3   4   5
  70 prop tor   3   4   5   6
  71 prop tor   3   4   5   7
  72 ben   3   4  14
  73 prop tor   3   4  14  13
  74 prop tor   3   4  14  15
  75 ben   4   3  33
  76 ben   4   5   6
  77 prop tor   4   5   6   1
  78 prop tor   4   5   6  34
  79 ben   4   5   7
  80 prop tor   4   5   7   8
  81 ben   4  14  13
  82 ben   4  14  15
  83 prop tor   4  14  15  16
  84 prop tor   4  14  15  28
  85 ben   5   4  14
  86 prop tor   5   4  14  13
  87 prop tor   5   4  14  15
  88 ben   5   6  34
  89 ben   5   7   8
  90 prop tor   5   7   8   9
  91 prop tor   5   7   8  13
  92 prop tor   6   1   2   3
  93 prop tor   6   1   2  32
  94 ben   6   1  31
  95 ben   6   5   7
  96 prop tor   6   5   7   8
  97 prop tor   7   5   6   1
  98 prop tor   7   5   6  34
  99 ben   7   8   9
 100 prop tor   7   8   9  10
 101 prop tor   7   8   9  35
 102 ben   7   8  13
 103 prop tor   7   8  13  12
 104 prop tor   7   8  13  14
 105 ben   8   9  10
 106 prop tor   8   9  10  11
 107 prop tor   8   9  10  36
 108 ben   8   9  35
 109 ben   8  13  12
 110 ben   8  13  14
 111 prop tor   8  13  14   4
 112 prop tor   8  13  14  15
 113 ben   9   8  13
 114 prop tor   9   8  13  12
 115 prop tor   9   8  13  14
 116 ben   9  10  11
 117 prop tor   9  10  11  12
 118 prop tor   9  10  11  37
 119 ben   9  10  36
 120 ben  10   9  35
 121 ben  10  11  12
 122 prop tor  10  11  12  13
 123 prop tor  10  11  12  38
 124 ben  10  11  37
 125 ben  11  10  36
 126 ben  11  12  13
 127 prop tor  11  12  13   8
 128 prop tor  11  12  13  14
 129 ben  11  12  38
 130 ben  12  11  37
 131 ben  12  13  14
 132 prop tor  12  13  14   4
 133 prop tor  12  13  14  15
 134 prop tor  13   8   9  10
 135 prop tor  13   8   9  35
 136 ben  13  12  38
 137 ben  13  14  15
 138 prop tor  13  14  15  16
 139 prop tor  13  14  15  28
 140 prop tor  14   4   5   6
 141 prop tor  14   4   5   7
 142 ben  14  15  16
 143 prop tor  14  15  16  17
 144 prop tor  14  15  16  39
 145 ben  14  15  28
 146 prop tor  14  15  28  27
 147 prop tor  14  15  28  47
 148 ben  15  16  17
 149 prop tor  15  16  17  18
 150 prop tor  15  16  17  29
 151 ben  15  16  39
 152 ben  15  28  27
 153 ben  15  28  47
 154 ben  16  15  28
 155 prop tor  16  15  28  27
 156 prop tor  16  15  28  47
 157 ben  16  17  18
 158 prop tor  16  17  18  19
 159 prop tor  16  17  18  40
 160 ben  16  17  29
 161 prop tor  16  17  29  27
 162 prop tor  16  17  29  30
 163 ben  17  16  39
 164 ben  17  18  19
 165 prop tor  17  18  19  20
 166 prop tor  17  18  19  41
 167 ben  17  18  40
 168 ben  17  29  27
 169 ben  17  29  30
 170 prop tor  17  29  30  20
 171 prop tor  17  29  30  24
 172 ben  18  17  29
 173 prop tor  18  17  29  27
 174 prop tor  18  17  29  30
 175 ben  18  19  20
 176 prop tor  18  19  20  21
 177 prop tor  18  19  20  30
 178 ben  18  19  41
 179 ben  19  18  40
 180 ben  19  20  21
 181 prop tor  19  20  21  22
 182 prop tor  19  20  21  42
 183 ben  19  20  30
 184 prop tor  19  20  30  24
 185 prop tor  19  20  30  29
 186 ben  20  19  41
 187 ben  20  21  22
 188 prop tor  20  21  22  23
 189 prop tor  20  21  22  43
 190 ben  20  21  42
 191 ben  20  30  24
 192 ben  20  30  29
 193 ben  21  20  30
 194 prop tor  21  20  30  24
 195 prop tor  21  20  30  29
 196 ben  21  22  23
 197 prop tor  21  22  23  24
 198 prop tor  21  22  23  44
 199 ben  21  22  43
 200 ben  22  21  42
 201 ben  22  23  24
 202 prop tor  22  23  24  25
 203 prop tor  22  23  24  30
 204 ben  22  23  44
 205 ben  23  22  43
 206 ben  23  24  25
 207 prop tor  23  24  25  26
 208 prop tor  23  24  25  45
 209 ben  23  24  30
 210 prop tor  23  24  30  20
 211 prop tor  23  24  30  29
 212 ben  24  23  44
 213 ben  24  25  26
 214 prop tor  24  25  26  27
 215 prop tor  24  25  26  46
 216 ben  24  25  45
 217 ben  24  30  29
 218 ben  25  24  30
 219 prop tor  25  24  30  20
 220 prop tor  25  24  30  29
 221 ben  25  26  27
 222 prop tor  25  26  27  28
 223 prop tor  25  26  27  29
 224 ben  25  26  46
 225 ben  26  25  45
 226 ben  26  27  28
 227 prop tor  26  27  28  15
 228 prop tor  26  27  28  47
 229 ben  26  27  29
 230 prop tor  26  27  29  17
 231 prop tor  26  27  29  30
 232 ben  27  26  46
 233 ben  27  28  47
 234 ben  27  29  30
 235 prop tor  27  29  30  20
 236 prop tor  27  29  30  24
 237 prop tor  28  15  16  17
 238 prop tor  28  15  16  39
 239 ben  28  27  29
 240 prop tor  28  27  29  17
 241 prop tor  28  27  29  30
 242 prop tor  29  17  18  19
 243 prop tor  29  17  18  40
 244 prop tor  29  27  28  15
 245 prop tor  29  27  28  47
 246 prop tor  30  20  21  22
 247 prop tor  30  20  21  42
 248 prop tor  30  24  25  26
 249 prop tor  30  24  25  45
 250 prop tor  31   1   2   3
 251 prop tor  31   1   2  32
 252 prop tor  31   1   6   5
 253 prop tor  31   1   6  34
 254 prop tor  32   2   3   4
 255 prop tor  32   2   3  33
 256 prop tor  33   3   4   5
 257 prop tor  33   3   4  14
 258 prop tor  35   9  10  11
 259 prop tor  35   9  10  36
 260 prop tor  36  10  11  12
 261 prop tor  36  10  11  37
 262 prop tor  37  11  12  13
 263 prop tor  37  11  12  38
 264 prop tor  38  12  13   8
 265 prop tor  38  12  13  14
 266 prop tor  39  16  17  18
 267 prop tor  39  16  17  29
 268 prop tor  40  18  19  20
 269 prop tor  40  18  19  41
 270 prop tor  41  19  20  21
 271 prop tor  41  19  20  30
 272 prop tor  42  21  22  23
 273 prop tor  42  21  22  43
 274 prop tor  43  22  23  24
 275 prop tor  43  22  23  44
 276 prop tor  44  23  24  25
 277 prop tor  44  23  24  30
 278 prop tor  45  25  26  27
 279 prop tor  45  25  26  46
 280 prop tor  46  26  27  28
 281 prop tor  46  26  27  29
 nber bend=              88
 nber lin bend=           0
 nber prop tor=         140
 nber impr tor=           0
 nber tot redund int=         281
 Eigenvalues of G in red int coords
    Gval -0.00000000 -0.00000000 -0.00000000 -0.00000000 -0.00000000 -0.00000000 -0.00000000 -0.00000000
    Gval -0.00000000 -0.00000000 -0.00000000 -0.00000000 -0.00000000 -0.00000000 -0.00000000 -0.00000000
    Gval -0.00000000 -0.00000000 -0.00000000 -0.00000000 -0.00000000 -0.00000000 -0.00000000 -0.00000000
    Gval -0.00000000 -0.00000000 -0.00000000 -0.00000000 -0.00000000 -0.00000000 -0.00000000 -0.00000000
    Gval -0.00000000 -0.00000000 -0.00000000 -0.00000000 -0.00000000 -0.00000000 -0.00000000 -0.00000000
    Gval -0.00000000 -0.00000000 -0.00000000 -0.00000000 -0.00000000 -0.00000000 -0.00000000 -0.00000000
    Gval -0.00000000 -0.00000000 -0.00000000 -0.00000000 -0.00000000 -0.00000000 -0.00000000 -0.00000000
    Gval -0.00000000 -0.00000000 -0.00000000 -0.00000000 -0.00000000 -0.00000000 -0.00000000 -0.00000000
    Gval -0.00000000 -0.00000000 -0.00000000 -0.00000000 -0.00000000 -0.00000000  0.00000000  0.00000000
    Gval  0.00000000  0.00000000  0.00000000  0.00000000  0.00000000  0.00000000  0.00000000  0.00000000
    Gval  0.00000000  0.00000000  0.00000000  0.00000000  0.00000000  0.00000000  0.00000000  0.00000000
    Gval  0.00000000  0.00000000  0.00000000  0.00000000  0.00000000  0.00000000  0.00000000  0.00000000
    Gval  0.00000000  0.00000000  0.00000000  0.00000000  0.00000000  0.00000000  0.00000000  0.00000000
    Gval  0.00000000  0.00000000  0.00000000  0.00000000  0.00000000  0.00000000  0.00000000  0.00000000
    Gval  0.00000000  0.00000000  0.00000000  0.00000000  0.00000000  0.00000000  0.00000000  0.00000000
    Gval  0.00000000  0.00000000  0.00000000  0.00000000  0.00000000  0.00000000  0.00000000  0.00000000
    Gval  0.00000000  0.00000000  0.00000000  0.00000000  0.00000000  0.00000000  0.00000000  0.00000000
    Gval  0.00000000  0.00000000  0.00000000  0.00000000  0.00000000  0.00000000  0.00000000  0.00000000
    Gval  0.00000000  0.00000000  0.00000085  0.00000163  0.00000198  0.00000452  0.00000836  0.00000993
    Gval  0.00001062  0.00001176  0.00001715  0.00002131  0.00002229  0.00002440  0.00002551  0.00002817
    Gval  0.00003017  0.00003660  0.00004185  0.00004919  0.00005151  0.00005545  0.00005614  0.00005854
    Gval  0.00006241  0.00006728  0.00006832  0.00007181  0.00007257  0.00007432  0.00007676  0.00007956
    Gval  0.00008308  0.00008613  0.00010365  0.00010452  0.00011229  0.00011705  0.00011826  0.00012227
    Gval  0.00012921  0.00013956  0.00014108  0.00014615  0.00016433  0.00017192  0.00017348  0.00018766
    Gval  0.00019209  0.00020322  0.00020465  0.00022638  0.00024578  0.00026036  0.00026529  0.00027114
    Gval  0.00027195  0.00031366  0.00032491  0.00033852  0.00035020  0.00037298  0.00038094  0.00038330
    Gval  0.00038942  0.00040398  0.00041963  0.00044504  0.00045353  0.00045958  0.00048482  0.00052792
    Gval  0.00059319  0.00059321  0.00059387  0.00059497  0.00059705  0.00059719  0.00059721  0.00059862
    Gval  0.00060801  0.00061805  0.00062021  0.00062069  0.00062834  0.00064334  0.00064508  0.00065400
    Gval  0.00065482  0.00065846  0.00069045  0.00076188  0.00078551  0.00081675  0.00092037  0.00097615
    Gval  0.00105484  0.00105531  0.00106504  0.00108526  0.00108572  0.00111221  0.00111774  0.00111791
    Gval  0.00113929  0.00114102  0.00116180  0.00116185  0.00116196  0.00116245  0.00116794  0.00117303
    Gval  0.00117303  0.00117781  0.00132291  0.00145598  0.00166933  0.00172998  0.00174681  0.00179610
    Gval  0.00192962  0.00215887  0.00229720  0.00238075  0.00257794  0.00263010  0.00270376  0.00307959
    Gval  0.00311187  0.00317192  0.00347518  0.00349004  0.00368709  0.00372576  0.00392383  0.00401537
    Gval  0.00401664
  8.492740295706103E-007  8.492740295706103E-007
  1.625683368358097E-006  8.492740295706103E-007
  1.978401552562901E-006  8.492740295706103E-007
  4.523746855553036E-006  8.492740295706103E-007
  8.362874464419085E-006  8.492740295706103E-007
  9.930889144499638E-006  8.492740295706103E-007
  1.061736101651185E-005  8.492740295706103E-007
  1.175509866095871E-005  8.492740295706103E-007
  1.714919191102543E-005  8.492740295706103E-007
  2.131209343444185E-005  8.492740295706103E-007
  2.228870837932101E-005  8.492740295706103E-007
  2.440448991426825E-005  8.492740295706103E-007
  2.550903304477999E-005  8.492740295706103E-007
  2.817089421461469E-005  8.492740295706103E-007
  3.017076361184869E-005  8.492740295706103E-007
  3.660405025670788E-005  8.492740295706103E-007
  4.184942376366297E-005  8.492740295706103E-007
  4.918694854017949E-005  8.492740295706103E-007
  5.150879787007006E-005  8.492740295706103E-007
  5.545125822001977E-005  8.492740295706103E-007
  5.613991701162457E-005  8.492740295706103E-007
  5.853610823643987E-005  8.492740295706103E-007
  6.240807076175194E-005  8.492740295706103E-007
  6.728148298143549E-005  8.492740295706103E-007
  6.832179963246849E-005  8.492740295706103E-007
  7.180877005545617E-005  8.492740295706103E-007
  7.257175183741591E-005  8.492740295706103E-007
  7.431787745068709E-005  8.492740295706103E-007
  7.676330201262377E-005  8.492740295706103E-007
  7.956002813878036E-005  8.492740295706103E-007
  8.308000090311653E-005  8.492740295706103E-007
  8.612982963418034E-005  8.492740295706103E-007
  1.036460561590451E-004  8.492740295706103E-007
  1.045155380426644E-004  8.492740295706103E-007
  1.122881284556644E-004  8.492740295706103E-007
  1.170450705081907E-004  8.492740295706103E-007
  1.182570870927283E-004  8.492740295706103E-007
  1.222684840962569E-004  8.492740295706103E-007
  1.292080051985573E-004  8.492740295706103E-007
  1.395590906995874E-004  8.492740295706103E-007
  1.410774558631333E-004  8.492740295706103E-007
  1.461468587155889E-004  8.492740295706103E-007
  1.643267069379311E-004  8.492740295706103E-007
  1.719163585441788E-004  8.492740295706103E-007
  1.734843181446577E-004  8.492740295706103E-007
  1.876643797133477E-004  8.492740295706103E-007
  1.920870748123440E-004  8.492740295706103E-007
  2.032178564741002E-004  8.492740295706103E-007
  2.046497913186815E-004  8.492740295706103E-007
  2.263807221492223E-004  8.492740295706103E-007
  2.457847823631457E-004  8.492740295706103E-007
  2.603550991734175E-004  8.492740295706103E-007
  2.652889386151239E-004  8.492740295706103E-007
  2.711434819275821E-004  8.492740295706103E-007
  2.719520736308032E-004  8.492740295706103E-007
  3.136614888789057E-004  8.492740295706103E-007
  3.249111417550101E-004  8.492740295706103E-007
  3.385190009687218E-004  8.492740295706103E-007
  3.502016100812692E-004  8.492740295706103E-007
  3.729804919992709E-004  8.492740295706103E-007
  3.809395440034320E-004  8.492740295706103E-007
  3.833015969905234E-004  8.492740295706103E-007
  3.894241295528280E-004  8.492740295706103E-007
  4.039821202742790E-004  8.492740295706103E-007
  4.196330504029105E-004  8.492740295706103E-007
  4.450358062746941E-004  8.492740295706103E-007
  4.535328711308125E-004  8.492740295706103E-007
  4.595823915070991E-004  8.492740295706103E-007
  4.848249853028490E-004  8.492740295706103E-007
  5.279195478551945E-004  8.492740295706103E-007
  5.931907538569290E-004  8.492740295706103E-007
  5.932073439572811E-004  8.492740295706103E-007
  5.938733395974493E-004  8.492740295706103E-007
  5.949673339372365E-004  8.492740295706103E-007
  5.970479651002393E-004  8.492740295706103E-007
  5.971924674131174E-004  8.492740295706103E-007
  5.972065708048336E-004  8.492740295706103E-007
  5.986242351721630E-004  8.492740295706103E-007
  6.080148289576156E-004  8.492740295706103E-007
  6.180505794669020E-004  8.492740295706103E-007
  6.202112549954456E-004  8.492740295706103E-007
  6.206947870441550E-004  8.492740295706103E-007
  6.283416942058183E-004  8.492740295706103E-007
  6.433428933655061E-004  8.492740295706103E-007
  6.450827142119774E-004  8.492740295706103E-007
  6.540028871061585E-004  8.492740295706103E-007
  6.548211357642147E-004  8.492740295706103E-007
  6.584550604254241E-004  8.492740295706103E-007
  6.904482342993037E-004  8.492740295706103E-007
  7.618775415857699E-004  8.492740295706103E-007
  7.855086150920276E-004  8.492740295706103E-007
  8.167487050273843E-004  8.492740295706103E-007
  9.203739226547410E-004  8.492740295706103E-007
  9.761519184054785E-004  8.492740295706103E-007
  1.054842757301186E-003  8.492740295706103E-007
  1.055309013216647E-003  8.492740295706103E-007
  1.065039100942315E-003  8.492740295706103E-007
  1.085260584163641E-003  8.492740295706103E-007
  1.085724212592539E-003  8.492740295706103E-007
  1.112205444291087E-003  8.492740295706103E-007
  1.117743462016022E-003  8.492740295706103E-007
  1.117910064385790E-003  8.492740295706103E-007
  1.139285847634956E-003  8.492740295706103E-007
  1.141021780320919E-003  8.492740295706103E-007
  1.161803756748704E-003  8.492740295706103E-007
  1.161848765661076E-003  8.492740295706103E-007
  1.161961242984352E-003  8.492740295706103E-007
  1.162453862602722E-003  8.492740295706103E-007
  1.167939631672256E-003  8.492740295706103E-007
  1.173031331568221E-003  8.492740295706103E-007
  1.173033917465953E-003  8.492740295706103E-007
  1.177809905046969E-003  8.492740295706103E-007
  1.322906249312581E-003  8.492740295706103E-007
  1.455981422821936E-003  8.492740295706103E-007
  1.669326911345811E-003  8.492740295706103E-007
  1.729982340600511E-003  8.492740295706103E-007
  1.746810049877055E-003  8.492740295706103E-007
  1.796096190856272E-003  8.492740295706103E-007
  1.929616058414153E-003  8.492740295706103E-007
  2.158870263059345E-003  8.492740295706103E-007
  2.297203164090101E-003  8.492740295706103E-007
  2.380749841109181E-003  8.492740295706103E-007
  2.577943718235992E-003  8.492740295706103E-007
  2.630103348385291E-003  8.492740295706103E-007
  2.703758813949951E-003  8.492740295706103E-007
  3.079588433709096E-003  8.492740295706103E-007
  3.111870962151821E-003  8.492740295706103E-007
  3.171917747169906E-003  8.492740295706103E-007
  3.475175270332006E-003  8.492740295706103E-007
  3.490039951704277E-003  8.492740295706103E-007
  3.687094280377262E-003  8.492740295706103E-007
  3.725761917194193E-003  8.492740295706103E-007
  3.923826791495983E-003  8.492740295706103E-007
  4.015367264051257E-003  8.492740295706103E-007
  4.016644659804231E-003  8.492740295706103E-007
 cut=1d-8, nber non-redundant internal coords=         135
 Check on Eigenvals of non-red overlap matrix:
  0.00000085  0.00000163  0.00000198  0.00000452  0.00000836  0.00000993  0.00001062  0.00001176
  0.00001715  0.00002131  0.00002229  0.00002440  0.00002551  0.00002817  0.00003017  0.00003660
  0.00004185  0.00004919  0.00005151  0.00005545  0.00005614  0.00005854  0.00006241  0.00006728
  0.00006832  0.00007181  0.00007257  0.00007432  0.00007676  0.00007956  0.00008308  0.00008613
  0.00010365  0.00010452  0.00011229  0.00011705  0.00011826  0.00012227  0.00012921  0.00013956
  0.00014108  0.00014615  0.00016433  0.00017192  0.00017348  0.00018766  0.00019209  0.00020322
  0.00020465  0.00022638  0.00024578  0.00026036  0.00026529  0.00027114  0.00027195  0.00031366
  0.00032491  0.00033852  0.00035020  0.00037298  0.00038094  0.00038330  0.00038942  0.00040398
  0.00041963  0.00044504  0.00045353  0.00045958  0.00048482  0.00052792  0.00059319  0.00059321
  0.00059387  0.00059497  0.00059705  0.00059719  0.00059721  0.00059862  0.00060801  0.00061805
  0.00062021  0.00062069  0.00062834  0.00064334  0.00064508  0.00065400  0.00065482  0.00065846
  0.00069045  0.00076188  0.00078551  0.00081675  0.00092037  0.00097615  0.00105484  0.00105531
  0.00106504  0.00108526  0.00108572  0.00111221  0.00111774  0.00111791  0.00113929  0.00114102
  0.00116180  0.00116185  0.00116196  0.00116245  0.00116794  0.00117303  0.00117303  0.00117781
  0.00132291  0.00145598  0.00166933  0.00172998  0.00174681  0.00179610  0.00192962  0.00215887
  0.00229720  0.00238075  0.00257794  0.00263010  0.00270376  0.00307959  0.00311187  0.00317192
  0.00347518  0.00349004  0.00368709  0.00372576  0.00392383  0.00401537  0.00401664
 Checking for correct frequencies
 recalc frequencies=
   -69.1   -0.0   -0.0   -0.0    0.0    0.0    0.0   18.1   29.2   51.1
    66.1   91.5   91.7  152.4  157.0  199.3  200.9  209.6  226.6  252.1
   266.3  334.5  360.8  368.7  381.4  395.6  401.4  405.1  408.1  442.6
   445.8  448.0  476.5  500.5  508.7  512.7  518.8  535.0  540.0  545.3
   586.7  599.5  607.8  629.9  648.5  658.9  660.5  686.0  686.5  705.1
   712.1  721.4  755.1  756.2  771.1  779.1  789.2  793.4  814.1  825.4
   826.3  838.9  850.1  887.8  897.7  913.7  928.1  929.0  932.0  936.2
   937.2  978.1  981.7  990.8  997.3 1009.3 1011.3 1014.8 1023.5 1078.0
  1100.8 1107.4 1136.7 1144.7 1151.2 1171.3 1172.3 1181.7 1181.8 1194.6
  1205.2 1209.8 1222.6 1257.1 1259.1 1266.9 1279.5 1322.2 1323.0 1340.0
  1340.7 1351.0 1384.5 1407.9 1415.7 1431.4 1446.5 1450.2 1450.4 1465.3
  1477.7 1485.5 1492.5 1495.0 1525.5 1528.5 1562.8 1576.7 1594.5 1597.8
  1630.4 1634.6 1662.7 1674.1 3155.8 3155.9 3160.1 3160.8 3162.2 3170.0
  3178.9 3179.1 3179.1 3179.3 3185.5 3185.8 3186.7 3195.7 3196.1 3214.8
  3215.6
 recalc symmetries=
                                                                       
                                                                       
                                                                       
                                                                       
                                                                       
                                                                       
                                                                       
                                                                       
                                                                       
                                                                       
                                                                       
                                                                       
                                                                       
                                                                       
        
 recalc freqs check OK
 Zero-point lengths:
 29.8175 10.0000 10.0000 10.0000 10.0000 10.0000 10.0000 58.3193 45.9163 34.6849
 30.5041 25.9128 25.8952 20.0819 19.7874 17.5588 17.4913 17.1253 16.4701 15.6127
 15.1930 13.5541 13.0507 12.9101 12.6940 12.4643 12.3732 12.3171 12.2717 11.7840
 11.7413 11.7128 11.3574 11.0813 10.9920 10.9484 10.8840 10.7178 10.6686 10.6162
 10.2351 10.1252 10.0560  9.8778  9.7350  9.6580  9.6463  9.4654  9.4619  9.3359
  9.2901  9.2303  9.0215  9.0153  8.9278  8.8820  8.8246  8.8011  8.6890  8.6291
  8.6241  8.5592  8.5028  8.3201  8.2743  8.2014  8.1374  8.1336  8.1207  8.1025
  8.0978  7.9270  7.9125  7.8760  7.8501  7.8035  7.7958  7.7821  7.7490  7.5506
  7.4720  7.4498  7.3532  7.3273  7.3066  7.2438  7.2407  7.2119  7.2115  7.1729
  7.1410  7.1276  7.0901  6.9920  6.9866  6.9651  6.9306  6.8180  6.8158  6.7725
  6.7706  6.7447  6.6627  6.6070  6.5888  6.5526  6.5182  6.5101  6.5096  6.4763
  6.4490  6.4323  6.4172  6.4118  6.3473  6.3412  6.2710  6.2434  6.2084  6.2020
  6.1396  6.1319  6.0798  6.0590  4.4131  4.4130  4.4101  4.4096  4.4086  4.4032
  4.3970  4.3969  4.3969  4.3968  4.3924  4.3922  4.3916  4.3854  4.3851  4.3724
  4.3718
 highest evec of mol 2
 -0.0125  0.0165  0.0094
  0.0310  0.0490  0.0280
  0.1972 -0.0100 -0.0059
 -0.0025 -0.0056 -0.0032
 -0.0009 -0.0003 -0.0002
 -0.0072 -0.0002 -0.0001
  0.0001 -0.0000 -0.0000
 -0.0009  0.0003  0.0002
 -0.0070  0.0002  0.0001
 -0.0120 -0.0158 -0.0090
  0.0297 -0.0472 -0.0270
  0.1897  0.0096  0.0052
 -0.0024  0.0054  0.0031
  0.0024 -0.0000  0.0000
  0.0008 -0.0000 -0.0000
 -0.0009 -0.0008  0.0013
 -0.0003 -0.0000  0.0001
 -0.0002 -0.0002  0.0003
  0.0000  0.0000 -0.0001
  0.0000 -0.0000  0.0000
 -0.0000  0.0000 -0.0001
 -0.0001  0.0000 -0.0000
 -0.0000 -0.0000  0.0001
  0.0000  0.0000 -0.0000
  0.0000 -0.0000  0.0001
 -0.0002  0.0002 -0.0003
 -0.0003  0.0000 -0.0001
 -0.0009  0.0007 -0.0014
  0.0003  0.0000  0.0000
 -0.0000 -0.0000  0.0000
  0.0316 -0.0534 -0.0306
 -0.1108 -0.1428 -0.0815
 -0.6557  0.0296  0.0175
  0.0206 -0.0007 -0.0004
  0.0200  0.0007  0.0004
  0.0304  0.0514  0.0292
 -0.1065  0.1375  0.0786
 -0.6306 -0.0284 -0.0152
  0.0038  0.0031 -0.0055
  0.0006  0.0006 -0.0010
  0.0001 -0.0000  0.0001
  0.0001 -0.0001  0.0002
  0.0004  0.0000 -0.0000
  0.0001  0.0001 -0.0002
  0.0001  0.0001 -0.0001
  0.0006 -0.0006  0.0010
  0.0038 -0.0031  0.0055
 Enter nber and list of atoms to keep of mol #2
 keep list:          47           1           2           3           4
           5           6           7           8           9          10
          11          12          13          14          15          16
          17          18          19          20          21          22
          23          24          25          26          27          28
          29          30          31          32          33          34
          35          36          37          38          39          40
          41          42          43          44          45          46
          47
 reordering atoms
           1  -3.66547884262481     
           2  -2.24187976338469     
           3  -1.63241930950330     
           4  -2.37815320273832     
           5  -3.82864337523454     
           6  -4.42370645733965     
           7  -4.87862297939213     
[...]
 nber times 1st assigned=          21           0
 nber times 1st assigned=          22           0
 nber times 1st assigned=          23           0
 nber times 1st assigned=          24           0
 nber times 1st assigned=          25           0
 nber times 1st assigned=          26           0
 nber times 1st assigned=          27           0
 nber times 1st assigned=          28           0
 nber times 1st assigned=          29           0
 nber times 1st assigned=          30           0
 nber times 1st assigned=          31           0
 nber times 1st assigned=          32           0
 nber times 1st assigned=          33           0
 nber times 1st assigned=          34           0
 nber times 1st assigned=          35           0
 nber times 1st assigned=          36           0
 nber times 1st assigned=          37           0
 nber times 1st assigned=          38           0
 nber times 1st assigned=          39           0
 nber times 1st assigned=          40           0
 nber times 1st assigned=          41           0
 nber times 1st assigned=          42           0
 nber times 1st assigned=          43           0
 nber times 1st assigned=          44           0
 nber times 1st assigned=          45           0
 nber times 1st assigned=          46           0
 nber times 1st assigned=          47           0
 nber times 1st assigned=          48           0
 nber times 1st assigned=          49           0
 nber times 1st assigned=          50           0
 nber times 1st assigned=          51           0
 nber times 1st assigned=          52           0
 nber times 1st assigned=          53           0
 nber times 1st assigned=          54           0
 nber times 1st assigned=          55           0
 nber times 1st assigned=          56           0
 nber times 1st assigned=          57           0
 nber times 1st assigned=          58           0
 nber times 1st assigned=          59           0
 nber times 1st assigned=          60           0
 nber times 1st assigned=          61           0
 nber times 1st assigned=          62           0
 nber times 1st assigned=          63           0
 nber times 1st assigned=          64           0
 nber times 1st assigned=          65           0
 nber times 1st assigned=          66           0
 nber times 1st assigned=          67           0
 nber times 1st assigned=          68           0
 nber times 1st assigned=          69           0
 nber times 1st assigned=          70           0
 nber times 1st assigned=          71           0
 nber times 1st assigned=          72           0
 nber times 1st assigned=          73           0
 nber times 1st assigned=          74           0
 nber times 1st assigned=          75           0
 nber times 1st assigned=          76           0
 nber times 1st assigned=          77           0
 nber times 1st assigned=          78           0
 nber times 1st assigned=          79           0
 nber times 1st assigned=          80           0
 nber times 1st assigned=          81           0
 nber times 1st assigned=          82           0
 nber times 1st assigned=          83           0
 nber times 1st assigned=          84           0
 nber times 1st assigned=          85           0
 nber times 1st assigned=          86           0
 nber times 1st assigned=          87           0
 nber times 1st assigned=          88           0
 nber times 1st assigned=          89           0
 nber times 1st assigned=          90           0
 nber times 1st assigned=          91           0
 nber times 1st assigned=          92           0
 nber times 1st assigned=          93           0
 nber times 1st assigned=          94           0
 nber times 1st assigned=          95           0
 nber times 1st assigned=          96           0
 nber times 1st assigned=          97           0
 nber times 1st assigned=          98           0
 nber times 1st assigned=          99           0
 nber times 1st assigned=         100           0
 nber times 1st assigned=         101           0
 nber times 1st assigned=         102           0
 nber times 1st assigned=         103           0
 nber times 1st assigned=         104           0
 nber times 1st assigned=         105           0
 nber times 1st assigned=         106           0
 nber times 1st assigned=         107           0
 nber times 1st assigned=         108           0
 nber times 1st assigned=         109           0
 nber times 1st assigned=         110           0
 nber times 1st assigned=         111           0
 nber times 1st assigned=         112           0
 nber times 1st assigned=         113           0
 nber times 1st assigned=         114           0
 nber times 1st assigned=         115           0
 nber times 1st assigned=         116           0
 nber times 1st assigned=         117           0
 nber times 1st assigned=         118           0
 nber times 1st assigned=         119           0
 nber times 1st assigned=         120           0
 nber times 1st assigned=         121           0
 nber times 1st assigned=         122           0
 nber times 1st assigned=         123           0
 nber times 1st assigned=         124           0
 nber times 1st assigned=         125           0
 nber times 1st assigned=         126           0
 nber times 1st assigned=         127           0
 nber times 1st assigned=         128           0
 nber times 1st assigned=         129           0
 nber times 1st assigned=         130           0
 nber times 1st assigned=         131           0
 nber times 1st assigned=         132           0
 nber times 1st assigned=         133           0
 nber times 1st assigned=         134           0
 nber times 1st assigned=         135           0
 nber times 1st assigned=         136           0
 nber times 1st assigned=         137           0
 nber times 1st assigned=         138           0
 nber times 1st assigned=         139           0
 nber times 1st assigned=         140           0
 nber times 1st assigned=         141           0
 modes represented=   141.761734069508     
 p1=
    0.    0.    0.   -0.   -0.   -0.   -7. -315.    3. -228.    0.    0.   19.   35.    0.   28.   -0.   -0.    0.    0.
  -18.  -11.    1.    0.    0.   -0.   -1.   -0.    3.    0.   -3.   -1.   -2.   -0.   -3.  -10.    0.   -0.   -0.    2.
    3.    1.    0.   -3.   -0.    0.   -3.   -0.   -0.    0.    0.   -0.    2.   -3.   -0.   -0.    0.    0.   -2.   -4.
   -0.    0.   -1.    0.    0.    0.   -1.    0.   -0.    0.    0.   -0.   -0.    0.   -0.    0.    1.   -0.   -2.    0.
   -5.   -3.    0.   -0.    3.    2.    0.    3.   -0.   -3.   -0.   -0.    3.   -0.   -0.   -0.   -1.    0.    0.   -1.
    0.    1.   -0.    0.    0.   -0.    0.   -0.    0.    0.   -0.    0.   -0.    5.    0.    0.    0.    0.   -5.    0.
   -2.    2.    1.   -0.   -0.    0.   -0.   -0.    0.   -0.   -0.    0.    0.   -0.    0.    0.    0.   -0.    0.    0.
   -0.
 p2=
  232.    0.   -0.    0.    0.   -0.   -0.   -0.    0. -130.   -0.  215.   -0.    7.   -0.   22.    0.   -0.   -0.    0.
   12.   -3.   -0.  -10.    0.    0.    0.   17.   -0.   -3.    0.    5.   -7.    8.   -1.   -0.   -3.    3.    0.   -0.
    2.    0.    0.   -0.    0.   -7.    3.    0.    0.    0.    3.   -0.   -0.   -2.    0.    0.   -0.    1.   -0.   -0.
    2.   -2.   -0.    0.   -0.    0.    0.    0.    0.   -0.   -1.    0.    0.    0.   -0.    1.   -0.    0.   -5.    0.
   -3.    6.   -1.   -0.   -4.    2.   -0.    1.    0.   -2.   -1.   -0.   -0.    3.    0.   -0.   -0.   -1.    0.   -0.
   -0.   -0.   -1.    0.   -1.    0.    0.    0.    1.    0.   -0.    0.   -2.   -0.   -0.   -0.   -1.    6.   -0.   -0.
    1.    0.    1.   -0.    0.    0.    0.   -0.   -0.   -0.   -0.   -0.    0.    0.   -0.   -0.    0.    0.   -0.    0.
   -0.

 Displacement: in terms of nc of 1 THEN of nc of 2

   1     freq=    -0. Q=  0.000 lam=    -0.0     freq=   -69. Q=  7.787 lam= -2095.6
   2     freq=    -0. Q=  0.000 lam=    -0.0     freq=    -0. Q=  0.000 lam=    -0.0
   3     freq=    -0. Q=  0.000 lam=    -0.0     freq=    -0. Q=  0.000 lam=    -0.0
   4     freq=    -0. Q= -0.000 lam=    -0.0     freq=    -0. Q= -0.000 lam=    -0.0
   5     freq=     0. Q= -0.000 lam=     0.0     freq=     0. Q= -0.000 lam=     0.0
   6     freq=     0. Q= -0.000 lam=     0.0     freq=     0. Q= -0.000 lam=     0.0
   7     freq=    21. Q= -0.133 lam=     0.2     freq=     0. Q= -0.000 lam=     0.0
   8     freq=    28. Q= -6.739 lam=   640.3     freq=    18. Q= -0.002 lam=     0.0
   9     freq=    32. Q=  0.079 lam=     0.1     freq=    29. Q=  0.000 lam=     0.0
  10     freq=    54. Q= -6.746 lam=  1226.8     freq=    51. Q= -3.761 lam=   361.3
  11     freq=    91. Q=  0.009 lam=     0.0     freq=    66. Q=  0.004 lam=     0.0
  12     freq=   112. Q=  0.013 lam=     0.0     freq=    92. Q=  8.296 lam=  3149.3
  13     freq=   139. Q=  0.902 lam=    56.4     freq=    92. Q=  0.006 lam=     0.0
  14     freq=   155. Q=  1.745 lam=   236.7     freq=   152. Q=  0.361 lam=     9.9
  15     freq=   159. Q=  0.015 lam=     0.0     freq=   157. Q=  0.005 lam=     0.0
  16     freq=   205. Q=  1.641 lam=   276.4     freq=   199. Q=  1.241 lam=   153.5
  17     freq=   207. Q= -0.022 lam=     0.1     freq=   201. Q= -0.007 lam=     0.0
  18     freq=   225. Q= -0.002 lam=     0.0     freq=   210. Q= -0.001 lam=     0.0
  19     freq=   237. Q=  0.008 lam=     0.0     freq=   227. Q=  0.000 lam=     0.0
  20     freq=   258. Q=  0.004 lam=     0.0     freq=   252. Q=  0.005 lam=     0.0
  21     freq=   300. Q= -1.267 lam=   240.6     freq=   266. Q= -0.801 lam=    85.5
  22     freq=   330. Q= -0.814 lam=   109.4     freq=   335. Q= -0.229 lam=     8.8
  23     freq=   355. Q=  0.086 lam=     1.3     freq=   361. Q=  0.001 lam=     0.0
  24     freq=   358. Q=  0.001 lam=     0.0     freq=   369. Q=  0.759 lam=   106.2
  25     freq=   407. Q=  0.001 lam=     0.0     freq=   381. Q=  0.001 lam=     0.0
  26     freq=   409. Q= -0.001 lam=     0.0     freq=   396. Q= -0.010 lam=     0.0
  27     freq=   430. Q= -0.064 lam=     0.9     freq=   401. Q= -0.001 lam=     0.0
  28     freq=   436. Q= -0.023 lam=     0.1     freq=   405. Q= -1.370 lam=   380.1
  29     freq=   436. Q=  0.239 lam=    12.4     freq=   408. Q=  0.001 lam=     0.0
  30     freq=   451. Q=  0.003 lam=     0.0     freq=   443. Q=  0.267 lam=    15.8
  31     freq=   465. Q= -0.295 lam=    20.2     freq=   446. Q= -0.005 lam=     0.0
  32     freq=   478. Q= -0.064 lam=     1.0     freq=   448. Q= -0.432 lam=    41.9
  33     freq=   509. Q= -0.149 lam=     5.7     freq=   476. Q= -0.652 lam=   101.4
  34     freq=   514. Q= -0.020 lam=     0.1     freq=   500. Q= -0.723 lam=   130.7
  35     freq=   515. Q= -0.294 lam=    22.3     freq=   509. Q= -0.106 lam=     2.9
  36     freq=   535. Q= -0.974 lam=   253.5     freq=   513. Q= -0.003 lam=     0.0
  37     freq=   538. Q=  0.013 lam=     0.0     freq=   519. Q=  0.302 lam=    23.6
  38     freq=   542. Q= -0.001 lam=     0.0     freq=   535. Q= -0.313 lam=    26.1
  39     freq=   546. Q= -0.000 lam=     0.0     freq=   540. Q= -0.002 lam=     0.0
  40     freq=   554. Q=  0.198 lam=    10.9     freq=   545. Q=  0.000 lam=     0.0
  41     freq=   583. Q=  0.265 lam=    20.4     freq=   587. Q=  0.199 lam=    11.6
  42     freq=   601. Q=  0.110 lam=     3.6     freq=   599. Q=  0.045 lam=     0.6
  43     freq=   610. Q=  0.001 lam=     0.0     freq=   608. Q=  0.002 lam=     0.0
  44     freq=   667. Q= -0.324 lam=    35.1     freq=   630. Q= -0.001 lam=     0.0
  45     freq=   667. Q= -0.015 lam=     0.1     freq=   648. Q= -0.002 lam=     0.0
  46     freq=   688. Q=  0.001 lam=     0.0     freq=   659. Q=  0.711 lam=   166.5
  47     freq=   701. Q= -0.339 lam=    40.3     freq=   660. Q= -0.265 lam=    23.3
  48     freq=   711. Q= -0.004 lam=     0.0     freq=   686. Q= -0.037 lam=     0.5
  49     freq=   726. Q= -0.003 lam=     0.0     freq=   686. Q= -0.001 lam=     0.0
  50     freq=   732. Q=  0.043 lam=     0.7     freq=   705. Q=  0.002 lam=     0.0
  51     freq=   742. Q=  0.001 lam=     0.0     freq=   712. Q=  0.376 lam=    50.2
  52     freq=   758. Q= -0.003 lam=     0.0     freq=   721. Q= -0.001 lam=     0.0
  53     freq=   760. Q=  0.212 lam=    17.1     freq=   755. Q=  0.000 lam=     0.0
  54     freq=   760. Q= -0.310 lam=    36.4     freq=   756. Q= -0.218 lam=    18.0
  55     freq=   771. Q= -0.000 lam=     0.0     freq=   771. Q= -0.000 lam=     0.0
  56     freq=   777. Q= -0.050 lam=     1.0     freq=   779. Q= -0.041 lam=     0.7
  57     freq=   817. Q=  0.001 lam=     0.0     freq=   789. Q=  0.002 lam=     0.0
  58     freq=   828. Q=  0.002 lam=     0.0     freq=   793. Q=  0.145 lam=     8.3
  59     freq=   828. Q= -0.243 lam=    24.5     freq=   814. Q= -0.001 lam=     0.0
  60     freq=   844. Q= -0.474 lam=    94.8     freq=   825. Q= -0.001 lam=     0.0
  61     freq=   852. Q= -0.000 lam=     0.0     freq=   826. Q= -0.241 lam=    24.0
  62     freq=   863. Q=  0.000 lam=     0.0     freq=   839. Q=  0.283 lam=    33.5
  63     freq=   865. Q= -0.176 lam=    13.5     freq=   850. Q= -0.001 lam=     0.0
  64     freq=   895. Q=  0.000 lam=     0.0     freq=   888. Q=  0.002 lam=     0.0
  65     freq=   907. Q=  0.000 lam=     0.0     freq=   898. Q=  0.001 lam=     0.0
  66     freq=   921. Q=  0.001 lam=     0.0     freq=   914. Q=  0.000 lam=     0.0
  67     freq=   941. Q= -0.104 lam=     5.1     freq=   928. Q= -0.057 lam=     1.5
  68     freq=   941. Q=  0.020 lam=     0.2     freq=   929. Q=  0.000 lam=     0.0
  69     freq=   950. Q= -0.001 lam=     0.0     freq=   932. Q= -0.001 lam=     0.0
  70     freq=   978. Q=  0.010 lam=     0.1     freq=   936. Q=  0.001 lam=     0.0
  71     freq=   978. Q=  0.001 lam=     0.0     freq=   937. Q=  0.158 lam=    11.6
  72     freq=   980. Q= -0.000 lam=     0.0     freq=   978. Q= -0.000 lam=     0.0
  73     freq=   984. Q= -0.000 lam=     0.0     freq=   982. Q= -0.000 lam=     0.0
  74     freq=   992. Q=  0.000 lam=     0.0     freq=   991. Q=  0.000 lam=     0.0
  75     freq=   997. Q= -0.008 lam=     0.0     freq=   997. Q= -0.013 lam=     0.1
  76     freq=  1015. Q=  0.022 lam=     0.3     freq=  1009. Q=  0.074 lam=     2.8
  77     freq=  1021. Q=  0.183 lam=    17.1     freq=  1011. Q=  0.001 lam=     0.0
  78     freq=  1061. Q= -0.001 lam=     0.0     freq=  1015. Q= -0.062 lam=     2.0
  79     freq=  1065. Q= -0.296 lam=    46.6     freq=  1024. Q= -0.634 lam=   205.4
  80     freq=  1080. Q=  0.000 lam=     0.0     freq=  1078. Q=  0.000 lam=     0.0
  81     freq=  1092. Q= -0.733 lam=   293.2     freq=  1101. Q= -0.377 lam=    78.0
  82     freq=  1105. Q= -0.370 lam=    75.5     freq=  1107. Q= -0.787 lam=   343.2
  83     freq=  1134. Q=  0.004 lam=     0.0     freq=  1137. Q=  0.090 lam=     4.6
  84     freq=  1147. Q= -0.000 lam=     0.0     freq=  1145. Q= -0.001 lam=     0.0
  85     freq=  1152. Q=  0.392 lam=    88.6     freq=  1151. Q=  0.501 lam=   144.3
  86     freq=  1164. Q=  0.207 lam=    24.9     freq=  1171. Q=  0.221 lam=    28.6
  87     freq=  1172. Q=  0.000 lam=     0.0     freq=  1172. Q=  0.024 lam=     0.3
  88     freq=  1182. Q=  0.479 lam=   135.5     freq=  1182. Q=  0.166 lam=    16.2
  89     freq=  1186. Q= -0.005 lam=     0.0     freq=  1182. Q= -0.008 lam=     0.0
  90     freq=  1189. Q= -0.393 lam=    91.6     freq=  1195. Q= -0.340 lam=    69.0
  91     freq=  1204. Q= -0.008 lam=     0.0     freq=  1205. Q= -0.075 lam=     3.4
  92     freq=  1221. Q= -0.026 lam=     0.4     freq=  1210. Q= -0.002 lam=     0.0
  93     freq=  1252. Q=  0.403 lam=   101.6     freq=  1223. Q=  0.050 lam=     1.5
  94     freq=  1259. Q= -0.011 lam=     0.1     freq=  1257. Q= -0.415 lam=   108.1
  95     freq=  1262. Q= -0.001 lam=     0.0     freq=  1259. Q= -0.035 lam=     0.8
  96     freq=  1266. Q= -0.039 lam=     1.0     freq=  1267. Q= -0.052 lam=     1.7
  97     freq=  1294. Q= -0.100 lam=     6.5     freq=  1280. Q= -0.000 lam=     0.0
  98     freq=  1315. Q=  0.001 lam=     0.0     freq=  1322. Q=  0.197 lam=    25.6
  99     freq=  1326. Q=  0.001 lam=     0.0     freq=  1323. Q=  0.002 lam=     0.0
 100     freq=  1329. Q= -0.187 lam=    23.1     freq=  1340. Q= -0.001 lam=     0.0
 101     freq=  1338. Q=  0.065 lam=     2.8     freq=  1341. Q=  0.031 lam=     0.6
 102     freq=  1340. Q=  0.110 lam=     8.1     freq=  1351. Q=  0.012 lam=     0.1
 103     freq=  1352. Q= -0.018 lam=     0.2     freq=  1384. Q= -0.120 lam=    10.0
 104     freq=  1398. Q=  0.018 lam=     0.2     freq=  1408. Q=  0.041 lam=     1.2
 105     freq=  1405. Q=  0.016 lam=     0.2     freq=  1416. Q=  0.184 lam=    23.8
 106     freq=  1432. Q= -0.002 lam=     0.0     freq=  1431. Q= -0.038 lam=     1.1
 107     freq=  1449. Q=  0.017 lam=     0.2     freq=  1447. Q=  0.014 lam=     0.1
 108     freq=  1465. Q= -0.022 lam=     0.4     freq=  1450. Q= -0.007 lam=     0.0
 109     freq=  1467. Q=  0.000 lam=     0.0     freq=  1450. Q=  0.083 lam=     5.0
 110     freq=  1476. Q=  0.050 lam=     1.8     freq=  1465. Q=  0.023 lam=     0.4
 111     freq=  1486. Q= -0.006 lam=     0.0     freq=  1478. Q= -0.002 lam=     0.0
 112     freq=  1493. Q=  0.001 lam=     0.0     freq=  1485. Q=  0.031 lam=     0.7
 113     freq=  1494. Q= -0.038 lam=     1.1     freq=  1492. Q= -0.237 lam=    42.0
 114     freq=  1519. Q=  0.807 lam=   494.3     freq=  1495. Q=  0.069 lam=     3.5
 115     freq=  1529. Q=  0.046 lam=     1.6     freq=  1525. Q=  0.001 lam=     0.0
 116     freq=  1600. Q=  0.036 lam=     1.1     freq=  1528. Q=  0.032 lam=     0.8
 117     freq=  1604. Q=  0.000 lam=     0.0     freq=  1563. Q=  0.233 lam=    42.5
 118     freq=  1615. Q=  0.000 lam=     0.0     freq=  1577. Q=  0.978 lam=   753.7
 119     freq=  1619. Q= -0.843 lam=   575.8     freq=  1594. Q= -0.002 lam=     0.0
 120     freq=  1622. Q=  0.064 lam=     3.4     freq=  1598. Q=  0.025 lam=     0.5
 121     freq=  1633. Q= -0.387 lam=   122.5     freq=  1630. Q= -0.099 lam=     7.9
 122     freq=  1641. Q=  0.334 lam=    91.3     freq=  1635. Q=  0.005 lam=     0.0
 123     freq=  1643. Q=  0.151 lam=    18.7     freq=  1663. Q=  0.233 lam=    45.1
 124     freq=  1671. Q= -0.015 lam=     0.2     freq=  1674. Q= -0.032 lam=     0.9
 125     freq=  3159. Q= -0.001 lam=     0.0     freq=  3156. Q= -0.000 lam=     0.0
 126     freq=  3160. Q=  0.001 lam=     0.0     freq=  3156. Q=  0.013 lam=     0.3
 127     freq=  3161. Q= -0.000 lam=     0.0     freq=  3160. Q= -0.002 lam=     0.0
 128     freq=  3168. Q= -0.000 lam=     0.0     freq=  3161. Q= -0.005 lam=     0.0
 129     freq=  3168. Q=  0.007 lam=     0.1     freq=  3162. Q=  0.000 lam=     0.0
 130     freq=  3169. Q= -0.000 lam=     0.0     freq=  3170. Q= -0.008 lam=     0.1
 131     freq=  3176. Q= -0.006 lam=     0.1     freq=  3179. Q= -0.001 lam=     0.0
 132     freq=  3176. Q=  0.001 lam=     0.0     freq=  3179. Q=  0.013 lam=     0.2
 133     freq=  3176. Q=  0.006 lam=     0.1     freq=  3179. Q=  0.001 lam=     0.0
 134     freq=  3178. Q= -0.003 lam=     0.0     freq=  3179. Q= -0.001 lam=     0.0
 135     freq=  3178. Q=  0.002 lam=     0.0     freq=  3185. Q=  0.000 lam=     0.0
 136     freq=  3185. Q=  0.002 lam=     0.0     freq=  3186. Q=  0.004 lam=     0.0
 137     freq=  3185. Q=  0.002 lam=     0.0     freq=  3187. Q=  0.004 lam=     0.0
 138     freq=  3192. Q= -0.001 lam=     0.0     freq=  3196. Q= -0.000 lam=     0.0
 139     freq=  3192. Q=  0.017 lam=     0.4     freq=  3196. Q=  0.028 lam=     1.3
 140     freq=  3212. Q=  0.001 lam=     0.0     freq=  3215. Q=  0.001 lam=     0.0
 141     freq=  3213. Q= -0.006 lam=     0.1     freq=  3216. Q= -0.020 lam=     0.6

 total reorg energy (cm**-1, kcal/mol)=     5639.     4830.     16.12     13.81
 Nber of molecules processed=           2
