 Enter ifcurve (0=recti, 1=orth curvi, 2=apprx curvi, -1 = skip
 And atom ordering flag, 0= never changes, 1= use the first order thenceforth,
  2= deduce it (does read on fail), 3= always read it
 Reading file: 
 ./TT-PDI_5_C0S2.log                                                            
                                          
  Entering Gaussian System, Link 0=g16                                          
  
 Gaussian format, type: g94, g98, g03= F F F
  #P Geom=AllCheck Guess=TCheck SCRF=Check GenChk RB3LYP TD(FC,Read)/6-3    
 energy type= TD      
 Original G94 input coords:
  6  1.625060 -0.955509 -1.031866
  6  2.387630 -0.088798 -0.024590
  6  3.592328 -0.797197  0.603210
  7  2.768910  1.236237 -0.611609
  6  3.660710  1.274958 -1.689928
  8  4.136230  0.253766 -2.163469
  6  4.007705  2.604737 -2.237664
  6  4.895966  2.684215 -3.316635
  6  5.239908  3.909461 -3.850699
  6  4.712513  5.124751 -3.332813
  6  5.062356  6.411132 -3.880116
  6  5.959010  6.546276 -4.975144
  6  6.287296  7.781346 -5.491699
  6  5.739632  8.949375 -4.944733
  6  6.123578 10.241136 -5.533794
  8  6.886527 10.357949 -6.466579
  7  5.532173 11.401063 -4.932404
  6  5.860758 12.606065 -5.444371
  6  6.155877 13.686760 -5.902101
  6  6.484981 14.894866 -6.414582
  6  6.778245 15.982029 -6.878409
  6  7.127856 17.230300 -7.398574
  6  6.532955 17.915090 -8.439047
  6  7.164673 19.154613 -8.683414
 16  6.916749 20.458903 -9.815740
  6  8.261948 21.337294 -9.126909
  6  8.867941 20.681146 -8.095319
  6  8.239239 19.430774 -7.841555
 16  8.494577 18.136665 -6.709217
  6  4.617247 11.376933 -3.827614
  8  4.166250 12.409849 -3.385422
  6  4.287841 10.044769 -3.299817
  6  3.399430  9.959538 -2.219477
  6  3.058618  8.733994 -1.688667
  6  3.588875  7.522370 -2.210486
  6  3.238924  6.236151 -1.663148
  6  2.342582  6.094187 -0.567947
  6  2.016180  4.855624 -0.053931
  6  2.565889  3.691460 -0.604154
  6  2.194379  2.381239 -0.029282
  8  1.420499  2.301205  0.911813
  6  3.459608  3.783680 -1.691158
  6  3.806382  5.058234 -2.233258
  6  4.495575  7.591753 -3.311256
  6  4.842725  8.868127 -3.854523
  1  1.241531 -1.841542 -0.518719
  1  2.265102 -1.278341 -1.851936
  1  0.769732 -0.411549 -1.440897
  1  1.701840  0.184995  0.774053
  1  4.312289 -1.113108 -0.150631
  1  3.242318 -1.680906  1.143600
  1  4.093518 -0.144243  1.322407
  1  5.301207  1.763374 -3.715712
  1  5.928464  3.931823 -4.683318
  1  6.400904  5.667594 -5.422599
  1  6.970647  7.877304 -6.325539
  1  5.685668 17.521259 -8.981674
  1  8.521704 22.300632 -9.538175
  1  9.715311 21.073940 -7.551304
  1  2.991938 10.878091 -1.817374
  1  2.370654  8.707514 -0.855845
  1  1.898545  6.970344 -0.117320
  1  1.333174  4.756044  0.779693
 nber atoms=          63
  Total Energy, E(TD-HF/TD-DFT) =  -2627.95584837                               
  
          32          49 "  -2627.95584837"
After scan for Atom:   Atom  AN      X      Y      Z        X      Y      Z        X      Y      Z   
After scan for Atom:   Atom  AN      X      Y      Z        X      Y      Z        X      Y      Z   
After scan for Atom:   Atom  AN      X      Y      Z        X      Y      Z        X      Y      Z   
After scan for Atom:   Atom  AN      X      Y      Z        X      Y      Z        X      Y      Z   
After scan for Atom:   Atom  AN      X      Y      Z        X      Y      Z        X      Y      Z   
After scan for Atom:   Atom  AN      X      Y      Z        X      Y      Z        X      Y      Z   
After scan for Atom:   Atom  AN      X      Y      Z        X      Y      Z        X      Y      Z   
After scan for Atom:   Atom  AN      X      Y      Z        X      Y      Z        X      Y      Z   
After scan for Atom:   Atom  AN      X      Y      Z        X      Y      Z        X      Y      Z   
After scan for Atom:   Atom  AN      X      Y      Z        X      Y      Z        X      Y      Z   
After scan for Atom:   Atom  AN      X      Y      Z        X      Y      Z        X      Y      Z   
After scan for Atom:   Atom  AN      X      Y      Z        X      Y      Z        X      Y      Z   
After scan for Atom:   Atom  AN      X      Y      Z        X      Y      Z        X      Y      Z   
After scan for Atom:   Atom  AN      X      Y      Z        X      Y      Z        X      Y      Z   
After scan for Atom:   Atom  AN      X      Y      Z        X      Y      Z        X      Y      Z   
After scan for Atom:   Atom  AN      X      Y      Z        X      Y      Z        X      Y      Z   
After scan for Atom:   Atom  AN      X      Y      Z        X      Y      Z        X      Y      Z   
After scan for Atom:   Atom  AN      X      Y      Z        X      Y      Z        X      Y      Z   
After scan for Atom:   Atom  AN      X      Y      Z        X      Y      Z        X      Y      Z   
After scan for Atom:   Atom  AN      X      Y      Z        X      Y      Z        X      Y      Z   
After scan for Atom:   Atom  AN      X      Y      Z        X      Y      Z        X      Y      Z   
After scan for Atom:   Atom  AN      X      Y      Z        X      Y      Z        X      Y      Z   
After scan for Atom:   Atom  AN      X      Y      Z        X      Y      Z        X      Y      Z   
After scan for Atom:   Atom  AN      X      Y      Z        X      Y      Z        X      Y      Z   
After scan for Atom:   Atom  AN      X      Y      Z        X      Y      Z        X      Y      Z   
After scan for Atom:   Atom  AN      X      Y      Z        X      Y      Z        X      Y      Z   
After scan for Atom:   Atom  AN      X      Y      Z        X      Y      Z        X      Y      Z   
After scan for Atom:   Atom  AN      X      Y      Z        X      Y      Z        X      Y      Z   
After scan for Atom:   Atom  AN      X      Y      Z        X      Y      Z        X      Y      Z   
After scan for Atom:   Atom  AN      X      Y      Z        X      Y      Z        X      Y      Z   
After scan for Atom:   Atom  AN      X      Y      Z        X      Y      Z        X      Y      Z   
After scan for Atom:   Atom  AN      X      Y      Z        X      Y      Z        X      Y      Z   
After scan for Atom:   Atom  AN      X      Y      Z        X      Y      Z        X      Y      Z   
After scan for Atom:   Atom  AN      X      Y      Z        X      Y      Z        X      Y      Z   
After scan for Atom:   Atom  AN      X      Y      Z        X      Y      Z        X      Y      Z   
After scan for Atom:   Atom  AN      X      Y      Z        X      Y      Z        X      Y      Z   
After scan for Atom:   Atom  AN      X      Y      Z        X      Y      Z        X      Y      Z   
After scan for Atom:   Atom  AN      X      Y      Z        X      Y      Z        X      Y      Z   
After scan for Atom:   Atom  AN      X      Y      Z        X      Y      Z        X      Y      Z   
After scan for Atom:   Atom  AN      X      Y      Z        X      Y      Z        X      Y      Z   
After scan for Atom:   Atom  AN      X      Y      Z        X      Y      Z        X      Y      Z   
After scan for Atom:   Atom  AN      X      Y      Z        X      Y      Z        X      Y      Z   
After scan for Atom:   Atom  AN      X      Y      Z        X      Y      Z        X      Y      Z   
After scan for Atom:   Atom  AN      X      Y      Z        X      Y      Z        X      Y      Z   
After scan for Atom:   Atom  AN      X      Y      Z        X      Y      Z        X      Y      Z   
After scan for Atom:   Atom  AN      X      Y      Z        X      Y      Z        X      Y      Z   
After scan for Atom:   Atom  AN      X      Y      Z        X      Y      Z        X      Y      Z   
After scan for Atom:   Atom  AN      X      Y      Z        X      Y      Z        X      Y      Z   
After scan for Atom:   Atom  AN      X      Y      Z        X      Y      Z        X      Y      Z   
After scan for Atom:   Atom  AN      X      Y      Z        X      Y      Z        X      Y      Z   
After scan for Atom:   Atom  AN      X      Y      Z        X      Y      Z        X      Y      Z   
After scan for Atom:   Atom  AN      X      Y      Z        X      Y      Z        X      Y      Z   
After scan for Atom:   Atom  AN      X      Y      Z        X      Y      Z        X      Y      Z   
After scan for Atom:   Atom  AN      X      Y      Z        X      Y      Z        X      Y      Z   
After scan for Atom:   Atom  AN      X      Y      Z        X      Y      Z        X      Y      Z   
After scan for Atom:   Atom  AN      X      Y      Z        X      Y      Z        X      Y      Z   
After scan for Atom:   Atom  AN      X      Y      Z        X      Y      Z        X      Y      Z   
After scan for Atom:   Atom  AN      X      Y      Z        X      Y      Z        X      Y      Z   
After scan for Atom:   Atom  AN      X      Y      Z        X      Y      Z        X      Y      Z   
After scan for Atom:   Atom  AN      X      Y      Z        X      Y      Z        X      Y      Z   
After scan for Atom:   Atom  AN      X      Y      Z        X      Y      Z        X      Y      Z   
 g94    frequencies=
     0.0    0.0    0.0    0.0    0.0    0.0    4.9    7.7   10.2   24.4
    29.2   39.6   48.6   55.2   61.4   76.0   89.1   99.2  106.8  116.1
   119.9  142.7  167.8  173.8  185.6  195.7  202.9  208.7  219.1  232.9
   235.5  236.3  241.5  255.6  280.5  293.3  301.3  320.6  331.2  349.7
   371.5  385.5  393.0  395.7  417.1  421.4  427.3  432.5  438.3  446.8
   451.4  456.7  463.6  467.6  472.3  478.1  485.7  502.2  502.6  505.7
   524.6  536.6  548.4  563.2  574.0  576.8  580.5  599.2  604.4  611.0
   615.8  625.0  636.3  652.1  665.9  681.0  703.7  706.8  709.1  714.1
   722.7  746.8  757.5  758.0  759.5  765.0  779.5  801.8  810.3  810.7
   815.5  823.0  827.1  832.4  841.5  842.9  855.1  879.7  901.7  914.7
   926.7  936.7  945.5  956.6  971.0  975.6  977.3  988.6  989.4 1053.1
  1062.0 1088.6 1101.1 1105.1 1117.3 1137.4 1155.7 1162.2 1169.8 1175.0
  1186.0 1196.8 1200.7 1203.5 1213.6 1224.8 1233.2 1243.6 1269.4 1288.0
  1303.4 1321.3 1325.3 1343.7 1351.7 1366.3 1372.5 1379.0 1382.0 1391.4
  1400.3 1405.8 1413.7 1416.5 1430.1 1438.2 1444.5 1451.4 1458.9 1471.2
  1485.0 1491.3 1497.7 1505.1 1507.7 1513.1 1522.4 1545.8 1547.5 1554.7
  1574.7 1594.0 1599.2 1610.2 1622.1 1686.7 1726.4 1733.4 1761.4 2244.4
  2323.8 3034.6 3038.7 3092.7 3095.9 3112.8 3132.6 3143.1 3199.1 3199.4
  3205.5 3205.7 3213.6 3213.7 3214.6 3224.1 3225.5 3225.7 3244.5
 g94    symmetries=
                                                 A      A      A      A
       A      A      A      A      A      A      A      A      A      A
       A      A      A      A      A      A      A      A      A      A
       A      A      A      A      A      A      A      A      A      A
       A      A      A      A      A      A      A      A      A      A
       A      A      A      A      A      A      A      A      A      A
       A      A      A      A      A      A      A      A      A      A
       A      A      A      A      A      A      A      A      A      A
       A      A      A      A      A      A      A      A      A      A
       A      A      A      A      A      A      A      A      A      A
       A      A      A      A      A      A      A      A      A      A
       A      A      A      A      A      A      A      A      A      A
       A      A      A      A      A      A      A      A      A      A
       A      A      A      A      A      A      A      A      A      A
       A      A      A      A      A      A      A      A      A      A
       A      A      A      A      A      A      A      A      A      A
       A      A      A      A      A      A      A      A      A      A
       A      A      A      A      A      A      A      A      A      A
       A      A      A      A      A      A      A      A      A
 atomic masses:
 12.0000 12.0000 12.0000 14.0031 12.0000 15.9949 12.0000 12.0000 12.0000 12.0000
 12.0000 12.0000 12.0000 12.0000 12.0000 15.9949 14.0031 12.0000 12.0000 12.0000
 12.0000 12.0000 12.0000 12.0000 31.9721 12.0000 12.0000 12.0000 31.9721 12.0000
 15.9949 12.0000 12.0000 12.0000 12.0000 12.0000 12.0000 12.0000 12.0000 12.0000
 15.9949 12.0000 12.0000 12.0000 12.0000  1.0078  1.0078  1.0078  1.0078  1.0078
  1.0078  1.0078  1.0078  1.0078  1.0078  1.0078  1.0078  1.0078  1.0078  1.0078
  1.0078  1.0078  1.0078
 looking for force constants in 
 ./TT-PDI_5_C0S2.fchk                                                           
  
 Cartesian Force Constants                  R   N=       17955                  
  
 n3=         189       17955
 g94-fc frequencies=
    -0.0   -0.0    0.0    0.8    1.2    3.5    6.1    7.7   10.2   24.4
    29.2   39.6   48.6   55.2   61.4   76.0   89.1   99.2  106.9  116.1
   119.9  142.7  167.8  173.9  185.6  195.7  202.9  208.7  219.1  232.9
   235.5  236.3  241.5  255.6  280.5  293.3  301.3  320.6  331.2  349.7
   371.5  385.5  393.0  395.7  417.1  421.4  427.3  432.5  438.4  446.8
   451.4  456.8  463.6  467.6  472.3  478.1  485.7  502.2  502.7  505.7
   524.6  536.6  548.4  563.2  574.0  576.8  580.5  599.3  604.4  611.0
   615.8  625.0  636.3  652.2  665.9  681.1  703.7  706.8  709.1  714.1
   722.7  746.9  757.5  758.0  759.5  765.0  779.5  801.8  810.3  810.7
   815.5  823.0  827.1  832.4  841.5  842.9  855.1  879.7  901.7  914.8
   926.7  936.7  945.5  956.6  971.0  975.6  977.3  988.7  989.4 1053.1
  1062.0 1088.6 1101.1 1105.2 1117.3 1137.4 1155.8 1162.2 1169.8 1175.0
  1186.1 1196.8 1200.8 1203.5 1213.7 1224.8 1233.2 1243.6 1269.5 1288.0
  1303.4 1321.3 1325.3 1343.7 1351.7 1366.3 1372.5 1379.0 1382.0 1391.4
  1400.3 1405.8 1413.8 1416.5 1430.2 1438.2 1444.5 1451.4 1459.0 1471.2
  1485.0 1491.4 1497.8 1505.1 1507.7 1513.1 1522.5 1545.8 1547.5 1554.7
  1574.7 1594.0 1599.2 1610.3 1622.2 1686.7 1726.4 1733.4 1761.5 2244.5
  2323.8 3034.7 3038.8 3092.8 3096.0 3112.8 3132.7 3143.1 3199.2 3199.5
  3205.6 3205.7 3213.6 3213.8 3214.6 3224.2 3225.5 3225.8 3244.6
 at 99999: n3=         189
 symm operator            1 :  F  nop=           0
 symm operator            2 :  F  nop=           0
 symm operator            3 :  F  nop=           0
 symm operator            4 :  F  nop=           0
 symm operator            5 :  F  nop=           0
 symm operator            6 :  F  nop=           0
 symm operator            7 :  F  nop=           0
 The point group of the molecule is  C1
 Symmetry rotation matrix:
   1.00000   0.00000   0.00000
   0.00000   1.00000   0.00000
   0.00000   0.00000   1.00000

 Projecting out zero-frequency components
 generating redundant internal coords
         300        3600          63
 search for int coords
   1 str   2   1   1.532
   2 str   3   2   1.532
   3 str   4   2   1.499
   4 str   5   4   1.400
   5 str   6   5   1.222
   6 str   7   5   1.479
   7 str   8   7   1.400
   8 str   9   8   1.380
   9 str  10   9   1.422
  10 str  11  10   1.441
  11 str  12  11   1.422
  12 str  13  12   1.378
  13 str  14  13   1.401
  14 str  15  14   1.471
  15 str  16  15   1.211
  16 str  17  15   1.434
  17 str  18  17   1.350
  18 str  19  18   1.210
  19 str  20  19   1.353
  20 str  21  20   1.218
  21 str  22  21   1.397
  22 str  23  22   1.380
  23 str  24  23   1.413
  24 str  25  24   1.745
  25 str  26  25   1.748
  26 str  27  26   1.365
  27 str  28  24   1.393
  28 str  28  27   1.422
  29 str  29  22   1.779
  30 str  29  28   1.738
  31 str  30  17   1.435
  32 str  31  30   1.211
  33 str  32  30   1.470
  34 str  33  32   1.401
  35 str  34  33   1.378
  36 str  35  34   1.422
  37 str  36  35   1.441
  38 str  37  36   1.422
  39 str  38  37   1.380
  40 str  39  38   1.400
  41 str  40   4   1.407
  42 str  40  39   1.478
  43 str  41  40   1.221
  44 str  42   7   1.410
  45 str  42  39   1.410
  46 str  43  10   1.426
  47 str  43  36   1.426
  48 str  43  42   1.428
  49 str  44  11   1.428
  50 str  44  35   1.428
  51 str  45  14   1.414
  52 str  45  32   1.414
  53 str  45  44   1.430
  54 str  46   1   1.093
  55 str  47   1   1.089
  56 str  48   1   1.093
  57 str  49   2   1.088
  58 str  50   3   1.089
  59 str  51   3   1.093
  60 str  52   3   1.093
  61 str  53   8   1.082
  62 str  54   9   1.081
  63 str  55  12   1.081
  64 str  56  13   1.082
  65 str  57  23   1.080
  66 str  58  26   1.079
  67 str  59  27   1.081
  68 str  60  33   1.082
  69 str  61  34   1.081
  70 str  62  37   1.081
  71 str  63  38   1.082
 nber stretches=          71
  72 ben   1   2   3
  73 prop tor   1   2   3  50
  74 prop tor   1   2   3  51
  75 prop tor   1   2   3  52
  76 ben   1   2   4
  77 prop tor   1   2   4   5
  78 prop tor   1   2   4  40
  79 ben   1   2  49
  80 ben   2   1  46
  81 ben   2   1  47
  82 ben   2   1  48
  83 ben   2   3  50
  84 ben   2   3  51
  85 ben   2   3  52
  86 ben   2   4   5
  87 prop tor   2   4   5   6
  88 prop tor   2   4   5   7
  89 ben   2   4  40
  90 prop tor   2   4  40  39
  91 prop tor   2   4  40  41
  92 ben   3   2   4
  93 prop tor   3   2   4   5
  94 prop tor   3   2   4  40
  95 ben   3   2  49
  96 prop tor   4   2   3  50
  97 prop tor   4   2   3  51
  98 prop tor   4   2   3  52
  99 ben   4   2  49
 100 ben   4   5   6
 101 ben   4   5   7
 102 prop tor   4   5   7   8
 103 prop tor   4   5   7  42
 104 ben   4  40  39
 105 ben   4  40  41
 106 ben   5   4  40
 107 prop tor   5   4  40  39
 108 prop tor   5   4  40  41
 109 ben   5   7   8
 110 prop tor   5   7   8   9
 111 prop tor   5   7   8  53
 112 ben   5   7  42
 113 prop tor   5   7  42  39
 114 prop tor   5   7  42  43
 115 ben   6   5   7
 116 prop tor   6   5   7   8
 117 prop tor   6   5   7  42
 118 ben   7   8   9
 119 prop tor   7   8   9  10
 120 prop tor   7   8   9  54
 121 ben   7   8  53
 122 ben   7  42  39
 123 ben   7  42  43
 124 prop tor   7  42  43  10
 125 prop tor   7  42  43  36
 126 ben   8   7  42
 127 prop tor   8   7  42  39
 128 prop tor   8   7  42  43
 129 ben   8   9  10
 130 prop tor   8   9  10  11
 131 prop tor   8   9  10  43
 132 ben   8   9  54
 133 ben   9   8  53
 134 ben   9  10  11
 135 prop tor   9  10  11  12
 136 prop tor   9  10  11  44
 137 ben   9  10  43
 138 prop tor   9  10  43  36
 139 prop tor   9  10  43  42
 140 ben  10   9  54
 141 ben  10  11  12
 142 prop tor  10  11  12  13
 143 prop tor  10  11  12  55
 144 ben  10  11  44
 145 prop tor  10  11  44  35
 146 prop tor  10  11  44  45
 147 ben  10  43  36
 148 ben  10  43  42
 149 ben  11  10  43
 150 prop tor  11  10  43  36
 151 prop tor  11  10  43  42
 152 ben  11  12  13
 153 prop tor  11  12  13  14
 154 prop tor  11  12  13  56
 155 ben  11  12  55
 156 ben  11  44  35
 157 ben  11  44  45
 158 prop tor  11  44  45  14
 159 prop tor  11  44  45  32
 160 ben  12  11  44
 161 prop tor  12  11  44  35
 162 prop tor  12  11  44  45
 163 ben  12  13  14
 164 prop tor  12  13  14  15
 165 prop tor  12  13  14  45
 166 ben  12  13  56
 167 ben  13  12  55
 168 ben  13  14  15
 169 prop tor  13  14  15  16
 170 prop tor  13  14  15  17
 171 ben  13  14  45
 172 prop tor  13  14  45  32
 173 prop tor  13  14  45  44
 174 ben  14  13  56
 175 ben  14  15  16
 176 ben  14  15  17
 177 prop tor  14  15  17  18
 178 prop tor  14  15  17  30
 179 ben  14  45  32
 180 ben  14  45  44
 181 ben  15  14  45
 182 prop tor  15  14  45  32
 183 prop tor  15  14  45  44
 184 ben  15  17  18
 185 prop tor  15  17  18  19
 186 ben  15  17  30
 187 prop tor  15  17  30  31
 188 prop tor  15  17  30  32
 189 ben  16  15  17
 190 prop tor  16  15  17  18
 191 prop tor  16  15  17  30
 192 lin ben  17  18  19
 194 ben  17  30  31
 195 ben  17  30  32
 196 prop tor  17  30  32  33
 197 prop tor  17  30  32  45
 198 ben  18  17  30
 199 prop tor  18  17  30  31
 200 prop tor  18  17  30  32
 Extend lin bond           1          17          18          20
 201 lin ben  18  19  20
 203 lin ben  19  20  21
 Extend lin bond           2          19          20          22
 205 lin ben  20  21  22
 207 ben  21  22  23
 208 prop tor  21  22  23  24
 209 prop tor  21  22  23  57
 210 ben  21  22  29
 211 prop tor  21  22  29  28
 212 ben  22  23  24
 213 prop tor  22  23  24  25
 214 prop tor  22  23  24  28
 215 ben  22  23  57
 216 ben  22  29  28
 217 ben  23  22  29
 218 prop tor  23  22  29  28
 219 ben  23  24  25
 220 prop tor  23  24  25  26
 221 ben  23  24  28
 222 prop tor  23  24  28  27
 223 prop tor  23  24  28  29
 224 ben  24  23  57
 225 ben  24  25  26
 226 prop tor  24  25  26  27
 227 prop tor  24  25  26  58
 228 ben  24  28  27
 229 ben  24  28  29
 230 prop tor  24  28  29  22
 231 ben  25  24  28
 232 prop tor  25  24  28  27
 233 prop tor  25  24  28  29
 234 ben  25  26  27
 235 prop tor  25  26  27  28
 236 prop tor  25  26  27  59
 237 ben  25  26  58
 238 ben  26  27  28
 239 prop tor  26  27  28  24
 240 prop tor  26  27  28  29
 241 ben  26  27  59
 242 ben  27  26  58
 243 ben  27  28  29
 244 prop tor  27  28  29  22
 245 prop tor  28  24  25  26
 246 ben  28  27  59
 247 prop tor  29  22  23  24
 248 prop tor  29  22  23  57
 249 prop tor  30  17  18  19
 250 ben  30  32  33
 251 prop tor  30  32  33  34
 252 prop tor  30  32  33  60
 253 ben  30  32  45
 254 prop tor  30  32  45  14
 255 prop tor  30  32  45  44
 256 ben  31  30  32
 257 prop tor  31  30  32  33
 258 prop tor  31  30  32  45
 259 ben  32  33  34
 260 prop tor  32  33  34  35
 261 prop tor  32  33  34  61
 262 ben  32  33  60
 263 ben  32  45  44
 264 ben  33  32  45
 265 prop tor  33  32  45  14
 266 prop tor  33  32  45  44
 267 ben  33  34  35
 268 prop tor  33  34  35  36
 269 prop tor  33  34  35  44
 270 ben  33  34  61
 271 ben  34  33  60
 272 ben  34  35  36
 273 prop tor  34  35  36  37
 274 prop tor  34  35  36  43
 275 ben  34  35  44
 276 prop tor  34  35  44  11
 277 prop tor  34  35  44  45
 278 ben  35  34  61
 279 ben  35  36  37
 280 prop tor  35  36  37  38
 281 prop tor  35  36  37  62
 282 ben  35  36  43
 283 prop tor  35  36  43  10
 284 prop tor  35  36  43  42
 285 ben  35  44  45
 286 prop tor  35  44  45  14
 287 prop tor  35  44  45  32
 288 ben  36  35  44
 289 prop tor  36  35  44  11
 290 prop tor  36  35  44  45
 291 ben  36  37  38
 292 prop tor  36  37  38  39
 293 prop tor  36  37  38  63
 294 ben  36  37  62
 295 ben  36  43  42
 296 ben  37  36  43
 297 prop tor  37  36  43  10
 298 prop tor  37  36  43  42
 299 ben  37  38  39
 300 prop tor  37  38  39  40
 301 prop tor  37  38  39  42
 302 ben  37  38  63
 303 ben  38  37  62
 304 ben  38  39  40
 305 prop tor  38  39  40   4
 306 prop tor  38  39  40  41
 307 ben  38  39  42
 308 prop tor  38  39  42   7
 309 prop tor  38  39  42  43
 310 ben  39  38  63
 311 ben  39  40  41
 312 ben  39  42  43
 313 prop tor  39  42  43  10
 314 prop tor  39  42  43  36
 315 prop tor  40   4   5   6
 316 prop tor  40   4   5   7
 317 ben  40  39  42
 318 prop tor  40  39  42   7
 319 prop tor  40  39  42  43
 320 prop tor  42   7   8   9
 321 prop tor  42   7   8  53
 322 prop tor  42  39  40   4
 323 prop tor  42  39  40  41
 324 prop tor  43  10  11  12
 325 prop tor  43  10  11  44
 326 prop tor  43  36  37  38
 327 prop tor  43  36  37  62
 328 prop tor  44  11  12  13
 329 prop tor  44  11  12  55
 330 prop tor  44  35  36  37
 331 prop tor  44  35  36  43
 332 prop tor  45  14  15  16
 333 prop tor  45  14  15  17
 334 prop tor  45  32  33  34
 335 prop tor  45  32  33  60
 336 prop tor  46   1   2   3
 337 prop tor  46   1   2   4
 338 prop tor  46   1   2  49
 339 ben  46   1  47
 340 ben  46   1  48
 341 prop tor  47   1   2   3
 342 prop tor  47   1   2   4
 343 prop tor  47   1   2  49
 344 ben  47   1  48
 345 prop tor  48   1   2   3
 346 prop tor  48   1   2   4
 347 prop tor  48   1   2  49
 348 prop tor  49   2   3  50
 349 prop tor  49   2   3  51
 350 prop tor  49   2   3  52
 351 prop tor  49   2   4   5
 352 prop tor  49   2   4  40
 353 ben  50   3  51
 354 ben  50   3  52
 355 ben  51   3  52
 356 prop tor  53   8   9  10
 357 prop tor  53   8   9  54
 358 prop tor  54   9  10  11
 359 prop tor  54   9  10  43
 360 prop tor  55  12  13  14
 361 prop tor  55  12  13  56
 362 prop tor  56  13  14  15
 363 prop tor  56  13  14  45
 364 prop tor  57  23  24  25
 365 prop tor  57  23  24  28
 366 prop tor  58  26  27  28
 367 prop tor  58  26  27  59
 368 prop tor  59  27  28  24
 369 prop tor  59  27  28  29
 370 prop tor  60  33  34  35
 371 prop tor  60  33  34  61
 372 prop tor  61  34  35  36
 373 prop tor  61  34  35  44
 374 prop tor  62  37  38  39
 375 prop tor  62  37  38  63
 376 prop tor  63  38  39  40
 377 prop tor  63  38  39  42
 378 lin bend prop tor  15  17  20  19
 379 lin bend prop tor  15  17  20  21
 380 lin bend prop tor  18  17  20  19
 381 lin bend prop tor  18  17  20  21
 382 lin bend prop tor  30  17  20  19
 383 lin bend prop tor  30  17  20  21
 384 lin bend prop tor  18  19  22  21
 385 lin bend prop tor  18  19  22  23
 386 lin bend prop tor  18  19  22  29
 387 lin bend prop tor  20  19  22  21
 388 lin bend prop tor  20  19  22  23
 389 lin bend prop tor  20  19  22  29
 nber bend=             124
 nber lin bend=           2
 nber prop tor=         194
 nber impr tor=           0
 nber tot redund int=         389
 Eigenvalues of G in red int coords
    Gval -0.00000000 -0.00000000 -0.00000000 -0.00000000 -0.00000000 -0.00000000 -0.00000000 -0.00000000
    Gval -0.00000000 -0.00000000 -0.00000000 -0.00000000 -0.00000000 -0.00000000 -0.00000000 -0.00000000
    Gval -0.00000000 -0.00000000 -0.00000000 -0.00000000 -0.00000000 -0.00000000 -0.00000000 -0.00000000
    Gval -0.00000000 -0.00000000 -0.00000000 -0.00000000 -0.00000000 -0.00000000 -0.00000000 -0.00000000
    Gval -0.00000000 -0.00000000 -0.00000000 -0.00000000 -0.00000000 -0.00000000 -0.00000000 -0.00000000
    Gval -0.00000000 -0.00000000 -0.00000000 -0.00000000 -0.00000000 -0.00000000 -0.00000000 -0.00000000
    Gval -0.00000000 -0.00000000 -0.00000000 -0.00000000 -0.00000000 -0.00000000 -0.00000000 -0.00000000
    Gval -0.00000000 -0.00000000 -0.00000000 -0.00000000 -0.00000000 -0.00000000 -0.00000000 -0.00000000
    Gval -0.00000000 -0.00000000 -0.00000000 -0.00000000 -0.00000000 -0.00000000 -0.00000000 -0.00000000
    Gval -0.00000000 -0.00000000 -0.00000000 -0.00000000 -0.00000000 -0.00000000 -0.00000000 -0.00000000
    Gval -0.00000000 -0.00000000 -0.00000000 -0.00000000 -0.00000000 -0.00000000 -0.00000000 -0.00000000
    Gval -0.00000000 -0.00000000 -0.00000000 -0.00000000 -0.00000000 -0.00000000 -0.00000000 -0.00000000
    Gval -0.00000000 -0.00000000 -0.00000000 -0.00000000 -0.00000000 -0.00000000 -0.00000000 -0.00000000
    Gval  0.00000000  0.00000000  0.00000000  0.00000000  0.00000000  0.00000000  0.00000000  0.00000000
    Gval  0.00000000  0.00000000  0.00000000  0.00000000  0.00000000  0.00000000  0.00000000  0.00000000
    Gval  0.00000000  0.00000000  0.00000000  0.00000000  0.00000000  0.00000000  0.00000000  0.00000000
    Gval  0.00000000  0.00000000  0.00000000  0.00000000  0.00000000  0.00000000  0.00000000  0.00000000
    Gval  0.00000000  0.00000000  0.00000000  0.00000000  0.00000000  0.00000000  0.00000000  0.00000000
    Gval  0.00000000  0.00000000  0.00000000  0.00000000  0.00000000  0.00000000  0.00000000  0.00000000
    Gval  0.00000000  0.00000000  0.00000000  0.00000000  0.00000000  0.00000000  0.00000000  0.00000000
    Gval  0.00000000  0.00000000  0.00000000  0.00000000  0.00000000  0.00000000  0.00000000  0.00000000
    Gval  0.00000000  0.00000000  0.00000000  0.00000000  0.00000000  0.00000000  0.00000000  0.00000000
    Gval  0.00000000  0.00000000  0.00000000  0.00000000  0.00000000  0.00000000  0.00000000  0.00000000
    Gval  0.00000000  0.00000000  0.00000000  0.00000000  0.00000000  0.00000000  0.00000000  0.00000000
    Gval  0.00000000  0.00000000  0.00000000  0.00000000  0.00000000  0.00000000  0.00000000  0.00000000
    Gval  0.00000000  0.00000000  0.00000000  0.00000000  0.00000000  0.00000000  0.00000002  0.00000020
    Gval  0.00000035  0.00000069  0.00000170  0.00000182  0.00000325  0.00000579  0.00000614  0.00000857
    Gval  0.00001087  0.00001112  0.00001141  0.00001199  0.00001550  0.00001648  0.00001671  0.00001754
    Gval  0.00001779  0.00001836  0.00002080  0.00002209  0.00002395  0.00002417  0.00002544  0.00002569
    Gval  0.00002986  0.00003316  0.00003554  0.00003631  0.00003994  0.00004027  0.00004469  0.00004883
    Gval  0.00004924  0.00005109  0.00005204  0.00005363  0.00005535  0.00005855  0.00006246  0.00006375
    Gval  0.00006778  0.00006875  0.00007171  0.00007471  0.00008139  0.00008246  0.00008543  0.00008676
    Gval  0.00008855  0.00009313  0.00009496  0.00009625  0.00009835  0.00010339  0.00011166  0.00011768
    Gval  0.00012245  0.00012416  0.00013296  0.00013619  0.00013730  0.00014062  0.00015346  0.00015579
    Gval  0.00015838  0.00015953  0.00016395  0.00016877  0.00018154  0.00019773  0.00019957  0.00021497
    Gval  0.00022223  0.00023006  0.00023033  0.00024266  0.00026992  0.00028306  0.00028528  0.00028944
    Gval  0.00029702  0.00029944  0.00030721  0.00034176  0.00035040  0.00036030  0.00037950  0.00038776
    Gval  0.00038908  0.00039377  0.00040164  0.00040622  0.00041991  0.00042200  0.00042276  0.00043162
    Gval  0.00043507  0.00044063  0.00044201  0.00046225  0.00046605  0.00046899  0.00049492  0.00052703
    Gval  0.00053453  0.00053715  0.00055412  0.00055456  0.00055602  0.00055705  0.00059660  0.00059849
    Gval  0.00059923  0.00059956  0.00059984  0.00060219  0.00060982  0.00062185  0.00062703  0.00063312
    Gval  0.00064074  0.00064423  0.00064499  0.00064681  0.00066919  0.00069253  0.00069777  0.00078221
    Gval  0.00080049  0.00089321  0.00097658  0.00108130  0.00109339  0.00109432  0.00109502  0.00109551
    Gval  0.00110172  0.00114262  0.00114471  0.00116545  0.00116581  0.00116594  0.00116634  0.00117135
    Gval  0.00117193  0.00118653  0.00120284  0.00128577  0.00129560  0.00130091  0.00147483  0.00149094
    Gval  0.00169828  0.00171549  0.00181868  0.00191937  0.00207971  0.00228055  0.00233902  0.00252083
    Gval  0.00252130  0.00255851  0.00278881  0.00292162  0.00302360  0.00304206  0.00308118  0.00309648
    Gval  0.00347035  0.00367455  0.00367626  0.00372126  0.00372293  0.00394617  0.00396771  0.07429966
    Gval  5.30403972 26.52144239 77.79572207469.51196852************
  1.765154326330525E-008  1.765154326330525E-008
  2.035100638465443E-007  1.765154326330525E-008
  3.454343076401846E-007  1.765154326330525E-008
  6.925914546862900E-007  1.765154326330525E-008
  1.701152777108336E-006  1.765154326330525E-008
  1.815321661187252E-006  1.765154326330525E-008
  3.251791612369717E-006  1.765154326330525E-008
  5.792027836078979E-006  1.765154326330525E-008
  6.135726434074406E-006  1.765154326330525E-008
  8.572963049776309E-006  1.765154326330525E-008
  1.086839031577322E-005  1.765154326330525E-008
  1.111646443707449E-005  1.765154326330525E-008
  1.140934935032924E-005  1.765154326330525E-008
  1.199282568412490E-005  1.765154326330525E-008
  1.550005114281624E-005  1.765154326330525E-008
  1.648175487390723E-005  1.765154326330525E-008
  1.670810145447762E-005  1.765154326330525E-008
  1.754109525267936E-005  1.765154326330525E-008
  1.779128240374879E-005  1.765154326330525E-008
  1.836219490345284E-005  1.765154326330525E-008
  2.080303884799255E-005  1.765154326330525E-008
  2.209288630177810E-005  1.765154326330525E-008
  2.394979047479411E-005  1.765154326330525E-008
  2.417307993621068E-005  1.765154326330525E-008
  2.543515276440819E-005  1.765154326330525E-008
  2.569044999988192E-005  1.765154326330525E-008
  2.986361096549118E-005  1.765154326330525E-008
  3.315981033990362E-005  1.765154326330525E-008
  3.554219263935066E-005  1.765154326330525E-008
  3.630878686964877E-005  1.765154326330525E-008
  3.994010165466408E-005  1.765154326330525E-008
  4.026734717062283E-005  1.765154326330525E-008
  4.468897634240962E-005  1.765154326330525E-008
  4.883413002523804E-005  1.765154326330525E-008
  4.924156614435650E-005  1.765154326330525E-008
  5.109265360561849E-005  1.765154326330525E-008
  5.203956271058011E-005  1.765154326330525E-008
  5.363446409126628E-005  1.765154326330525E-008
  5.535039549152696E-005  1.765154326330525E-008
  5.855456334508446E-005  1.765154326330525E-008
  6.245853072777248E-005  1.765154326330525E-008
  6.375093197880719E-005  1.765154326330525E-008
  6.778024712285226E-005  1.765154326330525E-008
  6.875155388863425E-005  1.765154326330525E-008
  7.170506343869206E-005  1.765154326330525E-008
  7.470874656665300E-005  1.765154326330525E-008
  8.139285145241215E-005  1.765154326330525E-008
  8.246432395068133E-005  1.765154326330525E-008
  8.542734041552661E-005  1.765154326330525E-008
  8.675579152016693E-005  1.765154326330525E-008
  8.855201866417310E-005  1.765154326330525E-008
  9.312679100481092E-005  1.765154326330525E-008
  9.495751818963362E-005  1.765154326330525E-008
  9.624906192864798E-005  1.765154326330525E-008
  9.834597250300379E-005  1.765154326330525E-008
  1.033867464388741E-004  1.765154326330525E-008
  1.116553656370334E-004  1.765154326330525E-008
  1.176766696918602E-004  1.765154326330525E-008
  1.224493998147850E-004  1.765154326330525E-008
  1.241561804146046E-004  1.765154326330525E-008
  1.329572021193601E-004  1.765154326330525E-008
  1.361869305932134E-004  1.765154326330525E-008
  1.372972710193333E-004  1.765154326330525E-008
  1.406190611989927E-004  1.765154326330525E-008
  1.534590608578603E-004  1.765154326330525E-008
  1.557858189965758E-004  1.765154326330525E-008
  1.583789044803657E-004  1.765154326330525E-008
  1.595324880995711E-004  1.765154326330525E-008
  1.639533167202023E-004  1.765154326330525E-008
  1.687663897641156E-004  1.765154326330525E-008
  1.815366153405685E-004  1.765154326330525E-008
  1.977294166666431E-004  1.765154326330525E-008
  1.995732790494552E-004  1.765154326330525E-008
  2.149728705639645E-004  1.765154326330525E-008
  2.222302546721784E-004  1.765154326330525E-008
  2.300646708308530E-004  1.765154326330525E-008
  2.303257420881295E-004  1.765154326330525E-008
  2.426630005005214E-004  1.765154326330525E-008
  2.699219536352354E-004  1.765154326330525E-008
  2.830592733537583E-004  1.765154326330525E-008
  2.852820482957160E-004  1.765154326330525E-008
  2.894411388906563E-004  1.765154326330525E-008
  2.970175490480675E-004  1.765154326330525E-008
  2.994394517350030E-004  1.765154326330525E-008
  3.072129262978400E-004  1.765154326330525E-008
  3.417564530330846E-004  1.765154326330525E-008
  3.503999497192116E-004  1.765154326330525E-008
  3.603004143999846E-004  1.765154326330525E-008
  3.795044457466159E-004  1.765154326330525E-008
  3.877603851426659E-004  1.765154326330525E-008
  3.890795806968435E-004  1.765154326330525E-008
  3.937684576521383E-004  1.765154326330525E-008
  4.016419046644395E-004  1.765154326330525E-008
  4.062169530060931E-004  1.765154326330525E-008
  4.199122732371402E-004  1.765154326330525E-008
  4.219975934830961E-004  1.765154326330525E-008
  4.227597369811618E-004  1.765154326330525E-008
  4.316194027018443E-004  1.765154326330525E-008
  4.350733413031618E-004  1.765154326330525E-008
  4.406250988645992E-004  1.765154326330525E-008
  4.420075051992087E-004  1.765154326330525E-008
  4.622537688697635E-004  1.765154326330525E-008
  4.660476566527094E-004  1.765154326330525E-008
  4.689900186323875E-004  1.765154326330525E-008
  4.949183527101390E-004  1.765154326330525E-008
  5.270264408209762E-004  1.765154326330525E-008
  5.345262878381460E-004  1.765154326330525E-008
  5.371544627761825E-004  1.765154326330525E-008
  5.541206371080923E-004  1.765154326330525E-008
  5.545575859897558E-004  1.765154326330525E-008
  5.560174891259614E-004  1.765154326330525E-008
  5.570456656744788E-004  1.765154326330525E-008
  5.965978880588381E-004  1.765154326330525E-008
  5.984864505664667E-004  1.765154326330525E-008
  5.992274830529650E-004  1.765154326330525E-008
  5.995568821099183E-004  1.765154326330525E-008
  5.998374443676923E-004  1.765154326330525E-008
  6.021852845345364E-004  1.765154326330525E-008
  6.098161414253449E-004  1.765154326330525E-008
  6.218468154803202E-004  1.765154326330525E-008
  6.270321564704346E-004  1.765154326330525E-008
  6.331248611497114E-004  1.765154326330525E-008
  6.407419988476736E-004  1.765154326330525E-008
  6.442345931608021E-004  1.765154326330525E-008
  6.449942118720112E-004  1.765154326330525E-008
  6.468149287320421E-004  1.765154326330525E-008
  6.691871463057789E-004  1.765154326330525E-008
  6.925323327885640E-004  1.765154326330525E-008
  6.977695343464052E-004  1.765154326330525E-008
  7.822054482566099E-004  1.765154326330525E-008
  8.004902296133538E-004  1.765154326330525E-008
  8.932054497526839E-004  1.765154326330525E-008
  9.765788623411109E-004  1.765154326330525E-008
  1.081299857528560E-003  1.765154326330525E-008
  1.093392662767657E-003  1.765154326330525E-008
  1.094318922865922E-003  1.765154326330525E-008
  1.095018964350510E-003  1.765154326330525E-008
  1.095510558900713E-003  1.765154326330525E-008
  1.101718430297828E-003  1.765154326330525E-008
  1.142623175003086E-003  1.765154326330525E-008
  1.144707887341227E-003  1.765154326330525E-008
  1.165449428888793E-003  1.765154326330525E-008
  1.165805612754842E-003  1.765154326330525E-008
  1.165936538785642E-003  1.765154326330525E-008
  1.166343453188481E-003  1.765154326330525E-008
  1.171352576020096E-003  1.765154326330525E-008
  1.171931571560807E-003  1.765154326330525E-008
  1.186533824206507E-003  1.765154326330525E-008
  1.202839594491565E-003  1.765154326330525E-008
  1.285769693526831E-003  1.765154326330525E-008
  1.295601707997792E-003  1.765154326330525E-008
  1.300907794819254E-003  1.765154326330525E-008
  1.474828699238079E-003  1.765154326330525E-008
  1.490941942337444E-003  1.765154326330525E-008
  1.698282543369014E-003  1.765154326330525E-008
  1.715485357302215E-003  1.765154326330525E-008
  1.818684936745460E-003  1.765154326330525E-008
  1.919368065919079E-003  1.765154326330525E-008
  2.079707114372852E-003  1.765154326330525E-008
  2.280548876910178E-003  1.765154326330525E-008
  2.339015654989233E-003  1.765154326330525E-008
  2.520826303623585E-003  1.765154326330525E-008
  2.521304553217124E-003  1.765154326330525E-008
  2.558511636245467E-003  1.765154326330525E-008
  2.788812070434947E-003  1.765154326330525E-008
  2.921620466469736E-003  1.765154326330525E-008
  3.023597696527623E-003  1.765154326330525E-008
  3.042063215890837E-003  1.765154326330525E-008
  3.081183697925914E-003  1.765154326330525E-008
  3.096479250380750E-003  1.765154326330525E-008
  3.470352314787749E-003  1.765154326330525E-008
  3.674554505088804E-003  1.765154326330525E-008
  3.676257245187073E-003  1.765154326330525E-008
  3.721263962084970E-003  1.765154326330525E-008
  3.722930507199989E-003  1.765154326330525E-008
  3.946167581290514E-003  1.765154326330525E-008
  3.967713590470172E-003  1.765154326330525E-008
  7.429966322972134E-002  1.765154326330525E-008
   5.30403972482666       1.765154326330525E-008
   26.5214423876419       1.765154326330525E-008
   77.7957220673368       1.765154326330525E-008
   469.511968522107       1.765154326330525E-008
   1793.60267125596       1.765154326330525E-008
 cut=1d-8, nber non-redundant internal coords=         183
 Check on Eigenvals of non-red overlap matrix:
  0.00000002  0.00000020  0.00000035  0.00000069  0.00000170  0.00000182  0.00000325  0.00000579
  0.00000614  0.00000857  0.00001087  0.00001112  0.00001141  0.00001199  0.00001550  0.00001648
  0.00001671  0.00001754  0.00001779  0.00001836  0.00002080  0.00002209  0.00002395  0.00002417
  0.00002544  0.00002569  0.00002986  0.00003316  0.00003554  0.00003631  0.00003994  0.00004027
  0.00004469  0.00004883  0.00004924  0.00005109  0.00005204  0.00005363  0.00005535  0.00005855
  0.00006246  0.00006375  0.00006778  0.00006875  0.00007171  0.00007471  0.00008139  0.00008246
  0.00008543  0.00008676  0.00008855  0.00009313  0.00009496  0.00009625  0.00009835  0.00010339
  0.00011166  0.00011768  0.00012245  0.00012416  0.00013296  0.00013619  0.00013730  0.00014062
  0.00015346  0.00015579  0.00015838  0.00015953  0.00016395  0.00016877  0.00018154  0.00019773
  0.00019957  0.00021497  0.00022223  0.00023006  0.00023033  0.00024266  0.00026992  0.00028306
  0.00028528  0.00028944  0.00029702  0.00029944  0.00030721  0.00034176  0.00035040  0.00036030
  0.00037950  0.00038776  0.00038908  0.00039377  0.00040164  0.00040622  0.00041991  0.00042200
  0.00042276  0.00043162  0.00043507  0.00044063  0.00044201  0.00046225  0.00046605  0.00046899
  0.00049492  0.00052703  0.00053453  0.00053715  0.00055412  0.00055456  0.00055602  0.00055705
  0.00059660  0.00059849  0.00059923  0.00059956  0.00059984  0.00060219  0.00060982  0.00062185
  0.00062703  0.00063312  0.00064074  0.00064423  0.00064499  0.00064681  0.00066919  0.00069253
  0.00069777  0.00078221  0.00080049  0.00089321  0.00097658  0.00108130  0.00109339  0.00109432
  0.00109502  0.00109551  0.00110172  0.00114262  0.00114471  0.00116545  0.00116581  0.00116594
  0.00116634  0.00117135  0.00117193  0.00118653  0.00120284  0.00128577  0.00129560  0.00130091
  0.00147483  0.00149094  0.00169828  0.00171549  0.00181868  0.00191937  0.00207971  0.00228055
  0.00233902  0.00252083  0.00252130  0.00255851  0.00278881  0.00292162  0.00302360  0.00304206
  0.00308118  0.00309648  0.00347035  0.00367455  0.00367626  0.00372126  0.00372293  0.00394617
  0.00396771  0.07429966  5.30403972 26.52144239 77.79572207469.51196852************
 Checking for correct frequencies
 recalc frequencies=
    -0.0   -0.0    0.0    0.0    0.0    0.0    4.9    7.7   10.2   24.4
    29.2   39.6   48.6   55.2   61.4   76.0   89.1   99.2  106.9  116.1
   119.9  142.7  167.8  173.9  185.6  195.7  202.9  208.7  219.1  232.9
   235.5  236.3  241.5  255.6  280.5  293.3  301.3  320.6  331.2  349.7
   371.5  385.5  393.0  395.7  417.1  421.4  427.3  432.5  438.4  446.8
   451.4  456.8  463.6  467.6  472.3  478.1  485.7  502.2  502.7  505.7
   524.6  536.6  548.4  563.2  574.0  576.8  580.5  599.3  604.4  611.0
   615.8  625.0  636.3  652.2  665.9  681.1  703.7  706.8  709.1  714.1
   722.7  746.9  757.5  758.0  759.5  765.0  779.5  801.8  810.3  810.7
   815.5  823.0  827.1  832.4  841.5  842.9  855.1  879.7  901.7  914.8
   926.7  936.7  945.5  956.6  971.0  975.6  977.3  988.7  989.4 1053.1
  1062.0 1088.6 1101.1 1105.2 1117.3 1137.4 1155.8 1162.2 1169.8 1175.0
  1186.1 1196.8 1200.8 1203.5 1213.7 1224.8 1233.2 1243.6 1269.5 1288.0
  1303.4 1321.3 1325.3 1343.7 1351.7 1366.3 1372.5 1379.0 1382.0 1391.4
  1400.3 1405.8 1413.8 1416.5 1430.2 1438.2 1444.5 1451.4 1459.0 1471.2
  1485.0 1491.4 1497.8 1505.1 1507.7 1513.1 1522.5 1545.8 1547.5 1554.7
  1574.7 1594.0 1599.2 1610.3 1622.2 1686.7 1726.4 1733.4 1761.5 2244.5
  2323.8 3034.7 3038.8 3092.8 3096.0 3112.8 3132.7 3143.1 3199.2 3199.5
  3205.6 3205.7 3213.6 3213.8 3214.6 3224.2 3225.5 3225.8 3244.6
 recalc symmetries=
                                                                       
                                                                       
                                                                       
                                                                       
                                                                       
                                                                       
                                                                       
                                                                       
                                                                       
                                                                       
                                                                       
                                                                       
                                                                       
                                                                       
                                                                       
                                                                       
                                                                       
                                                                       
                                                                
 recalc freqs check OK
 Zero-point lengths:
 10.0000 10.0000 10.0000 10.0000 10.0000 10.0000112.2295 89.1557 77.7014 50.2102
 45.8591 39.4100 35.5570 33.3528 31.6406 28.4306 26.2652 24.8906 23.9831 23.0069
 22.6389 20.7539 19.1386 18.8020 18.1969 17.7206 17.4051 17.1593 16.7476 16.2461
 16.1531 16.1267 15.9540 15.5055 14.8025 14.4748 14.2829 13.8461 13.6214 13.2572
 12.8622 12.6262 12.5050 12.4620 12.1382 12.0768 11.9931 11.9203 11.8408 11.7286
 11.6689 11.5999 11.5141 11.4644 11.4078 11.3381 11.2486 11.0628 11.0576 11.0243
 10.8233 10.7022 10.5866 10.4461 10.3474 10.3225 10.2892 10.1272 10.0841 10.0291
  9.9901  9.9162  9.8281  9.7078  9.6069  9.4996  9.3452  9.3248  9.3096  9.2771
  9.2220  9.0714  9.0073  9.0043  8.9958  8.9634  8.8794  8.7552  8.7092  8.7069
  8.6812  8.6417  8.6200  8.5925  8.5459  8.5391  8.4779  8.3584  8.2560  8.1968
  8.1436  8.1000  8.0625  8.0156  7.9559  7.9371  7.9301  7.8845  7.8815  7.6394
  7.6072  7.5137  7.4710  7.4573  7.4166  7.3508  7.2922  7.2720  7.2483  7.2322
  7.1985  7.1661  7.1543  7.1462  7.1162  7.0837  7.0595  7.0300  6.9580  6.9077
  6.8669  6.8202  6.8099  6.7630  6.7430  6.7069  6.6918  6.6759  6.6686  6.6462
  6.6250  6.6119  6.5934  6.5869  6.5554  6.5370  6.5228  6.5072  6.4904  6.4634
  6.4333  6.4195  6.4058  6.3901  6.3846  6.3732  6.3537  6.3054  6.3021  6.2874
  6.2474  6.2094  6.1992  6.1780  6.1553  6.0364  5.9665  5.9544  5.9069  5.2328
  5.1427  4.5003  4.4972  4.4578  4.4555  4.4434  4.4293  4.4219  4.3831  4.3828
  4.3787  4.3786  4.3732  4.3731  4.3725  4.3660  4.3651  4.3650  4.3523
 highest evec of mol 1
  0.0000  0.0000 -0.0000
  0.0000  0.0000 -0.0000
  0.0000  0.0000 -0.0000
 -0.0000 -0.0000  0.0000
  0.0000  0.0000 -0.0000
  0.0000 -0.0000 -0.0000
 -0.0000 -0.0000  0.0000
  0.0000  0.0000 -0.0000
 -0.0000 -0.0000  0.0000
  0.0000  0.0000 -0.0000
 -0.0000 -0.0000  0.0000
 -0.0000  0.0000  0.0000
 -0.0000 -0.0000  0.0000
  0.0000 -0.0000 -0.0000
 -0.0000  0.0000  0.0000
  0.0000 -0.0000 -0.0000
  0.0000 -0.0000  0.0000
 -0.0000 -0.0000  0.0000
  0.0000  0.0001 -0.0000
 -0.0000 -0.0001  0.0000
  0.0001  0.0001  0.0000
 -0.0002  0.0001 -0.0003
  0.0030  0.0013  0.0020
 -0.0011 -0.0033  0.0012
 -0.0018 -0.0008 -0.0012
  0.0569  0.2505 -0.1172
  0.0783  0.0247  0.0583
 -0.0036 -0.0066  0.0010
  0.0001  0.0004 -0.0002
  0.0000  0.0000 -0.0000
 -0.0000 -0.0000  0.0000
 -0.0000 -0.0000  0.0000
  0.0000 -0.0000 -0.0000
  0.0000  0.0000 -0.0000
 -0.0000  0.0000  0.0000
  0.0000  0.0000 -0.0000
  0.0000 -0.0000 -0.0000
  0.0000  0.0000 -0.0000
 -0.0000 -0.0000  0.0000
  0.0000  0.0000 -0.0000
 -0.0000 -0.0000  0.0000
 -0.0000 -0.0000  0.0000
 -0.0000  0.0000  0.0000
  0.0000 -0.0000 -0.0000
 -0.0000  0.0000  0.0000
 -0.0000 -0.0000  0.0000
  0.0000  0.0000  0.0000
  0.0000  0.0000 -0.0000
 -0.0000  0.0000  0.0000
 -0.0000  0.0000 -0.0000
 -0.0000 -0.0000  0.0000
 -0.0000 -0.0000 -0.0000
  0.0000 -0.0000 -0.0000
  0.0000  0.0000 -0.0000
  0.0000 -0.0001 -0.0000
  0.0000  0.0000 -0.0001
 -0.0088 -0.0041 -0.0056
 -0.2161 -0.8117  0.3491
 -0.2252 -0.1023 -0.1460
 -0.0000  0.0001  0.0000
 -0.0001 -0.0000  0.0001
 -0.0000  0.0000  0.0000
 -0.0000 -0.0000  0.0000
 generating redundant internal coords
         300        3600          63
 Adding extra bonds for z output only
           6           6           6           7           6           8
           6           6           6           6           6           6
           6           6           6           8           7           6
           6           6           6           6           6           6
          16           6           6           6          16           6
           8           6           6           6           6           6
           6           6           6           6           8           6
           6           6           6           1           1           1
           1           1           1           1           1           1
           1           1           1           1           1           1
           1           1           1
 search for int coords
   1 str   2   1   1.532
   2 str   3   2   1.532
   3 str   4   2   1.499
   4 str   5   4   1.400
   5 str   6   5   1.222
   6 str   7   5   1.479
   7 str   8   7   1.400
   8 str   9   8   1.380
   9 str  10   9   1.422
  10 str  11  10   1.441
  11 str  12  11   1.422
  12 str  13  12   1.378
  13 str  14  13   1.401
  14 str  15  14   1.471
  15 str  16  15   1.211
  16 str  17  15   1.434
  17 str  18  17   1.350
  18 str  19  18   1.210
  19 str  20  19   1.353
  20 str  21  20   1.218
  21 str  22  21   1.397
  22 str  23  22   1.380
  23 str  24  23   1.413
  24 str  25  24   1.745
  25 str  26  25   1.748
  26 str  27  26   1.365
  27 str  28  24   1.393
  28 str  28  27   1.422
  29 str  29  22   1.779
  30 str  29  28   1.738
  31 str  30  17   1.435
  32 str  31  30   1.211
  33 str  32  30   1.470
  34 str  33  32   1.401
  35 str  34  33   1.378
  36 str  35  34   1.422
  37 str  36  35   1.441
  38 str  37  36   1.422
  39 str  38  37   1.380
  40 str  39  38   1.400
  41 str  40   4   1.407
  42 str  40  39   1.478
  43 str  41  40   1.221
  44 str  42   7   1.410
  45 str  42  39   1.410
  46 str  43  10   1.426
  47 str  43  36   1.426
  48 str  43  42   1.428
  49 str  44  11   1.428
  50 str  44  35   1.428
  51 str  45  14   1.414
  52 str  45  32   1.414
  53 str  45  44   1.430
  54 str  46   1   1.093
  55 str  47   1   1.089
  56 str  48   1   1.093
  57 str  49   2   1.088
  58 str  50   3   1.089
  59 str  51   3   1.093
  60 str  52   3   1.093
  61 str  53   8   1.082
  62 str  54   9   1.081
  63 str  55  12   1.081
  64 str  56  13   1.082
  65 str  57  23   1.080
  66 str  58  26   1.079
  67 str  59  27   1.081
  68 str  60  33   1.082
  69 str  61  34   1.081
  70 str  62  37   1.081
  71 str  63  38   1.082
 nber stretches=          71
  72 ben   1   2   3
  73 prop tor   1   2   3  50
  74 prop tor   1   2   3  51
  75 prop tor   1   2   3  52
  76 ben   1   2   4
  77 prop tor   1   2   4   5
  78 prop tor   1   2   4  40
  79 ben   1   2  49
  80 ben   2   1  46
  81 ben   2   1  47
  82 ben   2   1  48
  83 ben   2   3  50
  84 ben   2   3  51
  85 ben   2   3  52
  86 ben   2   4   5
  87 prop tor   2   4   5   6
  88 prop tor   2   4   5   7
  89 ben   2   4  40
  90 prop tor   2   4  40  39
  91 prop tor   2   4  40  41
  92 ben   3   2   4
  93 prop tor   3   2   4   5
  94 prop tor   3   2   4  40
  95 ben   3   2  49
  96 prop tor   4   2   3  50
  97 prop tor   4   2   3  51
  98 prop tor   4   2   3  52
  99 ben   4   2  49
 100 ben   4   5   6
 101 ben   4   5   7
 102 prop tor   4   5   7   8
 103 prop tor   4   5   7  42
 104 ben   4  40  39
 105 ben   4  40  41
 106 ben   5   4  40
 107 prop tor   5   4  40  39
 108 prop tor   5   4  40  41
 109 ben   5   7   8
 110 prop tor   5   7   8   9
 111 prop tor   5   7   8  53
 112 ben   5   7  42
 113 prop tor   5   7  42  39
 114 prop tor   5   7  42  43
 115 ben   6   5   7
 116 prop tor   6   5   7   8
 117 prop tor   6   5   7  42
 118 ben   7   8   9
 119 prop tor   7   8   9  10
 120 prop tor   7   8   9  54
 121 ben   7   8  53
 122 ben   7  42  39
 123 ben   7  42  43
 124 prop tor   7  42  43  10
 125 prop tor   7  42  43  36
 126 ben   8   7  42
 127 prop tor   8   7  42  39
 128 prop tor   8   7  42  43
 129 ben   8   9  10
 130 prop tor   8   9  10  11
 131 prop tor   8   9  10  43
 132 ben   8   9  54
 133 ben   9   8  53
 134 ben   9  10  11
 135 prop tor   9  10  11  12
 136 prop tor   9  10  11  44
 137 ben   9  10  43
 138 prop tor   9  10  43  36
 139 prop tor   9  10  43  42
 140 ben  10   9  54
 141 ben  10  11  12
 142 prop tor  10  11  12  13
 143 prop tor  10  11  12  55
 144 ben  10  11  44
 145 prop tor  10  11  44  35
 146 prop tor  10  11  44  45
 147 ben  10  43  36
 148 ben  10  43  42
 149 ben  11  10  43
 150 prop tor  11  10  43  36
 151 prop tor  11  10  43  42
 152 ben  11  12  13
 153 prop tor  11  12  13  14
 154 prop tor  11  12  13  56
 155 ben  11  12  55
 156 ben  11  44  35
 157 ben  11  44  45
 158 prop tor  11  44  45  14
 159 prop tor  11  44  45  32
 160 ben  12  11  44
 161 prop tor  12  11  44  35
 162 prop tor  12  11  44  45
 163 ben  12  13  14
 164 prop tor  12  13  14  15
 165 prop tor  12  13  14  45
 166 ben  12  13  56
 167 ben  13  12  55
 168 ben  13  14  15
 169 prop tor  13  14  15  16
 170 prop tor  13  14  15  17
 171 ben  13  14  45
 172 prop tor  13  14  45  32
 173 prop tor  13  14  45  44
 174 ben  14  13  56
 175 ben  14  15  16
 176 ben  14  15  17
 177 prop tor  14  15  17  18
 178 prop tor  14  15  17  30
 179 ben  14  45  32
 180 ben  14  45  44
 181 ben  15  14  45
 182 prop tor  15  14  45  32
 183 prop tor  15  14  45  44
 184 ben  15  17  18
 185 prop tor  15  17  18  19
 186 ben  15  17  30
 187 prop tor  15  17  30  31
 188 prop tor  15  17  30  32
 189 ben  16  15  17
 190 prop tor  16  15  17  18
 191 prop tor  16  15  17  30
 192 lin ben  17  18  19
 194 ben  17  30  31
 195 ben  17  30  32
 196 prop tor  17  30  32  33
 197 prop tor  17  30  32  45
 198 ben  18  17  30
 199 prop tor  18  17  30  31
 200 prop tor  18  17  30  32
 Extend lin bond           1          17          18          20
 201 lin ben  18  19  20
 203 lin ben  19  20  21
 Extend lin bond           2          19          20          22
 205 lin ben  20  21  22
 207 ben  21  22  23
 208 prop tor  21  22  23  24
 209 prop tor  21  22  23  57
 210 ben  21  22  29
 211 prop tor  21  22  29  28
 212 ben  22  23  24
 213 prop tor  22  23  24  25
 214 prop tor  22  23  24  28
 215 ben  22  23  57
 216 ben  22  29  28
 217 ben  23  22  29
 218 prop tor  23  22  29  28
 219 ben  23  24  25
 220 prop tor  23  24  25  26
 221 ben  23  24  28
 222 prop tor  23  24  28  27
 223 prop tor  23  24  28  29
 224 ben  24  23  57
 225 ben  24  25  26
 226 prop tor  24  25  26  27
 227 prop tor  24  25  26  58
 228 ben  24  28  27
 229 ben  24  28  29
 230 prop tor  24  28  29  22
 231 ben  25  24  28
 232 prop tor  25  24  28  27
 233 prop tor  25  24  28  29
 234 ben  25  26  27
 235 prop tor  25  26  27  28
 236 prop tor  25  26  27  59
 237 ben  25  26  58
 238 ben  26  27  28
 239 prop tor  26  27  28  24
 240 prop tor  26  27  28  29
 241 ben  26  27  59
 242 ben  27  26  58
 243 ben  27  28  29
 244 prop tor  27  28  29  22
 245 prop tor  28  24  25  26
 246 ben  28  27  59
 247 prop tor  29  22  23  24
 248 prop tor  29  22  23  57
 249 prop tor  30  17  18  19
 250 ben  30  32  33
 251 prop tor  30  32  33  34
 252 prop tor  30  32  33  60
 253 ben  30  32  45
 254 prop tor  30  32  45  14
 255 prop tor  30  32  45  44
 256 ben  31  30  32
 257 prop tor  31  30  32  33
 258 prop tor  31  30  32  45
 259 ben  32  33  34
 260 prop tor  32  33  34  35
 261 prop tor  32  33  34  61
 262 ben  32  33  60
 263 ben  32  45  44
 264 ben  33  32  45
 265 prop tor  33  32  45  14
 266 prop tor  33  32  45  44
 267 ben  33  34  35
 268 prop tor  33  34  35  36
 269 prop tor  33  34  35  44
 270 ben  33  34  61
 271 ben  34  33  60
 272 ben  34  35  36
 273 prop tor  34  35  36  37
 274 prop tor  34  35  36  43
 275 ben  34  35  44
 276 prop tor  34  35  44  11
 277 prop tor  34  35  44  45
 278 ben  35  34  61
 279 ben  35  36  37
 280 prop tor  35  36  37  38
 281 prop tor  35  36  37  62
 282 ben  35  36  43
 283 prop tor  35  36  43  10
 284 prop tor  35  36  43  42
 285 ben  35  44  45
 286 prop tor  35  44  45  14
 287 prop tor  35  44  45  32
 288 ben  36  35  44
 289 prop tor  36  35  44  11
 290 prop tor  36  35  44  45
 291 ben  36  37  38
 292 prop tor  36  37  38  39
 293 prop tor  36  37  38  63
 294 ben  36  37  62
 295 ben  36  43  42
 296 ben  37  36  43
 297 prop tor  37  36  43  10
 298 prop tor  37  36  43  42
 299 ben  37  38  39
 300 prop tor  37  38  39  40
 301 prop tor  37  38  39  42
 302 ben  37  38  63
 303 ben  38  37  62
 304 ben  38  39  40
 305 prop tor  38  39  40   4
 306 prop tor  38  39  40  41
 307 ben  38  39  42
 308 prop tor  38  39  42   7
 309 prop tor  38  39  42  43
 310 ben  39  38  63
 311 ben  39  40  41
 312 ben  39  42  43
 313 prop tor  39  42  43  10
 314 prop tor  39  42  43  36
 315 prop tor  40   4   5   6
 316 prop tor  40   4   5   7
 317 ben  40  39  42
 318 prop tor  40  39  42   7
 319 prop tor  40  39  42  43
 320 prop tor  42   7   8   9
 321 prop tor  42   7   8  53
 322 prop tor  42  39  40   4
 323 prop tor  42  39  40  41
 324 prop tor  43  10  11  12
 325 prop tor  43  10  11  44
 326 prop tor  43  36  37  38
 327 prop tor  43  36  37  62
 328 prop tor  44  11  12  13
 329 prop tor  44  11  12  55
 330 prop tor  44  35  36  37
 331 prop tor  44  35  36  43
 332 prop tor  45  14  15  16
 333 prop tor  45  14  15  17
 334 prop tor  45  32  33  34
 335 prop tor  45  32  33  60
 336 prop tor  46   1   2   3
 337 prop tor  46   1   2   4
 338 prop tor  46   1   2  49
 339 ben  46   1  47
 340 ben  46   1  48
 341 prop tor  47   1   2   3
 342 prop tor  47   1   2   4
 343 prop tor  47   1   2  49
 344 ben  47   1  48
 345 prop tor  48   1   2   3
 346 prop tor  48   1   2   4
 347 prop tor  48   1   2  49
 348 prop tor  49   2   3  50
 349 prop tor  49   2   3  51
 350 prop tor  49   2   3  52
 351 prop tor  49   2   4   5
 352 prop tor  49   2   4  40
 353 ben  50   3  51
 354 ben  50   3  52
 355 ben  51   3  52
 356 prop tor  53   8   9  10
 357 prop tor  53   8   9  54
 358 prop tor  54   9  10  11
 359 prop tor  54   9  10  43
 360 prop tor  55  12  13  14
 361 prop tor  55  12  13  56
 362 prop tor  56  13  14  15
 363 prop tor  56  13  14  45
 364 prop tor  57  23  24  25
 365 prop tor  57  23  24  28
 366 prop tor  58  26  27  28
 367 prop tor  58  26  27  59
 368 prop tor  59  27  28  24
 369 prop tor  59  27  28  29
 370 prop tor  60  33  34  35
 371 prop tor  60  33  34  61
 372 prop tor  61  34  35  36
 373 prop tor  61  34  35  44
 374 prop tor  62  37  38  39
 375 prop tor  62  37  38  63
 376 prop tor  63  38  39  40
 377 prop tor  63  38  39  42
 378 lin bend prop tor  15  17  20  19
 379 lin bend prop tor  15  17  20  21
 380 lin bend prop tor  18  17  20  19
 381 lin bend prop tor  18  17  20  21
 382 lin bend prop tor  30  17  20  19
 383 lin bend prop tor  30  17  20  21
 384 lin bend prop tor  18  19  22  21
 385 lin bend prop tor  18  19  22  23
 386 lin bend prop tor  18  19  22  29
 387 lin bend prop tor  20  19  22  21
 388 lin bend prop tor  20  19  22  23
 389 lin bend prop tor  20  19  22  29
 nber bend=             124
 nber lin bend=           2
 nber prop tor=         194
 nber impr tor=           0
 nber tot redund int=         389
 Reading file: 
 ./TT-PDI_5_C0S1.log                                                            
                                          
  Entering Gaussian System, Link 0=g16                                          
  
 Gaussian format, type: g94, g98, g03= F F F
  #P Geom=AllCheck Guess=TCheck SCRF=Check GenChk RB3LYP TD(FC,Read)/6-3    
 energy type= TD      
 Original G94 input coords:
  6  1.354748  0.928419  0.176290
  6  2.551335 -0.004409 -0.041597
  6  3.776989  0.707842 -0.624625
  7  2.889580 -0.772408  1.193014
  6  2.740650 -2.174847  1.130479
  8  2.352226 -2.723289  0.107242
  6  3.072375 -2.935691  2.344375
  6  2.942662 -4.324843  2.336006
  6  3.246243 -5.069255  3.460353
  6  3.696603 -4.464528  4.655886
  6  4.017707 -5.232717  5.838814
  6  3.897188 -6.645181  5.861836
  6  4.201935 -7.371594  6.982743
  6  4.647765 -6.738245  8.157821
  6  4.947703 -7.571949  9.291637
  8  4.871677 -8.772810  9.389096
  7  5.411994 -6.812032 10.487745
  6  5.704834 -7.507891 11.556841
  6  5.978745 -8.161901 12.555981
  6  6.274911 -8.873887 13.635309
  6  6.549397 -9.539807 14.636182
  6  6.854841-10.276098 15.746580
  6  6.779573-11.677264 15.885320
  6  7.166241-12.086929 17.153753
 16  7.300424-13.633623 17.958171
  6  7.850220-12.838057 19.402503
  6  7.934747-11.469319 19.300847
  6  7.545525-11.036164 18.019724
 16  7.420440 -9.489378 17.241321
  6  5.573810 -5.332337 10.576118
  8  5.961122 -4.875778 11.624360
  6  5.234764 -4.640494  9.360892
  6  5.358591 -3.238551  9.352581
  6  5.054984 -2.510020  8.232738
  6  4.605624 -3.134290  7.041748
  6  4.285229 -2.366243  5.858496
  6  4.400202 -0.958178  5.816431
  6  4.090919 -0.234947  4.679737
  6  3.650010 -0.878747  3.523508
  6  3.329229 -0.078002  2.331181
  8  3.437520  1.142397  2.321272
  6  3.518484 -2.283869  3.514171
  6  3.836257 -3.045055  4.686656
  6  4.468581 -4.558796  7.018307
  6  4.789278 -5.325832  8.199524
  1  1.055064  1.357525 -0.784337
  1  1.598859  1.738936  0.861683
  1  0.501843  0.372228  0.574242
  1  2.249543 -0.781811 -0.740176
  1  4.121677  1.509482  0.027187
  1  3.515203  1.133097 -1.597954
  1  4.595362 -0.000432 -0.778807
  1  2.598650 -4.801510  1.426979
  1  3.130339 -6.142273  3.406243
  1  3.558676 -7.172321  4.982310
  1  4.106187 -8.449959  6.988310
  1  6.455134-12.315041 15.076289
  1  8.086726-13.437989 20.268498
  1  8.259092-10.830006 20.108753
  1  5.700863 -2.750508 10.256318
  1  5.164506 -1.436438  8.271005
  1  4.737910 -0.415924  6.688024
  1  4.183446  0.843519  4.661062
 nber atoms=          63
  Total Energy, E(TD-HF/TD-DFT) =  -2627.99598465                               
  
          32          49 "  -2627.99598465"
After scan for Atom:   Atom  AN      X      Y      Z        X      Y      Z        X      Y      Z   
After scan for Atom:   Atom  AN      X      Y      Z        X      Y      Z        X      Y      Z   
After scan for Atom:   Atom  AN      X      Y      Z        X      Y      Z        X      Y      Z   
After scan for Atom:   Atom  AN      X      Y      Z        X      Y      Z        X      Y      Z   
After scan for Atom:   Atom  AN      X      Y      Z        X      Y      Z        X      Y      Z   
After scan for Atom:   Atom  AN      X      Y      Z        X      Y      Z        X      Y      Z   
After scan for Atom:   Atom  AN      X      Y      Z        X      Y      Z        X      Y      Z   
After scan for Atom:   Atom  AN      X      Y      Z        X      Y      Z        X      Y      Z   
After scan for Atom:   Atom  AN      X      Y      Z        X      Y      Z        X      Y      Z   
After scan for Atom:   Atom  AN      X      Y      Z        X      Y      Z        X      Y      Z   
After scan for Atom:   Atom  AN      X      Y      Z        X      Y      Z        X      Y      Z   
After scan for Atom:   Atom  AN      X      Y      Z        X      Y      Z        X      Y      Z   
After scan for Atom:   Atom  AN      X      Y      Z        X      Y      Z        X      Y      Z   
After scan for Atom:   Atom  AN      X      Y      Z        X      Y      Z        X      Y      Z   
After scan for Atom:   Atom  AN      X      Y      Z        X      Y      Z        X      Y      Z   
After scan for Atom:   Atom  AN      X      Y      Z        X      Y      Z        X      Y      Z   
After scan for Atom:   Atom  AN      X      Y      Z        X      Y      Z        X      Y      Z   
After scan for Atom:   Atom  AN      X      Y      Z        X      Y      Z        X      Y      Z   
After scan for Atom:   Atom  AN      X      Y      Z        X      Y      Z        X      Y      Z   
After scan for Atom:   Atom  AN      X      Y      Z        X      Y      Z        X      Y      Z   
After scan for Atom:   Atom  AN      X      Y      Z        X      Y      Z        X      Y      Z   
After scan for Atom:   Atom  AN      X      Y      Z        X      Y      Z        X      Y      Z   
After scan for Atom:   Atom  AN      X      Y      Z        X      Y      Z        X      Y      Z   
After scan for Atom:   Atom  AN      X      Y      Z        X      Y      Z        X      Y      Z   
After scan for Atom:   Atom  AN      X      Y      Z        X      Y      Z        X      Y      Z   
After scan for Atom:   Atom  AN      X      Y      Z        X      Y      Z        X      Y      Z   
After scan for Atom:   Atom  AN      X      Y      Z        X      Y      Z        X      Y      Z   
After scan for Atom:   Atom  AN      X      Y      Z        X      Y      Z        X      Y      Z   
After scan for Atom:   Atom  AN      X      Y      Z        X      Y      Z        X      Y      Z   
After scan for Atom:   Atom  AN      X      Y      Z        X      Y      Z        X      Y      Z   
After scan for Atom:   Atom  AN      X      Y      Z        X      Y      Z        X      Y      Z   
After scan for Atom:   Atom  AN      X      Y      Z        X      Y      Z        X      Y      Z   
After scan for Atom:   Atom  AN      X      Y      Z        X      Y      Z        X      Y      Z   
After scan for Atom:   Atom  AN      X      Y      Z        X      Y      Z        X      Y      Z   
After scan for Atom:   Atom  AN      X      Y      Z        X      Y      Z        X      Y      Z   
After scan for Atom:   Atom  AN      X      Y      Z        X      Y      Z        X      Y      Z   
After scan for Atom:   Atom  AN      X      Y      Z        X      Y      Z        X      Y      Z   
After scan for Atom:   Atom  AN      X      Y      Z        X      Y      Z        X      Y      Z   
After scan for Atom:   Atom  AN      X      Y      Z        X      Y      Z        X      Y      Z   
After scan for Atom:   Atom  AN      X      Y      Z        X      Y      Z        X      Y      Z   
After scan for Atom:   Atom  AN      X      Y      Z        X      Y      Z        X      Y      Z   
After scan for Atom:   Atom  AN      X      Y      Z        X      Y      Z        X      Y      Z   
After scan for Atom:   Atom  AN      X      Y      Z        X      Y      Z        X      Y      Z   
After scan for Atom:   Atom  AN      X      Y      Z        X      Y      Z        X      Y      Z   
After scan for Atom:   Atom  AN      X      Y      Z        X      Y      Z        X      Y      Z   
After scan for Atom:   Atom  AN      X      Y      Z        X      Y      Z        X      Y      Z   
After scan for Atom:   Atom  AN      X      Y      Z        X      Y      Z        X      Y      Z   
After scan for Atom:   Atom  AN      X      Y      Z        X      Y      Z        X      Y      Z   
After scan for Atom:   Atom  AN      X      Y      Z        X      Y      Z        X      Y      Z   
After scan for Atom:   Atom  AN      X      Y      Z        X      Y      Z        X      Y      Z   
After scan for Atom:   Atom  AN      X      Y      Z        X      Y      Z        X      Y      Z   
After scan for Atom:   Atom  AN      X      Y      Z        X      Y      Z        X      Y      Z   
After scan for Atom:   Atom  AN      X      Y      Z        X      Y      Z        X      Y      Z   
After scan for Atom:   Atom  AN      X      Y      Z        X      Y      Z        X      Y      Z   
After scan for Atom:   Atom  AN      X      Y      Z        X      Y      Z        X      Y      Z   
After scan for Atom:   Atom  AN      X      Y      Z        X      Y      Z        X      Y      Z   
After scan for Atom:   Atom  AN      X      Y      Z        X      Y      Z        X      Y      Z   
After scan for Atom:   Atom  AN      X      Y      Z        X      Y      Z        X      Y      Z   
After scan for Atom:   Atom  AN      X      Y      Z        X      Y      Z        X      Y      Z   
After scan for Atom:   Atom  AN      X      Y      Z        X      Y      Z        X      Y      Z   
After scan for Atom:   Atom  AN      X      Y      Z        X      Y      Z        X      Y      Z   
 g94    frequencies=
     0.0    0.0    0.0    0.0    0.0    0.0    6.8    9.9   16.2   23.8
    26.6   38.8   48.5   54.5   60.1   77.9   88.2   94.9  104.8  111.8
   117.1  160.2  169.0  177.6  193.2  194.8  204.2  207.9  214.3  222.4
   234.2  235.2  254.1  257.9  280.4  294.2  294.7  319.4  331.8  342.7
   357.6  376.5  392.1  397.4  416.2  424.7  433.7  439.6  441.7  444.7
   452.1  453.3  458.4  469.5  477.6  493.1  501.6  503.5  515.4  522.3
   523.1  547.6  552.5  578.5  581.7  591.7  592.2  615.1  622.7  625.0
   631.2  661.1  664.9  666.6  685.9  706.9  710.2  725.7  743.8  747.8
   753.3  755.4  762.4  768.6  781.0  786.5  797.4  805.0  815.8  822.1
   823.9  830.4  832.6  841.4  851.2  854.6  855.7  888.5  898.8  910.2
   930.5  940.2  943.4  955.7  968.0  973.6  977.0  977.1  986.3  989.4
  1039.0 1068.5 1093.3 1104.9 1117.5 1148.5 1155.0 1165.8 1168.6 1174.6
  1177.5 1189.9 1200.8 1213.7 1223.3 1227.8 1236.4 1249.7 1272.2 1281.6
  1294.7 1303.6 1324.4 1325.8 1360.1 1361.4 1369.5 1384.2 1386.2 1392.6
  1394.9 1397.6 1411.6 1421.1 1424.0 1436.1 1452.8 1456.8 1469.3 1481.4
  1482.2 1484.0 1484.1 1496.2 1506.5 1523.5 1544.1 1554.5 1562.4 1574.7
  1587.9 1592.6 1614.7 1619.9 1634.6 1684.2 1721.0 1800.8 1803.3 2179.0
  2264.3 3029.8 3034.4 3087.0 3090.2 3109.5 3131.8 3141.6 3193.3 3193.6
  3198.3 3198.5 3209.2 3209.5 3226.0 3226.1 3227.8 3235.6 3247.2
 g94    symmetries=
                                                 A      A      A      A
       A      A      A      A      A      A      A      A      A      A
       A      A      A      A      A      A      A      A      A      A
       A      A      A      A      A      A      A      A      A      A
       A      A      A      A      A      A      A      A      A      A
       A      A      A      A      A      A      A      A      A      A
       A      A      A      A      A      A      A      A      A      A
       A      A      A      A      A      A      A      A      A      A
       A      A      A      A      A      A      A      A      A      A
       A      A      A      A      A      A      A      A      A      A
       A      A      A      A      A      A      A      A      A      A
       A      A      A      A      A      A      A      A      A      A
       A      A      A      A      A      A      A      A      A      A
       A      A      A      A      A      A      A      A      A      A
       A      A      A      A      A      A      A      A      A      A
       A      A      A      A      A      A      A      A      A      A
       A      A      A      A      A      A      A      A      A      A
       A      A      A      A      A      A      A      A      A      A
       A      A      A      A      A      A      A      A      A
 atomic masses:
 12.0000 12.0000 12.0000 14.0031 12.0000 15.9949 12.0000 12.0000 12.0000 12.0000
 12.0000 12.0000 12.0000 12.0000 12.0000 15.9949 14.0031 12.0000 12.0000 12.0000
 12.0000 12.0000 12.0000 12.0000 31.9721 12.0000 12.0000 12.0000 31.9721 12.0000
 15.9949 12.0000 12.0000 12.0000 12.0000 12.0000 12.0000 12.0000 12.0000 12.0000
 15.9949 12.0000 12.0000 12.0000 12.0000  1.0078  1.0078  1.0078  1.0078  1.0078
  1.0078  1.0078  1.0078  1.0078  1.0078  1.0078  1.0078  1.0078  1.0078  1.0078
  1.0078  1.0078  1.0078
 looking for force constants in 
 ./TT-PDI_5_C0S1.fchk                                                           
  
 Cartesian Force Constants                  R   N=       17955                  
  
 n3=         189       17955
 g94-fc frequencies=
    -7.1   -1.2   -0.0    0.0    0.0    0.5    6.8    9.9   16.3   23.8
    26.6   38.8   48.5   54.5   60.1   77.9   88.2   94.9  104.8  111.8
   117.1  160.2  169.0  177.6  193.2  194.8  204.2  207.9  214.3  222.4
   234.2  235.2  254.1  257.9  280.4  294.2  294.8  319.4  331.8  342.7
   357.6  376.5  392.1  397.4  416.2  424.7  433.7  439.6  441.7  444.7
   452.1  453.3  458.4  469.5  477.6  493.1  501.6  503.6  515.4  522.3
   523.1  547.6  552.6  578.5  581.7  591.7  592.2  615.2  622.7  625.1
   631.2  661.1  664.9  666.6  685.9  706.9  710.2  725.7  743.9  747.8
   753.3  755.4  762.4  768.7  781.1  786.5  797.4  805.0  815.8  822.1
   823.9  830.4  832.6  841.4  851.2  854.7  855.7  888.6  898.8  910.2
   930.5  940.2  943.4  955.7  968.1  973.6  977.0  977.1  986.3  989.4
  1039.0 1068.5 1093.3 1105.0 1117.5 1148.5 1155.0 1165.9 1168.6 1174.6
  1177.6 1189.9 1200.8 1213.7 1223.3 1227.9 1236.4 1249.7 1272.3 1281.6
  1294.7 1303.7 1324.4 1325.8 1360.1 1361.4 1369.5 1384.2 1386.2 1392.6
  1395.0 1397.6 1411.6 1421.1 1424.0 1436.1 1452.9 1456.9 1469.3 1481.5
  1482.2 1484.1 1484.1 1496.2 1506.5 1523.5 1544.2 1554.6 1562.5 1574.7
  1587.9 1592.7 1614.8 1620.0 1634.6 1684.3 1721.0 1800.9 1803.3 2179.0
  2264.4 3029.9 3034.4 3087.1 3090.3 3109.6 3131.9 3141.6 3193.4 3193.6
  3198.3 3198.6 3209.2 3209.6 3226.1 3226.2 3227.9 3235.6 3247.3
 at 99999: n3=         189
 symm operator            1 :  F  nop=           0
 symm operator            2 :  F  nop=           0
 symm operator            3 :  F  nop=           0
 symm operator            4 :  F  nop=           0
 symm operator            5 :  F  nop=           0
 symm operator            6 :  F  nop=           0
 symm operator            7 :  F  nop=           0
 The point group of the molecule is  C1
 Symmetry rotation matrix:
   1.00000   0.00000   0.00000
   0.00000   1.00000   0.00000
   0.00000   0.00000   1.00000

 Projecting out zero-frequency components
 generating redundant internal coords
         300        3600          63
 search for int coords
   1 str   2   1   1.533
   2 str   3   2   1.533
   3 str   4   2   1.493
   4 str   5   4   1.412
   5 str   6   5   1.224
   6 str   7   5   1.471
   7 str   8   7   1.395
   8 str   9   8   1.382
   9 str  10   9   1.413
  10 str  11  10   1.447
  11 str  12  11   1.418
  12 str  13  12   1.370
  13 str  14  13   1.407
  14 str  15  14   1.439
  15 str  16  15   1.207
  16 str  17  15   1.491
  17 str  18  17   1.309
  18 str  19  18   1.225
  19 str  20  19   1.326
  20 str  21  20   1.233
  21 str  22  21   1.367
  22 str  23  22   1.410
  23 str  24  23   1.388
  24 str  25  24   1.749
  25 str  26  25   1.738
  26 str  27  26   1.375
  27 str  28  24   1.413
  28 str  28  27   1.407
  29 str  29  22   1.781
  30 str  29  28   1.736
  31 str  30  17   1.491
  32 str  31  30   1.207
  33 str  32  30   1.439
  34 str  33  32   1.407
  35 str  34  33   1.370
  36 str  35  34   1.418
  37 str  36  35   1.447
  38 str  37  36   1.413
  39 str  38  37   1.382
  40 str  39  38   1.395
  41 str  40   4   1.404
  42 str  40  39   1.472
  43 str  41  40   1.225
  44 str  42   7   1.411
  45 str  42  39   1.411
  46 str  43  10   1.427
  47 str  43  36   1.427
  48 str  43  42   1.434
  49 str  44  11   1.431
  50 str  44  35   1.431
  51 str  45  14   1.420
  52 str  45  32   1.420
  53 str  45  44   1.444
  54 str  46   1   1.094
  55 str  47   1   1.089
  56 str  48   1   1.093
  57 str  49   2   1.088
  58 str  50   3   1.089
  59 str  51   3   1.094
  60 str  52   3   1.093
  61 str  53   8   1.083
  62 str  54   9   1.081
  63 str  55  12   1.080
  64 str  56  13   1.083
  65 str  57  23   1.080
  66 str  58  26   1.080
  67 str  59  27   1.080
  68 str  60  33   1.083
  69 str  61  34   1.080
  70 str  62  37   1.081
  71 str  63  38   1.083
 nber stretches=          71
  72 ben   1   2   3
  73 prop tor   1   2   3  50
  74 prop tor   1   2   3  51
  75 prop tor   1   2   3  52
  76 ben   1   2   4
  77 prop tor   1   2   4   5
  78 prop tor   1   2   4  40
  79 ben   1   2  49
  80 ben   2   1  46
  81 ben   2   1  47
  82 ben   2   1  48
  83 ben   2   3  50
  84 ben   2   3  51
  85 ben   2   3  52
  86 ben   2   4   5
  87 prop tor   2   4   5   6
  88 prop tor   2   4   5   7
  89 ben   2   4  40
  90 prop tor   2   4  40  39
  91 prop tor   2   4  40  41
  92 ben   3   2   4
  93 prop tor   3   2   4   5
  94 prop tor   3   2   4  40
  95 ben   3   2  49
  96 prop tor   4   2   3  50
  97 prop tor   4   2   3  51
  98 prop tor   4   2   3  52
  99 ben   4   2  49
 100 ben   4   5   6
 101 ben   4   5   7
 102 prop tor   4   5   7   8
 103 prop tor   4   5   7  42
 104 ben   4  40  39
 105 ben   4  40  41
 106 ben   5   4  40
 107 prop tor   5   4  40  39
 108 prop tor   5   4  40  41
 109 ben   5   7   8
 110 prop tor   5   7   8   9
 111 prop tor   5   7   8  53
 112 ben   5   7  42
 113 prop tor   5   7  42  39
 114 prop tor   5   7  42  43
 115 ben   6   5   7
 116 prop tor   6   5   7   8
 117 prop tor   6   5   7  42
 118 ben   7   8   9
 119 prop tor   7   8   9  10
 120 prop tor   7   8   9  54
 121 ben   7   8  53
 122 ben   7  42  39
 123 ben   7  42  43
 124 prop tor   7  42  43  10
 125 prop tor   7  42  43  36
 126 ben   8   7  42
 127 prop tor   8   7  42  39
 128 prop tor   8   7  42  43
 129 ben   8   9  10
 130 prop tor   8   9  10  11
 131 prop tor   8   9  10  43
 132 ben   8   9  54
 133 ben   9   8  53
 134 ben   9  10  11
 135 prop tor   9  10  11  12
 136 prop tor   9  10  11  44
 137 ben   9  10  43
 138 prop tor   9  10  43  36
 139 prop tor   9  10  43  42
 140 ben  10   9  54
 141 ben  10  11  12
 142 prop tor  10  11  12  13
 143 prop tor  10  11  12  55
 144 ben  10  11  44
 145 prop tor  10  11  44  35
 146 prop tor  10  11  44  45
 147 ben  10  43  36
 148 ben  10  43  42
 149 ben  11  10  43
 150 prop tor  11  10  43  36
 151 prop tor  11  10  43  42
 152 ben  11  12  13
 153 prop tor  11  12  13  14
 154 prop tor  11  12  13  56
 155 ben  11  12  55
 156 ben  11  44  35
 157 ben  11  44  45
 158 prop tor  11  44  45  14
 159 prop tor  11  44  45  32
 160 ben  12  11  44
 161 prop tor  12  11  44  35
 162 prop tor  12  11  44  45
 163 ben  12  13  14
 164 prop tor  12  13  14  15
 165 prop tor  12  13  14  45
 166 ben  12  13  56
 167 ben  13  12  55
 168 ben  13  14  15
 169 prop tor  13  14  15  16
 170 prop tor  13  14  15  17
 171 ben  13  14  45
 172 prop tor  13  14  45  32
 173 prop tor  13  14  45  44
 174 ben  14  13  56
 175 ben  14  15  16
 176 ben  14  15  17
 177 prop tor  14  15  17  18
 178 prop tor  14  15  17  30
 179 ben  14  45  32
 180 ben  14  45  44
 181 ben  15  14  45
 182 prop tor  15  14  45  32
 183 prop tor  15  14  45  44
 184 ben  15  17  18
 185 prop tor  15  17  18  19
 186 ben  15  17  30
 187 prop tor  15  17  30  31
 188 prop tor  15  17  30  32
 189 ben  16  15  17
 190 prop tor  16  15  17  18
 191 prop tor  16  15  17  30
 192 lin ben  17  18  19
 194 ben  17  30  31
 195 ben  17  30  32
 196 prop tor  17  30  32  33
 197 prop tor  17  30  32  45
 198 ben  18  17  30
 199 prop tor  18  17  30  31
 200 prop tor  18  17  30  32
 Extend lin bond           1          17          18          20
 201 lin ben  18  19  20
 203 lin ben  19  20  21
 Extend lin bond           2          19          20          22
 205 lin ben  20  21  22
 207 ben  21  22  23
 208 prop tor  21  22  23  24
 209 prop tor  21  22  23  57
 210 ben  21  22  29
 211 prop tor  21  22  29  28
 212 ben  22  23  24
 213 prop tor  22  23  24  25
 214 prop tor  22  23  24  28
 215 ben  22  23  57
 216 ben  22  29  28
 217 ben  23  22  29
 218 prop tor  23  22  29  28
 219 ben  23  24  25
 220 prop tor  23  24  25  26
 221 ben  23  24  28
 222 prop tor  23  24  28  27
 223 prop tor  23  24  28  29
 224 ben  24  23  57
 225 ben  24  25  26
 226 prop tor  24  25  26  27
 227 prop tor  24  25  26  58
 228 ben  24  28  27
 229 ben  24  28  29
 230 prop tor  24  28  29  22
 231 ben  25  24  28
 232 prop tor  25  24  28  27
 233 prop tor  25  24  28  29
 234 ben  25  26  27
 235 prop tor  25  26  27  28
 236 prop tor  25  26  27  59
 237 ben  25  26  58
 238 ben  26  27  28
 239 prop tor  26  27  28  24
 240 prop tor  26  27  28  29
 241 ben  26  27  59
 242 ben  27  26  58
 243 ben  27  28  29
 244 prop tor  27  28  29  22
 245 prop tor  28  24  25  26
 246 ben  28  27  59
 247 prop tor  29  22  23  24
 248 prop tor  29  22  23  57
[...]
 nber times 1st assigned=         162           0
 nber times 1st assigned=         163           0
 nber times 1st assigned=         164           0
 nber times 1st assigned=         165           0
 nber times 1st assigned=         166           0
 nber times 1st assigned=         167           0
 nber times 1st assigned=         168           0
 nber times 1st assigned=         169           0
 nber times 1st assigned=         170           0
 nber times 1st assigned=         171           0
 nber times 1st assigned=         172           0
 nber times 1st assigned=         173           0
 nber times 1st assigned=         174           0
 nber times 1st assigned=         175           0
 nber times 1st assigned=         176           0
 nber times 1st assigned=         177           0
 nber times 1st assigned=         178           0
 nber times 1st assigned=         179           0
 nber times 1st assigned=         180           0
 nber times 1st assigned=         181           0
 nber times 1st assigned=         182           0
 nber times 1st assigned=         183           0
 nber times 1st assigned=         184           0
 nber times 1st assigned=         185           0
 nber times 1st assigned=         186           0
 nber times 1st assigned=         187           0
 nber times 1st assigned=         188           0
 nber times 1st assigned=         189           0
 modes represented=   31749843.2419030     
 p1=
   -0.   -0.   -0.   -0.    0.   -0.-2085.  111. -155.  -32.   67.   28.   -9.  188.  -31.   76.  -48.  -20.    6.   58.
   12.    3.   82.    2.   30.    9.    4.   32.   45.  -26.  -67.  -23.   -6.  -12.   -2.   75.   -4.  -16.    4.   -6.
   -1.   -1.    7.   21.   -1.   -4.    8.   30.   11.   31.    2.   -4.    5.   16.   -1.   16.    9.   -9.    4.    0.
    2.   -0.   -6.   -0.    0.   -7.   -6.    0.   -1.    2.    0.    1.   -1.    0.   -2.   -1.    2.    1.   -0.    0.
   -2.    1.   -2.    1.   -1.   -1.   -1.    0.   -1.   -0.    0.    0.   -0.    0.    1.   -0.    2.    0.    1.   -1.
   -1.   -0.  -12.   17.    1.    0.    0.    0.    0.    4.   -0.   -2.   -1.   -2.    1.   -1.   11.   -0.   -2.    1.
   10.    7.   -5.   -0.    2.   -3.    7.    1.   -1.    4.    1.   -0.   -0.   -2.   -1.    1.   -4.   -2.   39.    0.
  -13.    0.   -3.   -1.    5.   -3.   -0.    2.   -2.   -0.   -7.    0.   -1.   -2.   -1.   -0.    1.   -2.    2.    1.
   -0.   -0.   -1.   -0.   -0.    0.    1.   -0.    0.    1.    2.   -0.   -0.   -0.    0.    0.   -1.   -0.    0.    0.
    0.   -0.   -0.    0.    0.    0.    0.    0.   -0.
 p2=
    0.   -0.   -0.    0.    0.    0. -548. 1052. 2046. -931. 1220. -251.  405.  162.   26. -144.   23.  -38.   -7.   33.
   17.    5.   82.  125.   -3.   36. -105.  -25.   15.   22.   62.  -46.   13.   -4.  -21.   71.   -9.   10.  -22.   -6.
   -4.    5.    2.  -17.    3.  -24.  -24.   25.   23.    1.    6.   32.    2.  -46.   12.    1.   -5.  -15.   -4.    5.
   -7.   -6.    9.    2.  -15.   -8.  -28.   -8.    3.    2.    2.   -3.   -6.    4.   11.    0.   -2.    1.   -1.   -2.
   -6.   -3.    2.   -3.   -0.   -2.   -1.   -1.   -2.    2.    0.   -0.    1.   -0.   -1.    3.    3.   -4.   -0.    1.
    6.  -13.   12.   16.    2.   -1.   -0.    7.   -0.   -0.    1.    2.   -3.   -0.    4.   -2.   10.    2.   -1.    3.
    5.  -10.    6.    2.   -0.    6.    4.   -1.    3.   -1.    1.   -0.    0.    3.   -0.    1.    0.   35.   -2.    1.
    0.   22.   -1.   -0.   -3.   -6.   -1.    1.    0.   -0.    2.    8.   -1.   -0.    1.   -1.    0.   -3.    2.    1.
    0.    0.   -0.    0.    1.    1.    0.   -1.   -2.   -1.    3.    0.    0.    0.   -0.   -0.    1.   -0.   -0.   -0.
   -0.    0.    0.   -0.    0.    0.   -0.   -0.    0.

 Displacement: in terms of nc of 1 THEN of nc of 2

   1     freq=    -0. Q= -0.000 lam=    -0.0     freq=    -0. Q= -0.000 lam=    -0.0
   2     freq=    -0. Q= -0.000 lam=    -0.0     freq=    -0. Q= -0.000 lam=    -0.0
   3     freq=     0. Q= -0.000 lam=     0.0     freq=    -0. Q= -0.000 lam=    -0.0
   4     freq=     0. Q= -0.000 lam=     0.0     freq=     0. Q= -0.000 lam=     0.0
   5     freq=     0. Q=  0.000 lam=     0.0     freq=     0. Q=  0.000 lam=     0.0
   6     freq=     0. Q= -0.000 lam=     0.0     freq=     0. Q= -0.000 lam=     0.0
   7     freq=     5. Q=-18.579 lam=   845.4     freq=     7. Q= -5.767 lam=   113.1
   8     freq=     8. Q=  1.250 lam=     6.0     freq=    10. Q= 13.320 lam=   874.8
   9     freq=    10. Q= -1.995 lam=    20.3     freq=    16. Q=-33.207 lam=  8922.8
  10     freq=    24. Q= -0.646 lam=     5.1     freq=    24. Q=-18.332 lam=  4002.4
  11     freq=    29. Q=  1.452 lam=    30.8     freq=    27. Q= 25.357 lam=  8541.8
  12     freq=    40. Q=  0.722 lam=    10.3     freq=    39. Q=  6.293 lam=   767.4
  13     freq=    49. Q= -0.239 lam=     1.4     freq=    48. Q=-11.384 lam=  3140.6
  14     freq=    55. Q=  5.635 lam=   877.0     freq=    55. Q=  4.838 lam=   637.9
  15     freq=    61. Q= -0.971 lam=    28.9     freq=    60. Q= -0.820 lam=    20.2
  16     freq=    76. Q=  2.664 lam=   269.7     freq=    78. Q=  5.114 lam=  1018.9
  17     freq=    89. Q= -1.830 lam=   149.2     freq=    88. Q= -0.873 lam=    33.6
  18     freq=    99. Q= -0.799 lam=    31.7     freq=    95. Q= -1.484 lam=   104.6
  19     freq=   107. Q=  0.245 lam=     3.2     freq=   105. Q=  0.308 lam=     5.0
  20     freq=   116. Q=  2.518 lam=   368.2     freq=   112. Q=  1.391 lam=   108.2
  21     freq=   120. Q=  0.518 lam=    16.1     freq=   117. Q=  0.728 lam=    31.1
  22     freq=   143. Q=  0.144 lam=     1.5     freq=   160. Q=  0.243 lam=     4.7
  23     freq=   168. Q=  4.297 lam=  1549.1     freq=   169. Q=  4.314 lam=  1573.2
  24     freq=   174. Q=  0.090 lam=     0.7     freq=   178. Q=  6.697 lam=  3982.6
  25     freq=   186. Q=  1.659 lam=   255.3     freq=   193. Q=  0.146 lam=     2.1
  26     freq=   196. Q=  0.518 lam=    26.3     freq=   195. Q=  2.049 lam=   409.2
  27     freq=   203. Q=  0.211 lam=     4.5     freq=   204. Q=  6.028 lam=  3710.3
  28     freq=   209. Q=  1.848 lam=   356.5     freq=   208. Q=  1.433 lam=   213.3
  29     freq=   219. Q=  2.683 lam=   788.8     freq=   214. Q=  0.871 lam=    81.2
  30     freq=   233. Q= -1.625 lam=   307.5     freq=   222. Q= -1.343 lam=   200.6
  31     freq=   236. Q= -4.159 lam=  2036.8     freq=   234. Q= -3.806 lam=  1696.0
  32     freq=   236. Q= -1.447 lam=   247.5     freq=   235. Q= -2.828 lam=   940.8
  33     freq=   241. Q= -0.367 lam=    16.2     freq=   254. Q= -0.815 lam=    84.4
  34     freq=   256. Q= -0.746 lam=    71.0     freq=   258. Q= -0.282 lam=    10.3
  35     freq=   280. Q= -0.122 lam=     2.1     freq=   280. Q= -1.445 lam=   292.8
  36     freq=   293. Q=  5.152 lam=  3892.5     freq=   294. Q=  4.907 lam=  3540.8
  37     freq=   301. Q= -0.299 lam=    13.5     freq=   295. Q= -0.654 lam=    63.0
  38     freq=   321. Q= -1.149 lam=   211.7     freq=   319. Q= -0.748 lam=    89.3
  39     freq=   331. Q=  0.327 lam=    17.7     freq=   332. Q=  1.638 lam=   445.1
  40     freq=   350. Q= -0.437 lam=    33.4     freq=   343. Q= -0.483 lam=    40.0
  41     freq=   371. Q= -0.077 lam=     1.1     freq=   358. Q= -0.329 lam=    19.3
  42     freq=   386. Q= -0.115 lam=     2.5     freq=   376. Q= -0.393 lam=    29.0
  43     freq=   393. Q=  0.543 lam=    58.0     freq=   392. Q=  0.130 lam=     3.3
  44     freq=   396. Q=  1.705 lam=   575.3     freq=   397. Q=  1.395 lam=   386.8
  45     freq=   417. Q= -0.104 lam=     2.2     freq=   416. Q= -0.226 lam=    10.6
  46     freq=   421. Q= -0.360 lam=    27.3     freq=   425. Q= -1.961 lam=   816.9
  47     freq=   427. Q=  0.647 lam=    89.4     freq=   434. Q=  2.050 lam=   911.5
  48     freq=   433. Q=  2.514 lam=  1366.8     freq=   440. Q=  2.103 lam=   972.0
  49     freq=   438. Q=  0.962 lam=   202.7     freq=   442. Q=  1.961 lam=   849.6
  50     freq=   447. Q=  2.615 lam=  1527.2     freq=   445. Q=  0.116 lam=     3.0
  51     freq=   451. Q=  0.189 lam=     8.1     freq=   452. Q=  0.485 lam=    53.2
  52     freq=   457. Q= -0.366 lam=    30.6     freq=   453. Q= -2.738 lam=  1698.7
  53     freq=   464. Q=  0.474 lam=    52.1     freq=   458. Q=  0.207 lam=     9.8
  54     freq=   468. Q=  1.382 lam=   446.6     freq=   469. Q=  3.977 lam=  3713.2
  55     freq=   472. Q= -0.075 lam=     1.3     freq=   478. Q= -1.034 lam=   255.5
  56     freq=   478. Q=  1.423 lam=   484.3     freq=   493. Q=  0.112 lam=     3.1
  57     freq=   486. Q=  0.777 lam=   146.7     freq=   502. Q=  0.435 lam=    47.3
  58     freq=   502. Q= -0.851 lam=   181.9     freq=   504. Q= -1.366 lam=   469.8
  59     freq=   503. Q=  0.364 lam=    33.3     freq=   515. Q=  0.332 lam=    28.3
  60     freq=   506. Q=  0.037 lam=     0.4     freq=   522. Q=  0.504 lam=    66.5
  61     freq=   525. Q=  0.223 lam=    13.0     freq=   523. Q=  0.629 lam=   103.5
  62     freq=   537. Q= -0.030 lam=     0.2     freq=   548. Q= -0.580 lam=    92.1
  63     freq=   548. Q= -0.528 lam=    76.4     freq=   553. Q= -0.851 lam=   200.1
  64     freq=   563. Q= -0.009 lam=     0.0     freq=   578. Q= -0.189 lam=    10.3
  65     freq=   574. Q=  0.021 lam=     0.1     freq=   582. Q=  1.433 lam=   597.4
  66     freq=   577. Q= -0.646 lam=   120.3     freq=   592. Q= -0.758 lam=   170.0
  67     freq=   581. Q= -0.590 lam=   101.0     freq=   592. Q= -2.780 lam=  2288.9
  68     freq=   599. Q=  0.049 lam=     0.7     freq=   615. Q=  0.839 lam=   216.3
  69     freq=   604. Q= -0.071 lam=     1.5     freq=   623. Q= -0.272 lam=    23.1
  70     freq=   611. Q=  0.209 lam=    13.4     freq=   625. Q=  0.236 lam=    17.4
  71     freq=   616. Q=  0.007 lam=     0.0     freq=   631. Q=  0.179 lam=    10.2
  72     freq=   625. Q=  0.065 lam=     1.3     freq=   661. Q=  0.282 lam=    26.3
  73     freq=   636. Q= -0.136 lam=     5.9     freq=   665. Q= -0.578 lam=   111.0
  74     freq=   652. Q=  0.028 lam=     0.3     freq=   667. Q=  0.392 lam=    51.2
  75     freq=   666. Q= -0.175 lam=    10.2     freq=   686. Q= -1.152 lam=   455.4
  76     freq=   681. Q= -0.068 lam=     1.6     freq=   707. Q= -0.027 lam=     0.3
  77     freq=   704. Q=  0.181 lam=    11.5     freq=   710. Q=  0.261 lam=    24.2
  78     freq=   707. Q=  0.130 lam=     6.0     freq=   726. Q=  0.152 lam=     8.3
  79     freq=   709. Q= -0.006 lam=     0.0     freq=   744. Q= -0.079 lam=     2.3
  80     freq=   714. Q=  0.042 lam=     0.6     freq=   748. Q=  0.253 lam=    24.0
  81     freq=   723. Q= -0.191 lam=    13.2     freq=   753. Q= -0.643 lam=   155.6
  82     freq=   747. Q=  0.089 lam=     2.9     freq=   755. Q=  0.278 lam=    29.2
  83     freq=   758. Q= -0.265 lam=    26.6     freq=   762. Q= -0.267 lam=    27.1
  84     freq=   758. Q=  0.095 lam=     3.4     freq=   769. Q=  0.341 lam=    44.7
  85     freq=   759. Q= -0.121 lam=     5.5     freq=   781. Q= -0.042 lam=     0.7
  86     freq=   765. Q= -0.161 lam=     9.9     freq=   787. Q= -0.199 lam=    15.5
  87     freq=   779. Q= -0.082 lam=     2.6     freq=   797. Q= -0.064 lam=     1.6
  88     freq=   802. Q=  0.037 lam=     0.6     freq=   805. Q=  0.079 lam=     2.5
  89     freq=   810. Q= -0.065 lam=     1.7     freq=   816. Q= -0.206 lam=    17.2
  90     freq=   811. Q= -0.053 lam=     1.1     freq=   822. Q= -0.220 lam=    19.9
  91     freq=   816. Q=  0.057 lam=     1.3     freq=   824. Q=  0.031 lam=     0.4
  92     freq=   823. Q=  0.023 lam=     0.2     freq=   830. Q=  0.052 lam=     1.1
  93     freq=   827. Q= -0.029 lam=     0.3     freq=   833. Q= -0.156 lam=    10.2
  94     freq=   832. Q=  0.004 lam=     0.0     freq=   841. Q=  0.007 lam=     0.0
  95     freq=   842. Q=  0.168 lam=    11.9     freq=   851. Q=  0.071 lam=     2.2
  96     freq=   843. Q= -0.024 lam=     0.2     freq=   855. Q= -0.308 lam=    40.5
  97     freq=   855. Q=  0.229 lam=    22.4     freq=   856. Q=  0.303 lam=    39.3
  98     freq=   880. Q=  0.012 lam=     0.1     freq=   889. Q=  0.487 lam=   105.5
  99     freq=   902. Q=  0.150 lam=    10.1     freq=   899. Q=  0.037 lam=     0.6
 100     freq=   915. Q= -0.160 lam=    11.6     freq=   910. Q= -0.110 lam=     5.5
 101     freq=   927. Q= -0.127 lam=     7.5     freq=   930. Q= -0.761 lam=   269.7
 102     freq=   937. Q= -0.060 lam=     1.7     freq=   940. Q= -1.584 lam=  1179.3
 103     freq=   945. Q= -1.450 lam=   993.8     freq=   943. Q= -1.487 lam=  1042.4
 104     freq=   957. Q=  2.108 lam=  2124.9     freq=   956. Q=  2.051 lam=  2010.2
 105     freq=   971. Q=  0.118 lam=     6.7     freq=   968. Q=  0.242 lam=    28.4
 106     freq=   976. Q=  0.013 lam=     0.1     freq=   974. Q=  0.078 lam=     2.9
 107     freq=   977. Q=  0.006 lam=     0.0     freq=   977. Q=  0.056 lam=     1.5
 108     freq=   989. Q=  0.015 lam=     0.1     freq=   977. Q=  0.859 lam=   360.2
 109     freq=   989. Q=  0.008 lam=     0.0     freq=   986. Q=  0.019 lam=     0.2
 110     freq=  1053. Q=  0.531 lam=   148.6     freq=   989. Q=  0.016 lam=     0.1
 111     freq=  1062. Q= -0.009 lam=     0.0     freq=  1039. Q= -0.149 lam=    11.5
 112     freq=  1089. Q= -0.289 lam=    45.3     freq=  1068. Q= -0.302 lam=    48.7
 113     freq=  1101. Q= -0.070 lam=     2.7     freq=  1093. Q= -0.457 lam=   114.2
 114     freq=  1105. Q= -0.234 lam=    30.3     freq=  1105. Q= -0.049 lam=     1.3
 115     freq=  1117. Q=  0.146 lam=    11.9     freq=  1118. Q=  0.521 lam=   151.7
 116     freq=  1137. Q= -0.180 lam=    18.4     freq=  1148. Q= -0.313 lam=    56.1
 117     freq=  1156. Q=  1.486 lam=  1275.4     freq=  1155. Q=  1.410 lam=  1147.7
 118     freq=  1162. Q= -0.009 lam=     0.0     freq=  1166. Q= -0.256 lam=    38.2
 119     freq=  1170. Q= -0.319 lam=    59.4     freq=  1169. Q= -0.190 lam=    21.1
 120     freq=  1175. Q=  0.093 lam=     5.0     freq=  1175. Q=  0.433 lam=   110.2
 121     freq=  1186. Q=  1.344 lam=  1071.9     freq=  1178. Q=  0.703 lam=   291.2
 122     freq=  1197. Q=  0.996 lam=   593.7     freq=  1190. Q=  1.351 lam=  1085.3
 123     freq=  1201. Q= -0.710 lam=   302.5     freq=  1201. Q= -0.849 lam=   432.9
 124     freq=  1203. Q= -0.043 lam=     1.1     freq=  1214. Q= -0.293 lam=    52.0
 125     freq=  1214. Q=  0.228 lam=    31.5     freq=  1223. Q=  0.057 lam=     2.0
 126     freq=  1225. Q= -0.442 lam=   119.6     freq=  1228. Q= -0.828 lam=   420.4
 127     freq=  1233. Q=  0.925 lam=   527.2     freq=  1236. Q=  0.595 lam=   218.6
 128     freq=  1244. Q=  0.142 lam=    12.5     freq=  1250. Q=  0.168 lam=    17.7
 129     freq=  1269. Q= -0.143 lam=    13.0     freq=  1272. Q= -0.481 lam=   147.1
 130     freq=  1288. Q=  0.539 lam=   186.7     freq=  1282. Q=  0.152 lam=    14.9
 131     freq=  1303. Q=  0.125 lam=    10.2     freq=  1295. Q=  0.120 lam=     9.3
 132     freq=  1321. Q= -0.045 lam=     1.4     freq=  1304. Q= -0.049 lam=     1.5
 133     freq=  1325. Q= -0.064 lam=     2.8     freq=  1324. Q= -0.038 lam=     1.0
 134     freq=  1344. Q= -0.319 lam=    68.5     freq=  1326. Q= -0.389 lam=   100.4
 135     freq=  1352. Q= -0.097 lam=     6.4     freq=  1360. Q= -0.034 lam=     0.8
 136     freq=  1366. Q=  0.082 lam=     4.6     freq=  1361. Q=  0.105 lam=     7.6
 137     freq=  1372. Q= -0.629 lam=   271.5     freq=  1369. Q= -0.024 lam=     0.4
 138     freq=  1379. Q= -0.352 lam=    85.5     freq=  1384. Q= -5.257 lam= 19129.0
 139     freq=  1382. Q=  5.858 lam= 23709.6     freq=  1386. Q=  0.298 lam=    61.5
 140     freq=  1391. Q=  0.021 lam=     0.3     freq=  1393. Q=  0.084 lam=     4.9
 141     freq=  1400. Q= -1.996 lam=  2788.6     freq=  1395. Q= -0.060 lam=     2.5
 142     freq=  1406. Q=  0.064 lam=     2.9     freq=  1398. Q=  3.365 lam=  7913.1
 143     freq=  1414. Q= -0.394 lam=   109.9     freq=  1412. Q= -0.200 lam=    28.2
 144     freq=  1416. Q= -0.093 lam=     6.1     freq=  1421. Q= -0.044 lam=     1.4
 145     freq=  1430. Q=  0.742 lam=   393.7     freq=  1424. Q=  0.465 lam=   153.8
 146     freq=  1438. Q= -0.464 lam=   154.9     freq=  1436. Q= -0.901 lam=   583.2
 147     freq=  1444. Q= -0.048 lam=     1.6     freq=  1453. Q= -0.083 lam=     5.1
 148     freq=  1451. Q=  0.291 lam=    61.3     freq=  1457. Q=  0.131 lam=    12.5
 149     freq=  1459. Q= -0.308 lam=    69.0     freq=  1469. Q= -0.006 lam=     0.0
 150     freq=  1471. Q= -0.031 lam=     0.7     freq=  1481. Q= -0.021 lam=     0.3
 151     freq=  1485. Q= -1.114 lam=   921.7     freq=  1482. Q= -0.278 lam=    57.4
 152     freq=  1491. Q=  0.026 lam=     0.5     freq=  1484. Q=  1.179 lam=  1032.0
 153     freq=  1498. Q= -0.118 lam=    10.3     freq=  1484. Q= -0.132 lam=    12.8
 154     freq=  1505. Q= -0.275 lam=    57.1     freq=  1496. Q= -0.064 lam=     3.0
 155     freq=  1508. Q= -0.132 lam=    13.2     freq=  1506. Q= -0.233 lam=    40.9
 156     freq=  1513. Q= -0.020 lam=     0.3     freq=  1524. Q= -0.209 lam=    33.4
 157     freq=  1522. Q=  0.197 lam=    29.6     freq=  1544. Q=  0.013 lam=     0.1
 158     freq=  1546. Q= -0.355 lam=    97.4     freq=  1555. Q= -0.431 lam=   144.5
 159     freq=  1547. Q=  0.343 lam=    90.9     freq=  1562. Q=  0.254 lam=    50.4
 160     freq=  1555. Q=  0.177 lam=    24.5     freq=  1575. Q=  0.084 lam=     5.5
 161     freq=  1575. Q= -0.032 lam=     0.8     freq=  1588. Q= -0.018 lam=     0.3
 162     freq=  1594. Q= -0.012 lam=     0.1     freq=  1593. Q= -0.070 lam=     3.9
 163     freq=  1599. Q= -0.097 lam=     7.5     freq=  1615. Q= -0.026 lam=     0.6
 164     freq=  1610. Q= -0.032 lam=     0.8     freq=  1620. Q= -0.023 lam=     0.4
 165     freq=  1622. Q= -0.010 lam=     0.1     freq=  1635. Q= -0.180 lam=    26.5
 166     freq=  1687. Q=  0.083 lam=     5.8     freq=  1684. Q=  0.100 lam=     8.4
 167     freq=  1726. Q=  0.156 lam=    21.1     freq=  1721. Q=  0.066 lam=     3.7
 168     freq=  1733. Q= -0.008 lam=     0.1     freq=  1801. Q= -0.219 lam=    43.1
 169     freq=  1761. Q=  0.008 lam=     0.1     freq=  1803. Q=  0.381 lam=   130.8
 170     freq=  2244. Q=  0.188 lam=    39.8     freq=  2179. Q=  0.106 lam=    12.2
 171     freq=  2324. Q=  0.456 lam=   241.2     freq=  2264. Q=  0.537 lam=   326.1
 172     freq=  3035. Q= -0.022 lam=     0.7     freq=  3030. Q= -0.015 lam=     0.3
 173     freq=  3039. Q= -0.002 lam=     0.0     freq=  3034. Q= -0.017 lam=     0.4
 174     freq=  3093. Q= -0.006 lam=     0.1     freq=  3087. Q= -0.016 lam=     0.4
 175     freq=  3096. Q=  0.015 lam=     0.3     freq=  3090. Q=  0.001 lam=     0.0
 176     freq=  3113. Q=  0.006 lam=     0.1     freq=  3109. Q=  0.004 lam=     0.0
 177     freq=  3133. Q= -0.180 lam=    50.8     freq=  3132. Q= -0.184 lam=    52.9
 178     freq=  3143. Q= -0.000 lam=     0.0     freq=  3142. Q= -0.003 lam=     0.0
 179     freq=  3199. Q=  0.003 lam=     0.0     freq=  3193. Q=  0.002 lam=     0.0
 180     freq=  3199. Q=  0.000 lam=     0.0     freq=  3194. Q=  0.003 lam=     0.0
 181     freq=  3205. Q=  0.001 lam=     0.0     freq=  3198. Q=  0.000 lam=     0.0
 182     freq=  3206. Q= -0.003 lam=     0.0     freq=  3198. Q= -0.005 lam=     0.0
 183     freq=  3214. Q= -0.003 lam=     0.0     freq=  3209. Q= -0.005 lam=     0.0
 184     freq=  3214. Q=  0.003 lam=     0.0     freq=  3209. Q=  0.003 lam=     0.0
 185     freq=  3215. Q=  0.009 lam=     0.1     freq=  3226. Q=  0.001 lam=     0.0
 186     freq=  3224. Q=  0.009 lam=     0.1     freq=  3226. Q=  0.004 lam=     0.0
 187     freq=  3225. Q=  0.000 lam=     0.0     freq=  3228. Q=  0.012 lam=     0.2
 188     freq=  3226. Q=  0.001 lam=     0.0     freq=  3236. Q=  0.005 lam=     0.0
 189     freq=  3245. Q= -0.000 lam=     0.0     freq=  3247. Q= -0.001 lam=     0.0

 total reorg energy (cm**-1, kcal/mol)=    55180.   100286.    157.77    286.73
 Nber of molecules processed=           2
