 Enter ifcurve (0=recti, 1=orth curvi, 2=apprx curvi, -1 = skip
 And atom ordering flag, 0= never changes, 1= use the first order thenceforth,
  2= deduce it (does read on fail), 3= always read it
 Reading file: 
 ./CDT_1_C0S0.log                                                               
                                          
  Entering Gaussian System, Link 0=g16                                          
  
 Gaussian format, type: g94, g98, g03= F F F
  #P Geom=AllCheck Guess=TCheck SCRF=Check GenChk RB3LYP/6-311G(d,p) Fre    
 energy type= B3LYP   
 Original G94 input coords:
  6 -1.493629 -1.371932  0.263522
  6 -1.524273 -0.022851  0.610368
  6 -0.381492  0.760306  0.491140
  6  0.826789  0.209456  0.031941
  6  2.038657  1.020698 -0.107442
  6  3.089331  0.851246 -0.985454
  6  4.098728  1.827605 -0.834947
  6  5.425750  2.162469 -1.486163
  6  5.849635  3.393657 -0.710816
  6  6.946463  4.291836 -0.702313
  6  6.803946  5.266958  0.249101
 16  5.319201  5.104107  1.157791
  6  4.892524  3.704420  0.237691
  6  3.818852  2.745492  0.160273
 16  2.311944  2.421258  0.938406
  6  0.844994 -1.155933 -0.303281
  6 -0.302677 -1.932420 -0.195925
  1 -2.386049 -1.980508  0.353229
  1 -2.445064  0.426059  0.965771
  1 -0.429769  1.815219  0.736637
  1  3.101519  0.062906 -1.726746
  1  5.317459  2.368342 -2.556994
  1  6.149334  1.345454 -1.387761
  1  7.803921  4.233487 -1.360074
  1  7.474043  6.079307  0.483508
  1  1.772747 -1.612890 -0.626914
  1 -0.263472 -2.983716 -0.458968
 nber atoms=          27
  SCF Done:  E(RB3LYP) =  -1374.15707775     A.U. after    1 cycles             
  
          23          40 "  -1374.15707775"
After scan for Atom:   Atom  AN      X      Y      Z        X      Y      Z        X      Y      Z   
After scan for Atom:   Atom  AN      X      Y      Z        X      Y      Z        X      Y      Z   
After scan for Atom:   Atom  AN      X      Y      Z        X      Y      Z        X      Y      Z   
After scan for Atom:   Atom  AN      X      Y      Z        X      Y      Z        X      Y      Z   
After scan for Atom:   Atom  AN      X      Y      Z        X      Y      Z        X      Y      Z   
After scan for Atom:   Atom  AN      X      Y      Z        X      Y      Z        X      Y      Z   
After scan for Atom:   Atom  AN      X      Y      Z        X      Y      Z        X      Y      Z   
After scan for Atom:   Atom  AN      X      Y      Z        X      Y      Z        X      Y      Z   
After scan for Atom:   Atom  AN      X      Y      Z        X      Y      Z        X      Y      Z   
After scan for Atom:   Atom  AN      X      Y      Z        X      Y      Z        X      Y      Z   
After scan for Atom:   Atom  AN      X      Y      Z        X      Y      Z        X      Y      Z   
After scan for Atom:   Atom  AN      X      Y      Z        X      Y      Z        X      Y      Z   
After scan for Atom:   Atom  AN      X      Y      Z        X      Y      Z        X      Y      Z   
After scan for Atom:   Atom  AN      X      Y      Z        X      Y      Z        X      Y      Z   
After scan for Atom:   Atom  AN      X      Y      Z        X      Y      Z        X      Y      Z   
After scan for Atom:   Atom  AN      X      Y      Z        X      Y      Z        X      Y      Z   
After scan for Atom:   Atom  AN      X      Y      Z        X      Y      Z        X      Y      Z   
After scan for Atom:   Atom  AN      X      Y      Z        X      Y      Z        X      Y      Z   
After scan for Atom:   Atom  AN      X      Y      Z        X      Y      Z        X      Y      Z   
After scan for Atom:   Atom  AN      X      Y      Z        X      Y      Z        X      Y      Z   
After scan for Atom:   Atom  AN      X      Y      Z        X      Y      Z        X      Y      Z   
After scan for Atom:   Atom  AN      X      Y      Z        X      Y      Z        X      Y      Z   
After scan for Atom:   Atom  AN      X      Y      Z        X      Y      Z        X      Y      Z   
After scan for Atom:   Atom  AN      X      Y      Z        X      Y      Z        X      Y      Z   
After scan for Atom:   Atom  AN      X      Y      Z        X      Y      Z        X      Y      Z   
 g94    frequencies=
     0.0    0.0    0.0    0.0    0.0    0.0   39.5   45.2   78.4  124.3
   143.8  186.4  224.5  253.3  259.4  289.9  357.1  414.2  435.9  466.7
   476.8  516.0  556.2  570.4  585.1  608.3  632.4  633.8  658.9  696.3
   698.1  708.3  713.6  773.6  816.9  847.5  850.1  876.5  919.8  924.0
   936.5  958.0  977.9  999.2 1001.5 1013.7 1028.5 1053.4 1103.9 1109.7
  1148.8 1174.4 1182.9 1206.5 1211.9 1234.1 1267.5 1317.1 1357.0 1361.4
  1403.9 1423.1 1439.5 1457.6 1468.4 1478.9 1519.5 1531.8 1556.0 1613.3
  1641.0 3027.3 3054.9 3160.5 3166.7 3176.8 3183.1 3191.1 3199.1 3200.6
  3246.0
 g94    symmetries=
                                                 A      A      A      A
       A      A      A      A      A      A      A      A      A      A
       A      A      A      A      A      A      A      A      A      A
       A      A      A      A      A      A      A      A      A      A
       A      A      A      A      A      A      A      A      A      A
       A      A      A      A      A      A      A      A      A      A
       A      A      A      A      A      A      A      A      A      A
       A      A      A      A      A      A      A      A      A      A
       A
 atomic masses:
 12.0000 12.0000 12.0000 12.0000 12.0000 12.0000 12.0000 12.0000 12.0000 12.0000
 12.0000 31.9721 12.0000 12.0000 31.9721 12.0000 12.0000  1.0078  1.0078  1.0078
  1.0078  1.0078  1.0078  1.0078  1.0078  1.0078  1.0078
 looking for force constants in 
 ./CDT_1_C0S0.fchk                                                              
  
 Cartesian Force Constants                  R   N=        3321                  
  
 n3=          81        3321
 g94-fc frequencies=
    -3.1   -1.0   -0.0    0.0    0.0    2.2   39.5   45.2   78.4  124.3
   143.8  186.4  224.5  253.3  259.4  289.9  357.1  414.2  435.9  466.7
   476.8  516.0  556.2  570.4  585.1  608.3  632.4  633.8  658.9  696.3
   698.2  708.3  713.6  773.6  817.0  847.5  850.1  876.5  919.8  924.1
   936.5  958.0  977.9  999.3 1001.5 1013.8 1028.5 1053.4 1103.9 1109.7
  1148.8 1174.5 1183.0 1206.5 1212.0 1234.1 1267.5 1317.2 1357.1 1361.4
  1403.9 1423.2 1439.5 1457.6 1468.4 1478.9 1519.5 1531.8 1556.0 1613.3
  1641.1 3027.4 3054.9 3160.6 3166.8 3176.8 3183.1 3191.2 3199.2 3200.6
  3246.0
 at 99999: n3=          81
 symm operator            1 :  F  nop=           0
 symm operator            2 :  F  nop=           0
 symm operator            3 :  F  nop=           0
 symm operator            4 :  F  nop=           0
 symm operator            5 :  F  nop=           0
 symm operator            6 :  F  nop=           0
 symm operator            7 :  F  nop=           0
 The point group of the molecule is  C1
 Symmetry rotation matrix:
   1.00000   0.00000   0.00000
   0.00000   1.00000   0.00000
   0.00000   0.00000   1.00000

 Projecting out zero-frequency components
 generating redundant internal coords
         300        3600          27
 search for int coords
   1 str   2   1   1.393
   2 str   3   2   1.391
   3 str   4   3   1.405
   4 str   5   4   1.465
   5 str   6   5   1.380
   6 str   7   6   1.412
   7 str   8   7   1.516
   8 str   9   8   1.515
   9 str  10   9   1.418
  10 str  11  10   1.370
  11 str  12  11   1.748
  12 str  13   9   1.383
  13 str  13  12   1.729
  14 str  14   7   1.383
  15 str  14  13   1.442
  16 str  15   5   1.769
  17 str  15  14   1.727
  18 str  16   4   1.406
  19 str  17   1   1.394
  20 str  17  16   1.390
  21 str  18   1   1.084
  22 str  19   2   1.084
  23 str  20   3   1.084
  24 str  21   6   1.082
  25 str  22   8   1.096
  26 str  23   8   1.096
  27 str  24  10   1.082
  28 str  25  11   1.079
  29 str  26  16   1.084
  30 str  27  17   1.084
 nber stretches=          30
  31 ben   1   2   3
  32 prop tor   1   2   3   4
  33 prop tor   1   2   3  20
  34 ben   1   2  19
  35 ben   1  17  16
  36 ben   1  17  27
  37 ben   2   1  17
  38 prop tor   2   1  17  16
  39 prop tor   2   1  17  27
  40 ben   2   1  18
  41 ben   2   3   4
  42 prop tor   2   3   4   5
  43 prop tor   2   3   4  16
  44 ben   2   3  20
  45 ben   3   2  19
  46 ben   3   4   5
  47 prop tor   3   4   5   6
  48 prop tor   3   4   5  15
  49 ben   3   4  16
  50 prop tor   3   4  16  17
  51 prop tor   3   4  16  26
  52 ben   4   3  20
  53 ben   4   5   6
  54 prop tor   4   5   6   7
  55 prop tor   4   5   6  21
  56 ben   4   5  15
  57 prop tor   4   5  15  14
  58 ben   4  16  17
  59 prop tor   4  16  17   1
  60 prop tor   4  16  17  27
  61 ben   4  16  26
  62 ben   5   4  16
  63 prop tor   5   4  16  17
  64 prop tor   5   4  16  26
  65 ben   5   6   7
  66 prop tor   5   6   7   8
  67 prop tor   5   6   7  14
  68 ben   5   6  21
  69 ben   5  15  14
  70 ben   6   5  15
  71 prop tor   6   5  15  14
  72 ben   6   7   8
  73 prop tor   6   7   8   9
  74 prop tor   6   7   8  22
  75 prop tor   6   7   8  23
  76 ben   6   7  14
  77 prop tor   6   7  14  13
  78 prop tor   6   7  14  15
  79 ben   7   6  21
  80 ben   7   8   9
  81 prop tor   7   8   9  10
  82 prop tor   7   8   9  13
  83 ben   7   8  22
  84 ben   7   8  23
  85 ben   7  14  13
  86 ben   7  14  15
  87 prop tor   7  14  15   5
  88 ben   8   7  14
  89 prop tor   8   7  14  13
  90 prop tor   8   7  14  15
  91 ben   8   9  10
  92 prop tor   8   9  10  11
  93 prop tor   8   9  10  24
  94 ben   8   9  13
  95 prop tor   8   9  13  12
  96 prop tor   8   9  13  14
  97 ben   9   8  22
  98 ben   9   8  23
  99 ben   9  10  11
 100 prop tor   9  10  11  12
 101 prop tor   9  10  11  25
 102 ben   9  10  24
 103 ben   9  13  12
 104 ben   9  13  14
 105 prop tor   9  13  14   7
 106 prop tor   9  13  14  15
 107 ben  10   9  13
 108 prop tor  10   9  13  12
 109 prop tor  10   9  13  14
 110 ben  10  11  12
 111 prop tor  10  11  12  13
 112 ben  10  11  25
 113 ben  11  10  24
 114 ben  11  12  13
 115 prop tor  11  12  13   9
 116 prop tor  11  12  13  14
 117 ben  12  11  25
 118 ben  12  13  14
 119 prop tor  12  13  14   7
 120 prop tor  12  13  14  15
 121 prop tor  13   9  10  11
 122 prop tor  13   9  10  24
 123 ben  13  14  15
 124 prop tor  13  14  15   5
 125 prop tor  14   7   8   9
 126 prop tor  14   7   8  22
 127 prop tor  14   7   8  23
 128 prop tor  15   5   6   7
 129 prop tor  15   5   6  21
 130 prop tor  16   4   5   6
 131 prop tor  16   4   5  15
 132 ben  16  17  27
 133 prop tor  17   1   2   3
 134 prop tor  17   1   2  19
 135 ben  17   1  18
 136 ben  17  16  26
 137 prop tor  18   1   2   3
 138 prop tor  18   1   2  19
 139 prop tor  18   1  17  16
 140 prop tor  18   1  17  27
 141 prop tor  19   2   3   4
 142 prop tor  19   2   3  20
 143 prop tor  20   3   4   5
 144 prop tor  20   3   4  16
 145 prop tor  21   6   7   8
 146 prop tor  21   6   7  14
 147 prop tor  22   8   9  10
 148 prop tor  22   8   9  13
 149 ben  22   8  23
 150 prop tor  23   8   9  10
 151 prop tor  23   8   9  13
 152 prop tor  24  10  11  12
 153 prop tor  24  10  11  25
 154 prop tor  25  11  12  13
 155 prop tor  26  16  17   1
 156 prop tor  26  16  17  27
 nber bend=              50
 nber lin bend=           0
 nber prop tor=          76
 nber impr tor=           0
 nber tot redund int=         156
 Eigenvalues of G in red int coords
    Gval -0.00000000 -0.00000000 -0.00000000 -0.00000000 -0.00000000 -0.00000000 -0.00000000 -0.00000000
    Gval -0.00000000 -0.00000000 -0.00000000 -0.00000000 -0.00000000 -0.00000000 -0.00000000 -0.00000000
    Gval -0.00000000 -0.00000000 -0.00000000 -0.00000000 -0.00000000 -0.00000000 -0.00000000 -0.00000000
    Gval -0.00000000 -0.00000000 -0.00000000 -0.00000000 -0.00000000 -0.00000000 -0.00000000 -0.00000000
    Gval -0.00000000 -0.00000000 -0.00000000 -0.00000000 -0.00000000 -0.00000000 -0.00000000 -0.00000000
    Gval -0.00000000  0.00000000  0.00000000  0.00000000  0.00000000  0.00000000  0.00000000  0.00000000
    Gval  0.00000000  0.00000000  0.00000000  0.00000000  0.00000000  0.00000000  0.00000000  0.00000000
    Gval  0.00000000  0.00000000  0.00000000  0.00000000  0.00000000  0.00000000  0.00000000  0.00000000
    Gval  0.00000000  0.00000000  0.00000000  0.00000000  0.00000000  0.00000000  0.00000000  0.00000000
    Gval  0.00000000  0.00000000  0.00000000  0.00000000  0.00000000  0.00000000  0.00000000  0.00000000
    Gval  0.00000000  0.00000187  0.00000428  0.00000666  0.00001060  0.00001762  0.00002359  0.00002467
    Gval  0.00002721  0.00003891  0.00004466  0.00004873  0.00005342  0.00005622  0.00006386  0.00006509
    Gval  0.00007535  0.00007683  0.00009289  0.00009475  0.00010476  0.00010714  0.00011787  0.00012811
    Gval  0.00013442  0.00016279  0.00019311  0.00020362  0.00023121  0.00027089  0.00028450  0.00030209
    Gval  0.00030251  0.00035463  0.00036699  0.00037311  0.00038295  0.00040892  0.00042959  0.00053624
    Gval  0.00058329  0.00059153  0.00059306  0.00059540  0.00059676  0.00060433  0.00062072  0.00062365
    Gval  0.00062594  0.00065384  0.00066080  0.00103238  0.00105078  0.00108137  0.00110529  0.00110879
    Gval  0.00113831  0.00114187  0.00117002  0.00117252  0.00118435  0.00133672  0.00137735  0.00145211
    Gval  0.00166005  0.00186157  0.00195880  0.00208947  0.00234056  0.00266455  0.00302540  0.00311355
    Gval  0.00371020  0.00373239  0.00406724  0.00408090
  1.866639019464604E-006  1.866639019464604E-006
  4.280026127672071E-006  1.866639019464604E-006
  6.664286171879384E-006  1.866639019464604E-006
  1.060086036019329E-005  1.866639019464604E-006
  1.761597169956475E-005  1.866639019464604E-006
  2.359419099210610E-005  1.866639019464604E-006
  2.466771296301410E-005  1.866639019464604E-006
  2.720921602627495E-005  1.866639019464604E-006
  3.890535332324974E-005  1.866639019464604E-006
  4.466404185495579E-005  1.866639019464604E-006
  4.873059426978046E-005  1.866639019464604E-006
  5.341934478789091E-005  1.866639019464604E-006
  5.621553873340900E-005  1.866639019464604E-006
  6.386466011762636E-005  1.866639019464604E-006
  6.509201155203061E-005  1.866639019464604E-006
  7.534659253361161E-005  1.866639019464604E-006
  7.682764133132110E-005  1.866639019464604E-006
  9.288945300782224E-005  1.866639019464604E-006
  9.475285678943808E-005  1.866639019464604E-006
  1.047573214621957E-004  1.866639019464604E-006
  1.071377021262062E-004  1.866639019464604E-006
  1.178738350508199E-004  1.866639019464604E-006
  1.281118774418735E-004  1.866639019464604E-006
  1.344226532256920E-004  1.866639019464604E-006
  1.627892502773812E-004  1.866639019464604E-006
  1.931066019546540E-004  1.866639019464604E-006
  2.036238080472579E-004  1.866639019464604E-006
  2.312066458844502E-004  1.866639019464604E-006
  2.708851291792528E-004  1.866639019464604E-006
  2.844981313392770E-004  1.866639019464604E-006
  3.020915388119044E-004  1.866639019464604E-006
  3.025135577257179E-004  1.866639019464604E-006
  3.546270393710789E-004  1.866639019464604E-006
  3.669947273046706E-004  1.866639019464604E-006
  3.731140065466053E-004  1.866639019464604E-006
  3.829525872348139E-004  1.866639019464604E-006
  4.089179865679603E-004  1.866639019464604E-006
  4.295895876006692E-004  1.866639019464604E-006
  5.362382690371647E-004  1.866639019464604E-006
  5.832897784118785E-004  1.866639019464604E-006
  5.915282349673902E-004  1.866639019464604E-006
  5.930635941792616E-004  1.866639019464604E-006
  5.954026561058762E-004  1.866639019464604E-006
  5.967627822685955E-004  1.866639019464604E-006
  6.043349786339810E-004  1.866639019464604E-006
  6.207245737849889E-004  1.866639019464604E-006
  6.236532982686536E-004  1.866639019464604E-006
  6.259448381336840E-004  1.866639019464604E-006
  6.538406346650825E-004  1.866639019464604E-006
  6.608042762523914E-004  1.866639019464604E-006
  1.032384271937560E-003  1.866639019464604E-006
  1.050781178213023E-003  1.866639019464604E-006
  1.081370496034418E-003  1.866639019464604E-006
  1.105293490793179E-003  1.866639019464604E-006
  1.108794484066277E-003  1.866639019464604E-006
  1.138312525837525E-003  1.866639019464604E-006
  1.141869127385880E-003  1.866639019464604E-006
  1.170019065566038E-003  1.866639019464604E-006
  1.172516279507921E-003  1.866639019464604E-006
  1.184351777548620E-003  1.866639019464604E-006
  1.336716395125152E-003  1.866639019464604E-006
  1.377347231392728E-003  1.866639019464604E-006
  1.452111144643065E-003  1.866639019464604E-006
  1.660054260034541E-003  1.866639019464604E-006
  1.861566840774346E-003  1.866639019464604E-006
  1.958796811145326E-003  1.866639019464604E-006
  2.089470294520107E-003  1.866639019464604E-006
  2.340560453908749E-003  1.866639019464604E-006
  2.664545035842349E-003  1.866639019464604E-006
  3.025400712210617E-003  1.866639019464604E-006
  3.113551248662054E-003  1.866639019464604E-006
  3.710202817432346E-003  1.866639019464604E-006
  3.732391707264633E-003  1.866639019464604E-006
  4.067242070191652E-003  1.866639019464604E-006
  4.080902071972202E-003  1.866639019464604E-006
 cut=1d-8, nber non-redundant internal coords=          75
 Check on Eigenvals of non-red overlap matrix:
  0.00000187  0.00000428  0.00000666  0.00001060  0.00001762  0.00002359  0.00002467  0.00002721
  0.00003891  0.00004466  0.00004873  0.00005342  0.00005622  0.00006386  0.00006509  0.00007535
  0.00007683  0.00009289  0.00009475  0.00010476  0.00010714  0.00011787  0.00012811  0.00013442
  0.00016279  0.00019311  0.00020362  0.00023121  0.00027089  0.00028450  0.00030209  0.00030251
  0.00035463  0.00036699  0.00037311  0.00038295  0.00040892  0.00042959  0.00053624  0.00058329
  0.00059153  0.00059306  0.00059540  0.00059676  0.00060433  0.00062072  0.00062365  0.00062594
  0.00065384  0.00066080  0.00103238  0.00105078  0.00108137  0.00110529  0.00110879  0.00113831
  0.00114187  0.00117002  0.00117252  0.00118435  0.00133672  0.00137735  0.00145211  0.00166005
  0.00186157  0.00195880  0.00208947  0.00234056  0.00266455  0.00302540  0.00311355  0.00371020
  0.00373239  0.00406724  0.00408090
 Checking for correct frequencies
 recalc frequencies=
    -0.0   -0.0   -0.0    0.0    0.0    0.0   39.5   45.2   78.4  124.3
   143.8  186.4  224.5  253.3  259.4  289.9  357.1  414.2  435.9  466.7
   476.8  516.0  556.2  570.4  585.1  608.3  632.4  633.8  658.9  696.3
   698.2  708.3  713.6  773.6  817.0  847.5  850.1  876.5  919.8  924.1
   936.5  958.0  977.9  999.3 1001.5 1013.8 1028.5 1053.4 1103.9 1109.7
  1148.8 1174.5 1183.0 1206.5 1212.0 1234.1 1267.5 1317.2 1357.1 1361.4
  1403.9 1423.2 1439.5 1457.6 1468.4 1478.9 1519.5 1531.8 1556.0 1613.3
  1641.1 3027.4 3054.9 3160.6 3166.8 3176.8 3183.1 3191.2 3199.2 3200.6
  3246.0
 recalc symmetries=
                                                                       
                                                                       
                                                                       
                                                                       
                                                                       
                                                                       
                                                                       
                                                                       
        
 recalc freqs check OK
 Zero-point lengths:
 10.0000 10.0000 10.0000 10.0000 10.0000 10.0000 39.4419 36.8823 27.9982 22.2377
 20.6758 18.1574 16.5464 15.5755 15.3913 14.5600 13.1189 12.1811 11.8741 11.4756
 11.3531 10.9136 10.5119 10.3801 10.2489 10.0517  9.8584  9.8474  9.6581  9.3949
  9.3825  9.3152  9.2802  8.9131  8.6735  8.5156  8.5026  8.3736  8.1743  8.1554
  8.1011  8.0097  7.9278  7.8425  7.8337  7.7862  7.7302  7.6382  7.4614  7.4420
  7.3143  7.2340  7.2079  7.1373  7.1212  7.0569  6.9633  6.8309  6.7297  6.7190
  6.6164  6.5715  6.5342  6.4934  6.4695  6.4465  6.3599  6.3342  6.2847  6.1722
  6.1197  4.5057  4.4853  4.4097  4.4054  4.3984  4.3941  4.3885  4.3830  4.3821
  4.3513
 highest evec of mol 1
 -0.0000 -0.0000 -0.0000
 -0.0001  0.0000  0.0000
  0.0000  0.0001  0.0000
 -0.0000 -0.0000 -0.0000
  0.0000  0.0001  0.0001
  0.0001 -0.0001 -0.0002
 -0.0001 -0.0003 -0.0002
 -0.0002 -0.0001  0.0000
  0.0057  0.0035 -0.0010
 -0.0483  0.0147  0.0470
 -0.1713 -0.2218 -0.0723
  0.0017 -0.0002 -0.0014
  0.0018  0.0028  0.0011
  0.0000  0.0003  0.0003
 -0.0001 -0.0000  0.0000
  0.0001 -0.0000 -0.0000
  0.0000 -0.0001 -0.0000
  0.0001  0.0001 -0.0000
  0.0003 -0.0001 -0.0001
  0.0000 -0.0003 -0.0001
  0.0000  0.0004  0.0004
 -0.0002 -0.0002 -0.0002
 -0.0001 -0.0003 -0.0001
  0.1434 -0.0121 -0.1121
  0.5799  0.7067  0.2060
 -0.0002  0.0001  0.0000
 -0.0000  0.0003  0.0001
 generating redundant internal coords
         300        3600          27
 Adding extra bonds for z output only
           6           6           6           6           6           6
           6           6           6           6           6          16
           6           6          16           6           6           1
           1           1           1           1           1           1
           1           1           1
 search for int coords
   1 str   2   1   1.393
   2 str   3   2   1.391
   3 str   4   3   1.405
   4 str   5   4   1.465
   5 str   6   5   1.380
   6 str   7   6   1.412
   7 str   8   7   1.516
   8 str   9   8   1.515
   9 str  10   9   1.418
  10 str  11  10   1.370
  11 str  12  11   1.748
  12 str  13   9   1.383
  13 str  13  12   1.729
  14 str  14   7   1.383
  15 str  14  13   1.442
  16 str  15   5   1.769
  17 str  15  14   1.727
  18 str  16   4   1.406
  19 str  17   1   1.394
  20 str  17  16   1.390
  21 str  18   1   1.084
  22 str  19   2   1.084
  23 str  20   3   1.084
  24 str  21   6   1.082
  25 str  22   8   1.096
  26 str  23   8   1.096
  27 str  24  10   1.082
  28 str  25  11   1.079
  29 str  26  16   1.084
  30 str  27  17   1.084
 nber stretches=          30
  31 ben   1   2   3
  32 prop tor   1   2   3   4
  33 prop tor   1   2   3  20
  34 ben   1   2  19
  35 ben   1  17  16
  36 ben   1  17  27
  37 ben   2   1  17
  38 prop tor   2   1  17  16
  39 prop tor   2   1  17  27
  40 ben   2   1  18
  41 ben   2   3   4
  42 prop tor   2   3   4   5
  43 prop tor   2   3   4  16
  44 ben   2   3  20
  45 ben   3   2  19
  46 ben   3   4   5
  47 prop tor   3   4   5   6
  48 prop tor   3   4   5  15
  49 ben   3   4  16
  50 prop tor   3   4  16  17
  51 prop tor   3   4  16  26
  52 ben   4   3  20
  53 ben   4   5   6
  54 prop tor   4   5   6   7
  55 prop tor   4   5   6  21
  56 ben   4   5  15
  57 prop tor   4   5  15  14
  58 ben   4  16  17
  59 prop tor   4  16  17   1
  60 prop tor   4  16  17  27
  61 ben   4  16  26
  62 ben   5   4  16
  63 prop tor   5   4  16  17
  64 prop tor   5   4  16  26
  65 ben   5   6   7
  66 prop tor   5   6   7   8
  67 prop tor   5   6   7  14
  68 ben   5   6  21
  69 ben   5  15  14
  70 ben   6   5  15
  71 prop tor   6   5  15  14
  72 ben   6   7   8
  73 prop tor   6   7   8   9
  74 prop tor   6   7   8  22
  75 prop tor   6   7   8  23
  76 ben   6   7  14
  77 prop tor   6   7  14  13
  78 prop tor   6   7  14  15
  79 ben   7   6  21
  80 ben   7   8   9
  81 prop tor   7   8   9  10
  82 prop tor   7   8   9  13
  83 ben   7   8  22
  84 ben   7   8  23
  85 ben   7  14  13
  86 ben   7  14  15
  87 prop tor   7  14  15   5
  88 ben   8   7  14
  89 prop tor   8   7  14  13
  90 prop tor   8   7  14  15
  91 ben   8   9  10
  92 prop tor   8   9  10  11
  93 prop tor   8   9  10  24
  94 ben   8   9  13
  95 prop tor   8   9  13  12
  96 prop tor   8   9  13  14
  97 ben   9   8  22
  98 ben   9   8  23
  99 ben   9  10  11
 100 prop tor   9  10  11  12
 101 prop tor   9  10  11  25
 102 ben   9  10  24
 103 ben   9  13  12
 104 ben   9  13  14
 105 prop tor   9  13  14   7
 106 prop tor   9  13  14  15
 107 ben  10   9  13
 108 prop tor  10   9  13  12
 109 prop tor  10   9  13  14
 110 ben  10  11  12
 111 prop tor  10  11  12  13
 112 ben  10  11  25
 113 ben  11  10  24
 114 ben  11  12  13
 115 prop tor  11  12  13   9
 116 prop tor  11  12  13  14
 117 ben  12  11  25
 118 ben  12  13  14
 119 prop tor  12  13  14   7
 120 prop tor  12  13  14  15
 121 prop tor  13   9  10  11
 122 prop tor  13   9  10  24
 123 ben  13  14  15
 124 prop tor  13  14  15   5
 125 prop tor  14   7   8   9
 126 prop tor  14   7   8  22
 127 prop tor  14   7   8  23
 128 prop tor  15   5   6   7
 129 prop tor  15   5   6  21
 130 prop tor  16   4   5   6
 131 prop tor  16   4   5  15
 132 ben  16  17  27
 133 prop tor  17   1   2   3
 134 prop tor  17   1   2  19
 135 ben  17   1  18
 136 ben  17  16  26
 137 prop tor  18   1   2   3
 138 prop tor  18   1   2  19
 139 prop tor  18   1  17  16
 140 prop tor  18   1  17  27
 141 prop tor  19   2   3   4
 142 prop tor  19   2   3  20
 143 prop tor  20   3   4   5
 144 prop tor  20   3   4  16
 145 prop tor  21   6   7   8
 146 prop tor  21   6   7  14
 147 prop tor  22   8   9  10
 148 prop tor  22   8   9  13
 149 ben  22   8  23
 150 prop tor  23   8   9  10
 151 prop tor  23   8   9  13
 152 prop tor  24  10  11  12
 153 prop tor  24  10  11  25
 154 prop tor  25  11  12  13
 155 prop tor  26  16  17   1
 156 prop tor  26  16  17  27
 nber bend=              50
 nber lin bend=           0
 nber prop tor=          76
 nber impr tor=           0
 nber tot redund int=         156
 Reading file: 
 ./CDT_1_C-1S0.log                                                              
                                          
  Entering Gaussian System, Link 0=g16                                          
  
 Gaussian format, type: g94, g98, g03= F F F
  #P Geom=AllCheck Guess=TCheck SCRF=Check GenChk UB3LYP/6-311G(d,p) Fre    
 energy type= B3LYP   
 Original G94 input coords:
  6 -1.537384 -1.372700  0.240903
  6 -1.440822 -0.128628  0.877038
  6 -0.302824  0.652753  0.767037
  6  0.829250  0.234684  0.002550
  6  2.007519  1.023984 -0.122114
  6  3.200622  0.761283 -0.833018
  6  4.155155  1.762521 -0.735197
  6  5.561477  2.010454 -1.267383
  6  5.891055  3.372612 -0.675260
  6  6.963520  4.278726 -0.684911
  6  6.725416  5.419541  0.056795
 16  5.115368  5.379134  0.798568
  6  4.795932  3.814024  0.087792
  6  3.758861  2.859178  0.056205
 16  2.145762  2.630544  0.695920
  6  0.704763 -1.038753 -0.636502
  6 -0.438584 -1.807125 -0.516862
  1 -2.431093 -1.980456  0.330573
  1 -2.273877  0.238105  1.471899
  1 -0.270269  1.610304  1.275916
  1  3.336300 -0.151799 -1.399892
  1  5.588369  2.017421 -2.365313
  1  6.266090  1.234107 -0.940268
  1  7.896874  4.120543 -1.215300
  1  7.363638  6.272609  0.222052
  1  1.529354 -1.414575 -1.232087
  1 -0.481063 -2.768462 -1.023562
 nber atoms=          27
  SCF Done:  E(UB3LYP) =  -1374.17104475     A.U. after    2 cycles             
  
          23          40 "  -1374.17104475"
After scan for Atom:   Atom  AN      X      Y      Z        X      Y      Z        X      Y      Z   
After scan for Atom:   Atom  AN      X      Y      Z        X      Y      Z        X      Y      Z   
After scan for Atom:   Atom  AN      X      Y      Z        X      Y      Z        X      Y      Z   
After scan for Atom:   Atom  AN      X      Y      Z        X      Y      Z        X      Y      Z   
After scan for Atom:   Atom  AN      X      Y      Z        X      Y      Z        X      Y      Z   
After scan for Atom:   Atom  AN      X      Y      Z        X      Y      Z        X      Y      Z   
After scan for Atom:   Atom  AN      X      Y      Z        X      Y      Z        X      Y      Z   
After scan for Atom:   Atom  AN      X      Y      Z        X      Y      Z        X      Y      Z   
After scan for Atom:   Atom  AN      X      Y      Z        X      Y      Z        X      Y      Z   
After scan for Atom:   Atom  AN      X      Y      Z        X      Y      Z        X      Y      Z   
After scan for Atom:   Atom  AN      X      Y      Z        X      Y      Z        X      Y      Z   
After scan for Atom:   Atom  AN      X      Y      Z        X      Y      Z        X      Y      Z   
After scan for Atom:   Atom  AN      X      Y      Z        X      Y      Z        X      Y      Z   
After scan for Atom:   Atom  AN      X      Y      Z        X      Y      Z        X      Y      Z   
After scan for Atom:   Atom  AN      X      Y      Z        X      Y      Z        X      Y      Z   
After scan for Atom:   Atom  AN      X      Y      Z        X      Y      Z        X      Y      Z   
After scan for Atom:   Atom  AN      X      Y      Z        X      Y      Z        X      Y      Z   
After scan for Atom:   Atom  AN      X      Y      Z        X      Y      Z        X      Y      Z   
After scan for Atom:   Atom  AN      X      Y      Z        X      Y      Z        X      Y      Z   
After scan for Atom:   Atom  AN      X      Y      Z        X      Y      Z        X      Y      Z   
After scan for Atom:   Atom  AN      X      Y      Z        X      Y      Z        X      Y      Z   
After scan for Atom:   Atom  AN      X      Y      Z        X      Y      Z        X      Y      Z   
After scan for Atom:   Atom  AN      X      Y      Z        X      Y      Z        X      Y      Z   
After scan for Atom:   Atom  AN      X      Y      Z        X      Y      Z        X      Y      Z   
After scan for Atom:   Atom  AN      X      Y      Z        X      Y      Z        X      Y      Z   
 g94    frequencies=
     0.0    0.0    0.0    0.0    0.0    0.0   39.3   43.0   88.7  108.7
   139.1  182.5  196.1  222.0  235.3  262.9  355.8  389.8  421.0  430.3
   431.7  455.2  508.3  508.9  552.8  558.6  578.8  629.6  633.0  641.2
   666.9  679.0  695.9  704.0  756.8  788.0  791.0  803.7  826.5  894.9
   927.3  935.1  935.5  935.6  974.8  990.5 1008.0 1031.0 1083.6 1087.7
  1137.2 1154.4 1177.3 1188.0 1202.4 1210.8 1247.5 1308.8 1320.0 1358.2
  1382.6 1421.7 1439.6 1452.6 1463.2 1473.1 1493.2 1518.7 1529.6 1544.0
  1625.7 2982.2 2996.4 3120.2 3125.5 3157.5 3158.9 3161.2 3169.0 3179.3
  3240.1
 g94    symmetries=
                                                 A      A      A      A
       A      A      A      A      A      A      A      A      A      A
       A      A      A      A      A      A      A      A      A      A
       A      A      A      A      A      A      A      A      A      A
       A      A      A      A      A      A      A      A      A      A
       A      A      A      A      A      A      A      A      A      A
       A      A      A      A      A      A      A      A      A      A
       A      A      A      A      A      A      A      A      A      A
       A
 atomic masses:
 12.0000 12.0000 12.0000 12.0000 12.0000 12.0000 12.0000 12.0000 12.0000 12.0000
 12.0000 31.9721 12.0000 12.0000 31.9721 12.0000 12.0000  1.0078  1.0078  1.0078
  1.0078  1.0078  1.0078  1.0078  1.0078  1.0078  1.0078
 looking for force constants in 
 ./CDT_1_C-1S0.fchk                                                             
  
 Cartesian Force Constants                  R   N=        3321                  
  
 n3=          81        3321
 g94-fc frequencies=
    -1.5   -0.0   -0.0    0.0    1.5    3.0   39.3   43.0   88.7  108.7
   139.1  182.5  196.1  222.0  235.3  262.9  355.8  389.8  421.0  430.3
   431.7  455.2  508.3  508.9  552.8  558.6  578.8  629.6  633.0  641.2
   666.9  679.0  696.0  704.0  756.8  788.1  791.0  803.7  826.5  895.0
   927.3  935.1  935.6  935.6  974.9  990.6 1008.0 1031.0 1083.6 1087.7
  1137.2 1154.4 1177.4 1188.0 1202.4 1210.9 1247.6 1308.9 1320.0 1358.2
  1382.6 1421.7 1439.6 1452.6 1463.2 1473.2 1493.3 1518.7 1529.6 1544.0
  1625.7 2982.3 2996.5 3120.3 3125.6 3157.6 3159.0 3161.2 3169.1 3179.4
  3240.1
 at 99999: n3=          81
 symm operator            1 :  F  nop=           0
 symm operator            2 :  F  nop=           0
 symm operator            3 :  F  nop=           0
 symm operator            4 :  F  nop=           0
 symm operator            5 :  F  nop=           0
 symm operator            6 :  F  nop=           0
 symm operator            7 :  F  nop=           0
 The point group of the molecule is  C1
 Symmetry rotation matrix:
   1.00000   0.00000   0.00000
   0.00000   1.00000   0.00000
   0.00000   0.00000   1.00000

 Projecting out zero-frequency components
 generating redundant internal coords
         300        3600          27
 search for int coords
   1 str   2   1   1.401
   2 str   3   2   1.385
   3 str   4   3   1.429
   4 str   5   4   1.424
   5 str   6   5   1.413
   6 str   7   6   1.387
   7 str   8   7   1.524
   8 str   9   8   1.521
   9 str  10   9   1.404
  10 str  11  10   1.381
  11 str  12  11   1.773
  12 str  13   9   1.406
  13 str  13  12   1.748
  14 str  14   7   1.409
  15 str  14  13   1.410
  16 str  15   5   1.808
  17 str  15  14   1.750
  18 str  16   4   1.430
  19 str  17   1   1.404
  20 str  17  16   1.383
  21 str  18   1   1.084
  22 str  19   2   1.087
  23 str  20   3   1.085
  24 str  21   6   1.083
  25 str  22   8   1.098
  26 str  23   8   1.098
  27 str  24  10   1.085
  28 str  25  11   1.078
  29 str  26  16   1.084
  30 str  27  17   1.088
 nber stretches=          30
  31 ben   1   2   3
  32 prop tor   1   2   3   4
  33 prop tor   1   2   3  20
  34 ben   1   2  19
  35 ben   1  17  16
  36 ben   1  17  27
  37 ben   2   1  17
  38 prop tor   2   1  17  16
  39 prop tor   2   1  17  27
  40 ben   2   1  18
  41 ben   2   3   4
  42 prop tor   2   3   4   5
  43 prop tor   2   3   4  16
  44 ben   2   3  20
  45 ben   3   2  19
  46 ben   3   4   5
  47 prop tor   3   4   5   6
  48 prop tor   3   4   5  15
  49 ben   3   4  16
  50 prop tor   3   4  16  17
  51 prop tor   3   4  16  26
  52 ben   4   3  20
  53 ben   4   5   6
  54 prop tor   4   5   6   7
  55 prop tor   4   5   6  21
  56 ben   4   5  15
  57 prop tor   4   5  15  14
  58 ben   4  16  17
  59 prop tor   4  16  17   1
  60 prop tor   4  16  17  27
  61 ben   4  16  26
  62 ben   5   4  16
  63 prop tor   5   4  16  17
  64 prop tor   5   4  16  26
  65 ben   5   6   7
  66 prop tor   5   6   7   8
  67 prop tor   5   6   7  14
  68 ben   5   6  21
  69 ben   5  15  14
  70 ben   6   5  15
  71 prop tor   6   5  15  14
  72 ben   6   7   8
  73 prop tor   6   7   8   9
  74 prop tor   6   7   8  22
  75 prop tor   6   7   8  23
  76 ben   6   7  14
  77 prop tor   6   7  14  13
  78 prop tor   6   7  14  15
  79 ben   7   6  21
  80 ben   7   8   9
  81 prop tor   7   8   9  10
  82 prop tor   7   8   9  13
  83 ben   7   8  22
  84 ben   7   8  23
  85 ben   7  14  13
  86 ben   7  14  15
  87 prop tor   7  14  15   5
  88 ben   8   7  14
  89 prop tor   8   7  14  13
  90 prop tor   8   7  14  15
  91 ben   8   9  10
  92 prop tor   8   9  10  11
  93 prop tor   8   9  10  24
  94 ben   8   9  13
  95 prop tor   8   9  13  12
  96 prop tor   8   9  13  14
  97 ben   9   8  22
  98 ben   9   8  23
  99 ben   9  10  11
 100 prop tor   9  10  11  12
 101 prop tor   9  10  11  25
 102 ben   9  10  24
 103 ben   9  13  12
 104 ben   9  13  14
 105 prop tor   9  13  14   7
 106 prop tor   9  13  14  15
 107 ben  10   9  13
 108 prop tor  10   9  13  12
 109 prop tor  10   9  13  14
 110 ben  10  11  12
 111 prop tor  10  11  12  13
 112 ben  10  11  25
 113 ben  11  10  24
 114 ben  11  12  13
 115 prop tor  11  12  13   9
 116 prop tor  11  12  13  14
 117 ben  12  11  25
 118 ben  12  13  14
 119 prop tor  12  13  14   7
 120 prop tor  12  13  14  15
 121 prop tor  13   9  10  11
 122 prop tor  13   9  10  24
 123 ben  13  14  15
 124 prop tor  13  14  15   5
 125 prop tor  14   7   8   9
 126 prop tor  14   7   8  22
 127 prop tor  14   7   8  23
 128 prop tor  15   5   6   7
 129 prop tor  15   5   6  21
 130 prop tor  16   4   5   6
 131 prop tor  16   4   5  15
 132 ben  16  17  27
 133 prop tor  17   1   2   3
 134 prop tor  17   1   2  19
 135 ben  17   1  18
 136 ben  17  16  26
 137 prop tor  18   1   2   3
 138 prop tor  18   1   2  19
 139 prop tor  18   1  17  16
 140 prop tor  18   1  17  27
 141 prop tor  19   2   3   4
 142 prop tor  19   2   3  20
 143 prop tor  20   3   4   5
 144 prop tor  20   3   4  16
 145 prop tor  21   6   7   8
 146 prop tor  21   6   7  14
 147 prop tor  22   8   9  10
 148 prop tor  22   8   9  13
 149 ben  22   8  23
 150 prop tor  23   8   9  10
 151 prop tor  23   8   9  13
 152 prop tor  24  10  11  12
 153 prop tor  24  10  11  25
 154 prop tor  25  11  12  13
 155 prop tor  26  16  17   1
 156 prop tor  26  16  17  27
 nber bend=              50
 nber lin bend=           0
 nber prop tor=          76
 nber impr tor=           0
 nber tot redund int=         156
 Eigenvalues of G in red int coords
    Gval -0.00000000 -0.00000000 -0.00000000 -0.00000000 -0.00000000 -0.00000000 -0.00000000 -0.00000000
    Gval -0.00000000 -0.00000000 -0.00000000 -0.00000000 -0.00000000 -0.00000000 -0.00000000 -0.00000000
    Gval -0.00000000 -0.00000000 -0.00000000 -0.00000000 -0.00000000 -0.00000000 -0.00000000 -0.00000000
    Gval -0.00000000 -0.00000000 -0.00000000 -0.00000000 -0.00000000 -0.00000000 -0.00000000 -0.00000000
    Gval -0.00000000 -0.00000000 -0.00000000 -0.00000000 -0.00000000 -0.00000000 -0.00000000 -0.00000000
    Gval -0.00000000  0.00000000  0.00000000  0.00000000  0.00000000  0.00000000  0.00000000  0.00000000
    Gval  0.00000000  0.00000000  0.00000000  0.00000000  0.00000000  0.00000000  0.00000000  0.00000000
    Gval  0.00000000  0.00000000  0.00000000  0.00000000  0.00000000  0.00000000  0.00000000  0.00000000
    Gval  0.00000000  0.00000000  0.00000000  0.00000000  0.00000000  0.00000000  0.00000000  0.00000000
    Gval  0.00000000  0.00000000  0.00000000  0.00000000  0.00000000  0.00000000  0.00000000  0.00000000
    Gval  0.00000000  0.00000177  0.00000424  0.00000811  0.00000949  0.00001698  0.00002415  0.00002416
    Gval  0.00002721  0.00003883  0.00004468  0.00004896  0.00005327  0.00005749  0.00006424  0.00006837
    Gval  0.00007442  0.00007547  0.00009189  0.00009452  0.00010138  0.00010742  0.00011756  0.00012897
    Gval  0.00013474  0.00016133  0.00019140  0.00019878  0.00022709  0.00026677  0.00028215  0.00029545
    Gval  0.00030115  0.00036074  0.00036303  0.00036823  0.00037800  0.00042036  0.00044025  0.00054249
    Gval  0.00056503  0.00058351  0.00059307  0.00059352  0.00059671  0.00060365  0.00062098  0.00062145
    Gval  0.00062450  0.00063288  0.00065941  0.00103628  0.00106016  0.00108018  0.00110187  0.00111506
    Gval  0.00113455  0.00113682  0.00116331  0.00116872  0.00117985  0.00132532  0.00136975  0.00145325
    Gval  0.00164786  0.00188872  0.00197729  0.00210260  0.00231404  0.00268631  0.00301536  0.00311786
    Gval  0.00366900  0.00369126  0.00405105  0.00405543
  1.773696750336679E-006  1.773696750336679E-006
  4.242753530622722E-006  1.773696750336679E-006
  8.105030247129604E-006  1.773696750336679E-006
  9.493705072661043E-006  1.773696750336679E-006
  1.697949548186623E-005  1.773696750336679E-006
  2.415092845548089E-005  1.773696750336679E-006
  2.415573874035297E-005  1.773696750336679E-006
  2.720937083097051E-005  1.773696750336679E-006
  3.882648134381903E-005  1.773696750336679E-006
  4.468217056951334E-005  1.773696750336679E-006
  4.895979536806848E-005  1.773696750336679E-006
  5.326575629996094E-005  1.773696750336679E-006
  5.749108583708391E-005  1.773696750336679E-006
  6.424359195540695E-005  1.773696750336679E-006
  6.837061426597084E-005  1.773696750336679E-006
  7.441872376941891E-005  1.773696750336679E-006
  7.546921584279866E-005  1.773696750336679E-006
  9.189377553866388E-005  1.773696750336679E-006
  9.451937675224783E-005  1.773696750336679E-006
  1.013792277889723E-004  1.773696750336679E-006
  1.074234406022356E-004  1.773696750336679E-006
  1.175647920322489E-004  1.773696750336679E-006
  1.289725297190367E-004  1.773696750336679E-006
  1.347382238172937E-004  1.773696750336679E-006
  1.613343664700936E-004  1.773696750336679E-006
  1.914006029216874E-004  1.773696750336679E-006
  1.987811462909582E-004  1.773696750336679E-006
  2.270908330166703E-004  1.773696750336679E-006
  2.667692111843364E-004  1.773696750336679E-006
  2.821524144417931E-004  1.773696750336679E-006
  2.954519741371691E-004  1.773696750336679E-006
  3.011514750960943E-004  1.773696750336679E-006
  3.607353660075151E-004  1.773696750336679E-006
  3.630272834398834E-004  1.773696750336679E-006
  3.682322282759839E-004  1.773696750336679E-006
  3.780038077894747E-004  1.773696750336679E-006
  4.203578249545802E-004  1.773696750336679E-006
  4.402501959873314E-004  1.773696750336679E-006
  5.424870128149731E-004  1.773696750336679E-006
  5.650292797646370E-004  1.773696750336679E-006
  5.835144993883795E-004  1.773696750336679E-006
  5.930683438577331E-004  1.773696750336679E-006
  5.935205123639281E-004  1.773696750336679E-006
  5.967149378028116E-004  1.773696750336679E-006
  6.036530160410825E-004  1.773696750336679E-006
  6.209764233114421E-004  1.773696750336679E-006
  6.214499770863690E-004  1.773696750336679E-006
  6.244958843687186E-004  1.773696750336679E-006
  6.328838028274305E-004  1.773696750336679E-006
  6.594055829937019E-004  1.773696750336679E-006
  1.036283534966077E-003  1.773696750336679E-006
  1.060157859778832E-003  1.773696750336679E-006
  1.080175964126466E-003  1.773696750336679E-006
  1.101872476381175E-003  1.773696750336679E-006
  1.115055072159686E-003  1.773696750336679E-006
  1.134554405109648E-003  1.773696750336679E-006
  1.136820333381635E-003  1.773696750336679E-006
  1.163306933460780E-003  1.773696750336679E-006
  1.168724572071142E-003  1.773696750336679E-006
  1.179854530945094E-003  1.773696750336679E-006
  1.325322424830975E-003  1.773696750336679E-006
  1.369750610613735E-003  1.773696750336679E-006
  1.453245820444054E-003  1.773696750336679E-006
  1.647864890305735E-003  1.773696750336679E-006
  1.888721322319395E-003  1.773696750336679E-006
  1.977294010923223E-003  1.773696750336679E-006
  2.102600693758771E-003  1.773696750336679E-006
  2.314036382889810E-003  1.773696750336679E-006
  2.686311380491350E-003  1.773696750336679E-006
  3.015360653319815E-003  1.773696750336679E-006
  3.117863119306126E-003  1.773696750336679E-006
  3.669001578350593E-003  1.773696750336679E-006
  3.691260237427981E-003  1.773696750336679E-006
  4.051047749182058E-003  1.773696750336679E-006
  4.055427292836727E-003  1.773696750336679E-006
 cut=1d-8, nber non-redundant internal coords=          75
 Check on Eigenvals of non-red overlap matrix:
  0.00000177  0.00000424  0.00000811  0.00000949  0.00001698  0.00002415  0.00002416  0.00002721
  0.00003883  0.00004468  0.00004896  0.00005327  0.00005749  0.00006424  0.00006837  0.00007442
  0.00007547  0.00009189  0.00009452  0.00010138  0.00010742  0.00011756  0.00012897  0.00013474
  0.00016133  0.00019140  0.00019878  0.00022709  0.00026677  0.00028215  0.00029545  0.00030115
  0.00036074  0.00036303  0.00036823  0.00037800  0.00042036  0.00044025  0.00054249  0.00056503
  0.00058351  0.00059307  0.00059352  0.00059671  0.00060365  0.00062098  0.00062145  0.00062450
  0.00063288  0.00065941  0.00103628  0.00106016  0.00108018  0.00110187  0.00111506  0.00113455
  0.00113682  0.00116331  0.00116872  0.00117985  0.00132532  0.00136975  0.00145325  0.00164786
  0.00188872  0.00197729  0.00210260  0.00231404  0.00268631  0.00301536  0.00311786  0.00366900
  0.00369126  0.00405105  0.00405543
 Checking for correct frequencies
 recalc frequencies=
    -0.0   -0.0   -0.0    0.0    0.0    0.0   39.3   43.0   88.7  108.7
   139.1  182.5  196.1  222.0  235.3  262.9  355.8  389.8  421.0  430.3
   431.7  455.2  508.3  508.9  552.8  558.6  578.8  629.6  633.0  641.2
   666.9  679.0  696.0  704.0  756.8  788.1  791.0  803.7  826.5  895.0
   927.3  935.1  935.6  935.6  974.9  990.6 1008.0 1031.0 1083.6 1087.7
  1137.2 1154.4 1177.4 1188.0 1202.4 1210.9 1247.6 1308.9 1320.0 1358.2
  1382.6 1421.7 1439.6 1452.6 1463.2 1473.2 1493.3 1518.7 1529.6 1544.0
  1625.7 2982.3 2996.5 3120.3 3125.6 3157.6 3159.0 3161.2 3169.1 3179.4
  3240.1
 recalc symmetries=
                                                                       
                                                                       
                                                                       
                                                                       
                                                                       
                                                                       
                                                                       
                                                                       
        
 recalc freqs check OK
 Zero-point lengths:
 10.0000 10.0000 10.0000 10.0000 10.0000 10.0000 39.5403 37.7867 26.3294 23.7739
 21.0213 18.3503 17.7046 16.6388 16.1610 15.2889 13.1424 12.5567 12.0824 11.9506
 11.9320 11.6200 10.9955 10.9892 10.5437 10.4891 10.3046  9.8801  9.8532  9.7902
  9.5996  9.5141  9.3974  9.3433  9.0116  8.8312  8.8145  8.7446  8.6233  8.2870
  8.1410  8.1070  8.1051  8.1049  7.9401  7.8769  7.8083  7.7207  7.5311  7.5169
  7.3514  7.2966  7.2250  7.1927  7.1493  7.1244  7.0189  6.8525  6.8235  6.7269
  6.6672  6.5748  6.5338  6.5046  6.4810  6.4591  6.4155  6.3615  6.3388  6.3091
  6.1486  4.5397  4.5288  4.4381  4.4344  4.4118  4.4108  4.4093  4.4038  4.3967
  4.3553
 highest evec of mol 2
 -0.0001 -0.0001  0.0000
  0.0002  0.0000 -0.0001
 -0.0001 -0.0001 -0.0000
  0.0002  0.0002 -0.0000
 -0.0002 -0.0002 -0.0000
  0.0001 -0.0006 -0.0004
  0.0003  0.0006  0.0002
  0.0001  0.0004  0.0002
 -0.0056 -0.0036  0.0007
  0.0368 -0.0164 -0.0265
  0.1624  0.2337  0.0513
 -0.0014  0.0004  0.0009
 -0.0008 -0.0023 -0.0009
 -0.0005 -0.0004  0.0000
 -0.0001  0.0001  0.0001
 -0.0001 -0.0001  0.0000
  0.0001  0.0001  0.0000
  0.0000  0.0000 -0.0000
 -0.0004  0.0002  0.0003
  0.0000  0.0005  0.0003
 -0.0003  0.0016  0.0010
  0.0001  0.0001 -0.0011
  0.0008 -0.0007  0.0003
 -0.0987  0.0196  0.0576
 -0.5585 -0.7528 -0.1482
  0.0002 -0.0001 -0.0002
 -0.0000 -0.0004 -0.0002
 Enter nber and list of atoms to keep of mol #2
 keep list:          27           1           2           3           4
           5           6           7           8           9          10
          11          12          13          14          15          16
          17          18          19          20          21          22
          23          24          25          26          27
 reordering atoms
           1  -5.69908236853033     
           2  -4.84362251405343     
           3  -3.46689995330618     
           4  -2.84703236411186     
           5  -1.43396672148934     
           6 -0.669064711633185     
           7  0.702584906634378     
           8   1.95386779424487     
           9   3.06491724735044     
          10   4.46878985346021     
          11   4.99867197831601     
          12   3.71881348040319     
          13   2.48842707094772     
          14   1.08153359201636     
          15 -0.318743572168723     
          16  -3.74266596603287     
          17  -5.11539726972663     
          18  -6.77657732377695     
          19  -5.26270223085216     
          20  -2.84099573242300     
          21  -1.13595495069776     
          22   1.99688630149327     
          23   1.99833850735841     
          24   5.09684952050626     
          25   6.03095659839947     
          26  -3.33588533913625     
          27  -5.75140108323886     
           1           1
           2           2
           3           3
           4           4
           5           5
           6           6
           7           7
           8           8
           9           9
          10          10
          11          11
          12          12
          13          13
          14          14
          15          15
          16          16
          17          17
          18          18
          19          19
          20          20
          21          21
          22          22
          23          23
          24          24
          25          25
          26          26
          27          27
 initial cartes coords mol 1
   6   0.00571  -0.19792  -5.66148
   6  -0.44302  -1.23192  -4.84248
   6  -0.46087  -1.07762  -3.46068
   6  -0.01813   0.11357  -2.86127
   6  -0.03683   0.29705  -1.40795
   6  -0.17004   1.46881  -0.69186
   6  -0.14099   1.26896   0.70600
   6  -0.24947   2.12427   1.95255
   6  -0.12738   1.08772   3.05133
   6  -0.12800   1.06857   4.46889
   6   0.02242  -0.19930   4.96512
  16   0.16943  -1.39959   3.70242
   6   0.02466  -0.16978   2.49645
   6   0.01463  -0.05859   1.05914
  16   0.13787  -1.08824  -0.32144
   6   0.44254   1.14360  -3.70021
   6   0.44603   0.99098  -5.08162
   1   0.01556  -0.31792  -6.73867
   1  -0.79135  -2.16035  -5.28106
   1  -0.84113  -1.88047  -2.83916
   1  -0.31362   2.42722  -1.17350
   1  -1.20274   2.66264   1.99964
   1   0.54658   2.87543   2.00584
   1  -0.23391   1.93909   5.10314
   1   0.05777  -0.51720   5.99544
   1   0.82171   2.05895  -3.26131
   1   0.80751   1.79910  -5.70791
 initial cartes coords mol 2
   6  -0.00033  -0.20279  -5.69908
   6  -0.00195  -1.31179  -4.84362
   6  -0.00178  -1.16236  -3.46690
   6   0.00010   0.12472  -2.84703
   6   0.00034   0.29821  -1.43397
   6  -0.00011   1.48683  -0.66906
   6  -0.00000   1.28249   0.70258
   6  -0.00116   2.15239   1.95387
   6  -0.00149   1.11302   3.06492
   6  -0.00076   1.09162   4.46879
   6   0.00052  -0.18412   4.99867
  16   0.00076  -1.41134   3.71881
   6  -0.00074  -0.16918   2.48843
   6   0.00043  -0.07487   1.08153
  16   0.00065  -1.12502  -0.31874
   6   0.00171   1.23978  -3.74267
   6   0.00150   1.07377  -5.11540
   1  -0.00043  -0.32579  -6.77658
   1  -0.00349  -2.31514  -5.26270
   1  -0.00349  -2.04845  -2.84100
   1  -0.00055   2.46432  -1.13595
   1  -0.88237   2.80648   1.99689
   1   0.87935   2.80731   1.99834
   1  -0.00134   1.97651   5.09685
   1  -0.00029  -0.49516   6.03096
   1   0.00345   2.24499  -3.33589
   1   0.00284   1.95594  -5.75140
 loop 1 0
 mod cartes coords mol 2
   6  -0.00033  -0.20279  -5.69908
   6  -0.00195  -1.31179  -4.84362
   6  -0.00178  -1.16236  -3.46690
   6   0.00010   0.12472  -2.84703
   6   0.00034   0.29821  -1.43397
   6  -0.00011   1.48683  -0.66906
   6  -0.00000   1.28249   0.70258
   6  -0.00116   2.15239   1.95387
   6  -0.00149   1.11302   3.06492
   6  -0.00076   1.09162   4.46879
   6   0.00052  -0.18412   4.99867
  16   0.00076  -1.41134   3.71881
   6  -0.00074  -0.16918   2.48843
   6   0.00043  -0.07487   1.08153
  16   0.00065  -1.12502  -0.31874
   6   0.00171   1.23978  -3.74267
   6   0.00150   1.07377  -5.11540
   1  -0.00043  -0.32579  -6.77658
   1  -0.00349  -2.31514  -5.26270
   1  -0.00349  -2.04845  -2.84100
   1  -0.00055   2.46432  -1.13595
   1  -0.88237   2.80648   1.99689
   1   0.87935   2.80731   1.99834
   1  -0.00134   1.97651   5.09685
   1  -0.00029  -0.49516   6.03096
   1   0.00345   2.24499  -3.33589
   1   0.00284   1.95594  -5.75140
 read in order, maxerr=  0.85 for atom  20
 loop 1 1
 mod cartes coords mol 2
   6   0.00033  -0.20279  -5.69908
   6   0.00195  -1.31179  -4.84362
   6   0.00178  -1.16236  -3.46690
   6  -0.00010   0.12472  -2.84703
   6  -0.00034   0.29821  -1.43397
   6   0.00011   1.48683  -0.66906
   6   0.00000   1.28249   0.70258
   6   0.00116   2.15239   1.95387
   6   0.00149   1.11302   3.06492
   6   0.00076   1.09162   4.46879
   6  -0.00052  -0.18412   4.99867
  16  -0.00076  -1.41134   3.71881
   6   0.00074  -0.16918   2.48843
   6  -0.00043  -0.07487   1.08153
  16  -0.00065  -1.12502  -0.31874
   6  -0.00171   1.23978  -3.74267
   6  -0.00150   1.07377  -5.11540
   1   0.00043  -0.32579  -6.77658
   1   0.00349  -2.31514  -5.26270
   1   0.00349  -2.04845  -2.84100
   1   0.00055   2.46432  -1.13595
   1   0.88237   2.80648   1.99689
   1  -0.87935   2.80731   1.99834
   1   0.00134   1.97651   5.09685
   1   0.00029  -0.49516   6.03096
   1  -0.00345   2.24499  -3.33589
   1  -0.00284   1.95594  -5.75140
 read in order, maxerr=  2.09 for atom  22
 loop 1 2
 mod cartes coords mol 2
   6  -0.00033   0.20279  -5.69908
   6  -0.00195   1.31179  -4.84362
   6  -0.00178   1.16236  -3.46690
   6   0.00010  -0.12472  -2.84703
   6   0.00034  -0.29821  -1.43397
   6  -0.00011  -1.48683  -0.66906
   6  -0.00000  -1.28249   0.70258
   6  -0.00116  -2.15239   1.95387
   6  -0.00149  -1.11302   3.06492
   6  -0.00076  -1.09162   4.46879
   6   0.00052   0.18412   4.99867
  16   0.00076   1.41134   3.71881
   6  -0.00074   0.16918   2.48843
   6   0.00043   0.07487   1.08153
  16   0.00065   1.12502  -0.31874
   6   0.00171  -1.23978  -3.74267
   6   0.00150  -1.07377  -5.11540
   1  -0.00043   0.32579  -6.77658
   1  -0.00349   2.31514  -5.26270
   1  -0.00349   2.04845  -2.84100
   1  -0.00055  -2.46432  -1.13595
   1  -0.88237  -2.80648   1.99689
   1   0.87935  -2.80731   1.99834
   1  -0.00134  -1.97651   5.09685
   1  -0.00029   0.49516   6.03096
   1   0.00345  -2.24499  -3.33589
   1   0.00284  -1.95594  -5.75140
 read in order, maxerr=  5.69 for atom  23
 loop 1 3
 mod cartes coords mol 2
   6   0.00033   0.20279  -5.69908
   6   0.00195   1.31179  -4.84362
   6   0.00178   1.16236  -3.46690
   6  -0.00010  -0.12472  -2.84703
   6  -0.00034  -0.29821  -1.43397
   6   0.00011  -1.48683  -0.66906
   6   0.00000  -1.28249   0.70258
   6   0.00116  -2.15239   1.95387
   6   0.00149  -1.11302   3.06492
   6   0.00076  -1.09162   4.46879
   6  -0.00052   0.18412   4.99867
  16  -0.00076   1.41134   3.71881
   6   0.00074   0.16918   2.48843
   6  -0.00043   0.07487   1.08153
  16  -0.00065   1.12502  -0.31874
   6  -0.00171  -1.23978  -3.74267
   6  -0.00150  -1.07377  -5.11540
   1   0.00043   0.32579  -6.77658
   1   0.00349   2.31514  -5.26270
   1   0.00349   2.04845  -2.84100
   1   0.00055  -2.46432  -1.13595
   1   0.88237  -2.80648   1.99689
   1  -0.87935  -2.80731   1.99834
   1   0.00134  -1.97651   5.09685
   1   0.00029   0.49516   6.03096
   1  -0.00345  -2.24499  -3.33589
   1  -0.00284  -1.95594  -5.75140
 read in order, maxerr=  5.86 for atom  23
 loop 1 4
 mod cartes coords mol 2
   6  -0.00033  -0.20279   5.69908
   6  -0.00195  -1.31179   4.84362
   6  -0.00178  -1.16236   3.46690
   6   0.00010   0.12472   2.84703
   6   0.00034   0.29821   1.43397
   6  -0.00011   1.48683   0.66906
   6  -0.00000   1.28249  -0.70258
   6  -0.00116   2.15239  -1.95387
   6  -0.00149   1.11302  -3.06492
   6  -0.00076   1.09162  -4.46879
   6   0.00052  -0.18412  -4.99867
  16   0.00076  -1.41134  -3.71881
   6  -0.00074  -0.16918  -2.48843
   6   0.00043  -0.07487  -1.08153
  16   0.00065  -1.12502   0.31874
   6   0.00171   1.23978   3.74267
   6   0.00150   1.07377   5.11540
   1  -0.00043  -0.32579   6.77658
   1  -0.00349  -2.31514   5.26270
   1  -0.00349  -2.04845   2.84100
   1  -0.00055   2.46432   1.13595
   1  -0.88237   2.80648  -1.99689
   1   0.87935   2.80731  -1.99834
   1  -0.00134   1.97651  -5.09685
   1  -0.00029  -0.49516  -6.03096
   1   0.00345   2.24499   3.33589
   1   0.00284   1.95594   5.75140
 read in order, maxerr= 13.52 for atom  18
 loop 1 5
 mod cartes coords mol 2
   6   0.00033  -0.20279   5.69908
   6   0.00195  -1.31179   4.84362
   6   0.00178  -1.16236   3.46690
   6  -0.00010   0.12472   2.84703
   6  -0.00034   0.29821   1.43397
   6   0.00011   1.48683   0.66906
   6   0.00000   1.28249  -0.70258
   6   0.00116   2.15239  -1.95387
   6   0.00149   1.11302  -3.06492
   6   0.00076   1.09162  -4.46879
   6  -0.00052  -0.18412  -4.99867
  16  -0.00076  -1.41134  -3.71881
   6   0.00074  -0.16918  -2.48843
   6  -0.00043  -0.07487  -1.08153
  16  -0.00065  -1.12502   0.31874
   6  -0.00171   1.23978   3.74267
   6  -0.00150   1.07377   5.11540
   1   0.00043  -0.32579   6.77658
   1   0.00349  -2.31514   5.26270
   1   0.00349  -2.04845   2.84100
   1   0.00055   2.46432   1.13595
   1   0.88237   2.80648  -1.99689
   1  -0.87935   2.80731  -1.99834
   1   0.00134   1.97651  -5.09685
   1   0.00029  -0.49516  -6.03096
   1  -0.00345   2.24499   3.33589
   1  -0.00284   1.95594   5.75140
 read in order, maxerr= 13.52 for atom  18
 loop 1 6
 mod cartes coords mol 2
   6  -0.00033   0.20279   5.69908
   6  -0.00195   1.31179   4.84362
   6  -0.00178   1.16236   3.46690
   6   0.00010  -0.12472   2.84703
   6   0.00034  -0.29821   1.43397
   6  -0.00011  -1.48683   0.66906
   6  -0.00000  -1.28249  -0.70258
   6  -0.00116  -2.15239  -1.95387
   6  -0.00149  -1.11302  -3.06492
   6  -0.00076  -1.09162  -4.46879
   6   0.00052   0.18412  -4.99867
  16   0.00076   1.41134  -3.71881
   6  -0.00074   0.16918  -2.48843
   6   0.00043   0.07487  -1.08153
  16   0.00065   1.12502   0.31874
   6   0.00171  -1.23978   3.74267
   6   0.00150  -1.07377   5.11540
   1  -0.00043   0.32579   6.77658
   1  -0.00349   2.31514   5.26270
   1  -0.00349   2.04845   2.84100
   1  -0.00055  -2.46432   1.13595
   1  -0.88237  -2.80648  -1.99689
   1   0.87935  -2.80731  -1.99834
   1  -0.00134  -1.97651  -5.09685
   1  -0.00029   0.49516  -6.03096
   1   0.00345  -2.24499   3.33589
   1   0.00284  -1.95594   5.75140
 read in order, maxerr= 13.53 for atom  18
 loop 1 7
 mod cartes coords mol 2
   6   0.00033   0.20279   5.69908
   6   0.00195   1.31179   4.84362
   6   0.00178   1.16236   3.46690
   6  -0.00010  -0.12472   2.84703
   6  -0.00034  -0.29821   1.43397
   6   0.00011  -1.48683   0.66906
   6   0.00000  -1.28249  -0.70258
   6   0.00116  -2.15239  -1.95387
   6   0.00149  -1.11302  -3.06492
   6   0.00076  -1.09162  -4.46879
   6  -0.00052   0.18412  -4.99867
  16  -0.00076   1.41134  -3.71881
   6   0.00074   0.16918  -2.48843
   6  -0.00043   0.07487  -1.08153
  16  -0.00065   1.12502   0.31874
   6  -0.00171  -1.23978   3.74267
   6  -0.00150  -1.07377   5.11540
   1   0.00043   0.32579   6.77658
   1   0.00349   2.31514   5.26270
   1   0.00349   2.04845   2.84100
   1   0.00055  -2.46432   1.13595
   1   0.88237  -2.80648  -1.99689
   1  -0.87935  -2.80731  -1.99834
   1   0.00134  -1.97651  -5.09685
   1   0.00029   0.49516  -6.03096
   1  -0.00345  -2.24499   3.33589
   1  -0.00284  -1.95594   5.75140
 read in order, maxerr= 13.53 for atom  18
 loop 2 0
 mod cartes coords mol 2
   6  -0.00033  -5.69908  -0.20279
   6  -0.00195  -4.84362  -1.31179
   6  -0.00178  -3.46690  -1.16236
   6   0.00010  -2.84703   0.12472
   6   0.00034  -1.43397   0.29821
   6  -0.00011  -0.66906   1.48683
   6  -0.00000   0.70258   1.28249
   6  -0.00116   1.95387   2.15239
   6  -0.00149   3.06492   1.11302
   6  -0.00076   4.46879   1.09162
   6   0.00052   4.99867  -0.18412
  16   0.00076   3.71881  -1.41134
   6  -0.00074   2.48843  -0.16918
   6   0.00043   1.08153  -0.07487
  16   0.00065  -0.31874  -1.12502
   6   0.00171  -3.74267   1.23978
   6   0.00150  -5.11540   1.07377
   1  -0.00043  -6.77658  -0.32579
   1  -0.00349  -5.26270  -2.31514
   1  -0.00349  -2.84100  -2.04845
   1  -0.00055  -1.13595   2.46432
   1  -0.88237   1.99689   2.80648
   1   0.87935   1.99834   2.80731
   1  -0.00134   5.09685   1.97651
   1  -0.00029   6.03096  -0.49516
   1   0.00345  -3.33589   2.24499
   1   0.00284  -5.75140   1.95594
 read in order, maxerr= 10.79 for atom  27
 loop 2 1
 mod cartes coords mol 2
   6   0.00033  -5.69908  -0.20279
   6   0.00195  -4.84362  -1.31179
   6   0.00178  -3.46690  -1.16236
   6  -0.00010  -2.84703   0.12472
   6  -0.00034  -1.43397   0.29821
   6   0.00011  -0.66906   1.48683
   6   0.00000   0.70258   1.28249
   6   0.00116   1.95387   2.15239
   6   0.00149   3.06492   1.11302
   6   0.00076   4.46879   1.09162
   6  -0.00052   4.99867  -0.18412
  16  -0.00076   3.71881  -1.41134
   6   0.00074   2.48843  -0.16918
   6  -0.00043   1.08153  -0.07487
  16  -0.00065  -0.31874  -1.12502
   6  -0.00171  -3.74267   1.23978
   6  -0.00150  -5.11540   1.07377
   1   0.00043  -6.77658  -0.32579
   1   0.00349  -5.26270  -2.31514
   1   0.00349  -2.84100  -2.04845
   1   0.00055  -1.13595   2.46432
   1   0.88237   1.99689   2.80648
   1  -0.87935   1.99834   2.80731
   1   0.00134   5.09685   1.97651
   1   0.00029   6.03096  -0.49516
   1  -0.00345  -3.33589   2.24499
   1  -0.00284  -5.75140   1.95594
 read in order, maxerr= 10.79 for atom  27
 loop 2 2
 mod cartes coords mol 2
   6  -0.00033  -5.69908   0.20279
   6  -0.00195  -4.84362   1.31179
   6  -0.00178  -3.46690   1.16236
   6   0.00010  -2.84703  -0.12472
   6   0.00034  -1.43397  -0.29821
   6  -0.00011  -0.66906  -1.48683
   6  -0.00000   0.70258  -1.28249
   6  -0.00116   1.95387  -2.15239
   6  -0.00149   3.06492  -1.11302
   6  -0.00076   4.46879  -1.09162
   6   0.00052   4.99867   0.18412
  16   0.00076   3.71881   1.41134
   6  -0.00074   2.48843   0.16918
   6   0.00043   1.08153   0.07487
  16   0.00065  -0.31874   1.12502
   6   0.00171  -3.74267  -1.23978
   6   0.00150  -5.11540  -1.07377
   1  -0.00043  -6.77658   0.32579
   1  -0.00349  -5.26270   2.31514
   1  -0.00349  -2.84100   2.04845
   1  -0.00055  -1.13595  -2.46432
   1  -0.88237   1.99689  -2.80648
   1   0.87935   1.99834  -2.80731
   1  -0.00134   5.09685  -1.97651
   1  -0.00029   6.03096   0.49516
   1   0.00345  -3.33589  -2.24499
   1   0.00284  -5.75140  -1.95594
 read in order, maxerr=  9.57 for atom  18
 loop 2 3
 mod cartes coords mol 2
   6   0.00033  -5.69908   0.20279
   6   0.00195  -4.84362   1.31179
   6   0.00178  -3.46690   1.16236
   6  -0.00010  -2.84703  -0.12472
   6  -0.00034  -1.43397  -0.29821
   6   0.00011  -0.66906  -1.48683
   6   0.00000   0.70258  -1.28249
   6   0.00116   1.95387  -2.15239
   6   0.00149   3.06492  -1.11302
   6   0.00076   4.46879  -1.09162
   6  -0.00052   4.99867   0.18412
  16  -0.00076   3.71881   1.41134
   6   0.00074   2.48843   0.16918
   6  -0.00043   1.08153   0.07487
  16  -0.00065  -0.31874   1.12502
   6  -0.00171  -3.74267  -1.23978
   6  -0.00150  -5.11540  -1.07377
   1   0.00043  -6.77658   0.32579
   1   0.00349  -5.26270   2.31514
   1   0.00349  -2.84100   2.04845
   1   0.00055  -1.13595  -2.46432
   1   0.88237   1.99689  -2.80648
   1  -0.87935   1.99834  -2.80731
   1   0.00134   5.09685  -1.97651
   1   0.00029   6.03096   0.49516
   1  -0.00345  -3.33589  -2.24499
   1  -0.00284  -5.75140  -1.95594
 read in order, maxerr=  9.57 for atom  18
 loop 2 4
 mod cartes coords mol 2
   6  -0.00033   5.69908  -0.20279
   6  -0.00195   4.84362  -1.31179
   6  -0.00178   3.46690  -1.16236
   6   0.00010   2.84703   0.12472
   6   0.00034   1.43397   0.29821
   6  -0.00011   0.66906   1.48683
   6  -0.00000  -0.70258   1.28249
   6  -0.00116  -1.95387   2.15239
   6  -0.00149  -3.06492   1.11302
   6  -0.00076  -4.46879   1.09162
   6   0.00052  -4.99867  -0.18412
  16   0.00076  -3.71881  -1.41134
   6  -0.00074  -2.48843  -0.16918
   6   0.00043  -1.08153  -0.07487
  16   0.00065   0.31874  -1.12502
   6   0.00171   3.74267   1.23978
   6   0.00150   5.11540   1.07377
   1  -0.00043   6.77658  -0.32579
   1  -0.00349   5.26270  -2.31514
   1  -0.00349   2.84100  -2.04845
   1  -0.00055   1.13595   2.46432
   1  -0.88237  -1.99689   2.80648
   1   0.87935  -1.99834   2.80731
   1  -0.00134  -5.09685   1.97651
   1  -0.00029  -6.03096  -0.49516
   1   0.00345   3.33589   2.24499
   1   0.00284   5.75140   1.95594
 read in order, maxerr=  9.56 for atom  18
 loop 2 5
 mod cartes coords mol 2
   6   0.00033   5.69908  -0.20279
   6   0.00195   4.84362  -1.31179
   6   0.00178   3.46690  -1.16236
   6  -0.00010   2.84703   0.12472
   6  -0.00034   1.43397   0.29821
   6   0.00011   0.66906   1.48683
   6   0.00000  -0.70258   1.28249
   6   0.00116  -1.95387   2.15239
   6   0.00149  -3.06492   1.11302
   6   0.00076  -4.46879   1.09162
   6  -0.00052  -4.99867  -0.18412
  16  -0.00076  -3.71881  -1.41134
   6   0.00074  -2.48843  -0.16918
   6  -0.00043  -1.08153  -0.07487
  16  -0.00065   0.31874  -1.12502
   6  -0.00171   3.74267   1.23978
   6  -0.00150   5.11540   1.07377
   1   0.00043   6.77658  -0.32579
   1   0.00349   5.26270  -2.31514
   1   0.00349   2.84100  -2.04845
   1   0.00055   1.13595   2.46432
   1   0.88237  -1.99689   2.80648
   1  -0.87935  -1.99834   2.80731
   1   0.00134  -5.09685   1.97651
   1   0.00029  -6.03096  -0.49516
   1  -0.00345   3.33589   2.24499
   1  -0.00284   5.75140   1.95594
 read in order, maxerr=  9.56 for atom  18
 loop 2 6
 mod cartes coords mol 2
   6  -0.00033   5.69908   0.20279
   6  -0.00195   4.84362   1.31179
   6  -0.00178   3.46690   1.16236
   6   0.00010   2.84703  -0.12472
   6   0.00034   1.43397  -0.29821
   6  -0.00011   0.66906  -1.48683
   6  -0.00000  -0.70258  -1.28249
   6  -0.00116  -1.95387  -2.15239
   6  -0.00149  -3.06492  -1.11302
   6  -0.00076  -4.46879  -1.09162
   6   0.00052  -4.99867   0.18412
  16   0.00076  -3.71881   1.41134
   6  -0.00074  -2.48843   0.16918
   6   0.00043  -1.08153   0.07487
  16   0.00065   0.31874   1.12502
   6   0.00171   3.74267  -1.23978
   6   0.00150   5.11540  -1.07377
   1  -0.00043   6.77658   0.32579
   1  -0.00349   5.26270   2.31514
   1  -0.00349   2.84100   2.04845
   1  -0.00055   1.13595  -2.46432
   1  -0.88237  -1.99689  -2.80648
   1   0.87935  -1.99834  -2.80731
   1  -0.00134  -5.09685  -1.97651
   1  -0.00029  -6.03096   0.49516
   1   0.00345   3.33589  -2.24499
   1   0.00284   5.75140  -1.95594
 read in order, maxerr= 10.65 for atom  19
 loop 2 7
 mod cartes coords mol 2
   6   0.00033   5.69908   0.20279
   6   0.00195   4.84362   1.31179
   6   0.00178   3.46690   1.16236
   6  -0.00010   2.84703  -0.12472
   6  -0.00034   1.43397  -0.29821
   6   0.00011   0.66906  -1.48683
   6   0.00000  -0.70258  -1.28249
   6   0.00116  -1.95387  -2.15239
   6   0.00149  -3.06492  -1.11302
   6   0.00076  -4.46879  -1.09162
   6  -0.00052  -4.99867   0.18412
  16  -0.00076  -3.71881   1.41134
   6   0.00074  -2.48843   0.16918
   6  -0.00043  -1.08153   0.07487
  16  -0.00065   0.31874   1.12502
   6  -0.00171   3.74267  -1.23978
   6  -0.00150   5.11540  -1.07377
   1   0.00043   6.77658   0.32579
   1   0.00349   5.26270   2.31514
   1   0.00349   2.84100   2.04845
   1   0.00055   1.13595  -2.46432
   1   0.88237  -1.99689  -2.80648
   1  -0.87935  -1.99834  -2.80731
   1   0.00134  -5.09685  -1.97651
   1   0.00029  -6.03096   0.49516
   1  -0.00345   3.33589  -2.24499
   1  -0.00284   5.75140  -1.95594
 read in order, maxerr= 10.65 for atom  19
 loop 3 0
 mod cartes coords mol 2
   6  -0.20279  -0.00033  -5.69908
   6  -1.31179  -0.00195  -4.84362
   6  -1.16236  -0.00178  -3.46690
   6   0.12472   0.00010  -2.84703
   6   0.29821   0.00034  -1.43397
   6   1.48683  -0.00011  -0.66906
   6   1.28249  -0.00000   0.70258
   6   2.15239  -0.00116   1.95387
   6   1.11302  -0.00149   3.06492
   6   1.09162  -0.00076   4.46879
   6  -0.18412   0.00052   4.99867
  16  -1.41134   0.00076   3.71881
   6  -0.16918  -0.00074   2.48843
   6  -0.07487   0.00043   1.08153
  16  -1.12502   0.00065  -0.31874
   6   1.23978   0.00171  -3.74267
   6   1.07377   0.00150  -5.11540
   1  -0.32579  -0.00043  -6.77658
   1  -2.31514  -0.00349  -5.26270
   1  -2.04845  -0.00349  -2.84100
   1   2.46432  -0.00055  -1.13595
   1   2.80648  -0.88237   1.99689
   1   2.80731   0.87935   1.99834
   1   1.97651  -0.00134   5.09685
   1  -0.49516  -0.00029   6.03096
   1   2.24499   0.00345  -3.33589
   1   1.95594   0.00284  -5.75140
 read in order, maxerr=  5.35 for atom  22
 loop 3 1
 mod cartes coords mol 2
   6  -0.20279   0.00033  -5.69908
   6  -1.31179   0.00195  -4.84362
   6  -1.16236   0.00178  -3.46690
   6   0.12472  -0.00010  -2.84703
   6   0.29821  -0.00034  -1.43397
   6   1.48683   0.00011  -0.66906
   6   1.28249   0.00000   0.70258
   6   2.15239   0.00116   1.95387
   6   1.11302   0.00149   3.06492
   6   1.09162   0.00076   4.46879
   6  -0.18412  -0.00052   4.99867
  16  -1.41134  -0.00076   3.71881
   6  -0.16918   0.00074   2.48843
   6  -0.07487  -0.00043   1.08153
  16  -1.12502  -0.00065  -0.31874
   6   1.23978  -0.00171  -3.74267
   6   1.07377  -0.00150  -5.11540
   1  -0.32579   0.00043  -6.77658
   1  -2.31514   0.00349  -5.26270
   1  -2.04845   0.00349  -2.84100
   1   2.46432   0.00055  -1.13595
   1   2.80648   0.88237   1.99689
   1   2.80731  -0.87935   1.99834
   1   1.97651   0.00134   5.09685
   1  -0.49516   0.00029   6.03096
   1   2.24499  -0.00345  -3.33589
   1   1.95594  -0.00284  -5.75140
 read in order, maxerr=  4.39 for atom  22
 loop 3 2
 mod cartes coords mol 2
   6   0.20279  -0.00033  -5.69908
   6   1.31179  -0.00195  -4.84362
   6   1.16236  -0.00178  -3.46690
   6  -0.12472   0.00010  -2.84703
   6  -0.29821   0.00034  -1.43397
   6  -1.48683  -0.00011  -0.66906
   6  -1.28249  -0.00000   0.70258
   6  -2.15239  -0.00116   1.95387
   6  -1.11302  -0.00149   3.06492
   6  -1.09162  -0.00076   4.46879
   6   0.18412   0.00052   4.99867
  16   1.41134   0.00076   3.71881
   6   0.16918  -0.00074   2.48843
   6   0.07487   0.00043   1.08153
  16   1.12502   0.00065  -0.31874
   6  -1.23978   0.00171  -3.74267
   6  -1.07377   0.00150  -5.11540
   1   0.32579  -0.00043  -6.77658
   1   2.31514  -0.00349  -5.26270
   1   2.04845  -0.00349  -2.84100
   1  -2.46432  -0.00055  -1.13595
   1  -2.80648  -0.88237   1.99689
   1  -2.80731   0.87935   1.99834
   1  -1.97651  -0.00134   5.09685
   1   0.49516  -0.00029   6.03096
   1  -2.24499   0.00345  -3.33589
   1  -1.95594   0.00284  -5.75140
 read in order, maxerr=  3.90 for atom  23
 loop 3 3
 mod cartes coords mol 2
   6   0.20279   0.00033  -5.69908
   6   1.31179   0.00195  -4.84362
   6   1.16236   0.00178  -3.46690
   6  -0.12472  -0.00010  -2.84703
   6  -0.29821  -0.00034  -1.43397
   6  -1.48683   0.00011  -0.66906
   6  -1.28249   0.00000   0.70258
   6  -2.15239   0.00116   1.95387
   6  -1.11302   0.00149   3.06492
   6  -1.09162   0.00076   4.46879
   6   0.18412  -0.00052   4.99867
  16   1.41134  -0.00076   3.71881
   6   0.16918   0.00074   2.48843
   6   0.07487  -0.00043   1.08153
  16   1.12502  -0.00065  -0.31874
   6  -1.23978  -0.00171  -3.74267
   6  -1.07377  -0.00150  -5.11540
   1   0.32579   0.00043  -6.77658
   1   2.31514   0.00349  -5.26270
   1   2.04845   0.00349  -2.84100
   1  -2.46432   0.00055  -1.13595
   1  -2.80648   0.88237   1.99689
   1  -2.80731  -0.87935   1.99834
   1  -1.97651   0.00134   5.09685
   1   0.49516   0.00029   6.03096
   1  -2.24499  -0.00345  -3.33589
   1  -1.95594  -0.00284  -5.75140
 read in order, maxerr=  5.03 for atom  23
 loop 3 4
 mod cartes coords mol 2
   6  -0.20279  -0.00033   5.69908
   6  -1.31179  -0.00195   4.84362
   6  -1.16236  -0.00178   3.46690
   6   0.12472   0.00010   2.84703
   6   0.29821   0.00034   1.43397
   6   1.48683  -0.00011   0.66906
   6   1.28249  -0.00000  -0.70258
   6   2.15239  -0.00116  -1.95387
   6   1.11302  -0.00149  -3.06492
   6   1.09162  -0.00076  -4.46879
   6  -0.18412   0.00052  -4.99867
  16  -1.41134   0.00076  -3.71881
   6  -0.16918  -0.00074  -2.48843
   6  -0.07487   0.00043  -1.08153
  16  -1.12502   0.00065   0.31874
   6   1.23978   0.00171   3.74267
   6   1.07377   0.00150   5.11540
   1  -0.32579  -0.00043   6.77658
   1  -2.31514  -0.00349   5.26270
   1  -2.04845  -0.00349   2.84100
   1   2.46432  -0.00055   1.13595
   1   2.80648  -0.88237  -1.99689
   1   2.80731   0.87935  -1.99834
   1   1.97651  -0.00134  -5.09685
   1  -0.49516  -0.00029  -6.03096
   1   2.24499   0.00345   3.33589
   1   1.95594   0.00284   5.75140
 read in order, maxerr= 13.52 for atom  18
 loop 3 5
 mod cartes coords mol 2
   6  -0.20279   0.00033   5.69908
   6  -1.31179   0.00195   4.84362
   6  -1.16236   0.00178   3.46690
   6   0.12472  -0.00010   2.84703
   6   0.29821  -0.00034   1.43397
   6   1.48683   0.00011   0.66906
   6   1.28249   0.00000  -0.70258
   6   2.15239   0.00116  -1.95387
   6   1.11302   0.00149  -3.06492
   6   1.09162   0.00076  -4.46879
   6  -0.18412  -0.00052  -4.99867
  16  -1.41134  -0.00076  -3.71881
   6  -0.16918   0.00074  -2.48843
   6  -0.07487  -0.00043  -1.08153
  16  -1.12502  -0.00065   0.31874
   6   1.23978  -0.00171   3.74267
   6   1.07377  -0.00150   5.11540
   1  -0.32579   0.00043   6.77658
   1  -2.31514   0.00349   5.26270
   1  -2.04845   0.00349   2.84100
   1   2.46432   0.00055   1.13595
   1   2.80648   0.88237  -1.99689
   1   2.80731  -0.87935  -1.99834
   1   1.97651   0.00134  -5.09685
   1  -0.49516   0.00029  -6.03096
   1   2.24499  -0.00345   3.33589
   1   1.95594  -0.00284   5.75140
 read in order, maxerr= 13.52 for atom  18
 loop 3 6
 mod cartes coords mol 2
   6   0.20279  -0.00033   5.69908
   6   1.31179  -0.00195   4.84362
   6   1.16236  -0.00178   3.46690
   6  -0.12472   0.00010   2.84703
   6  -0.29821   0.00034   1.43397
   6  -1.48683  -0.00011   0.66906
   6  -1.28249  -0.00000  -0.70258
   6  -2.15239  -0.00116  -1.95387
   6  -1.11302  -0.00149  -3.06492
   6  -1.09162  -0.00076  -4.46879
   6   0.18412   0.00052  -4.99867
  16   1.41134   0.00076  -3.71881
   6   0.16918  -0.00074  -2.48843
   6   0.07487   0.00043  -1.08153
  16   1.12502   0.00065   0.31874
   6  -1.23978   0.00171   3.74267
   6  -1.07377   0.00150   5.11540
   1   0.32579  -0.00043   6.77658
   1   2.31514  -0.00349   5.26270
   1   2.04845  -0.00349   2.84100
   1  -2.46432  -0.00055   1.13595
   1  -2.80648  -0.88237  -1.99689
   1  -2.80731   0.87935  -1.99834
   1  -1.97651  -0.00134  -5.09685
   1   0.49516  -0.00029  -6.03096
   1  -2.24499   0.00345   3.33589
   1  -1.95594   0.00284   5.75140
 read in order, maxerr= 13.52 for atom  18
 loop 3 7
 mod cartes coords mol 2
   6   0.20279   0.00033   5.69908
   6   1.31179   0.00195   4.84362
   6   1.16236   0.00178   3.46690
   6  -0.12472  -0.00010   2.84703
   6  -0.29821  -0.00034   1.43397
   6  -1.48683   0.00011   0.66906
   6  -1.28249   0.00000  -0.70258
   6  -2.15239   0.00116  -1.95387
   6  -1.11302   0.00149  -3.06492
   6  -1.09162   0.00076  -4.46879
   6   0.18412  -0.00052  -4.99867
  16   1.41134  -0.00076  -3.71881
   6   0.16918   0.00074  -2.48843
   6   0.07487  -0.00043  -1.08153
  16   1.12502  -0.00065   0.31874
   6  -1.23978  -0.00171   3.74267
   6  -1.07377  -0.00150   5.11540
   1   0.32579   0.00043   6.77658
   1   2.31514   0.00349   5.26270
   1   2.04845   0.00349   2.84100
   1  -2.46432   0.00055   1.13595
   1  -2.80648   0.88237  -1.99689
   1  -2.80731  -0.87935  -1.99834
   1  -1.97651   0.00134  -5.09685
   1   0.49516   0.00029  -6.03096
   1  -2.24499  -0.00345   3.33589
   1  -1.95594  -0.00284   5.75140
 read in order, maxerr= 13.52 for atom  18
 loop 4 0
 mod cartes coords mol 2
   6  -5.69908  -0.00033  -0.20279
   6  -4.84362  -0.00195  -1.31179
   6  -3.46690  -0.00178  -1.16236
   6  -2.84703   0.00010   0.12472
   6  -1.43397   0.00034   0.29821
   6  -0.66906  -0.00011   1.48683
   6   0.70258  -0.00000   1.28249
   6   1.95387  -0.00116   2.15239
   6   3.06492  -0.00149   1.11302
   6   4.46879  -0.00076   1.09162
   6   4.99867   0.00052  -0.18412
  16   3.71881   0.00076  -1.41134
   6   2.48843  -0.00074  -0.16918
   6   1.08153   0.00043  -0.07487
  16  -0.31874   0.00065  -1.12502
   6  -3.74267   0.00171   1.23978
   6  -5.11540   0.00150   1.07377
   1  -6.77658  -0.00043  -0.32579
   1  -5.26270  -0.00349  -2.31514
   1  -2.84100  -0.00349  -2.04845
   1  -1.13595  -0.00055   2.46432
   1   1.99689  -0.88237   2.80648
   1   1.99834   0.87935   2.80731
   1   5.09685  -0.00134   1.97651
   1   6.03096  -0.00029  -0.49516
   1  -3.33589   0.00345   2.24499
   1  -5.75140   0.00284   1.95594
 read in order, maxerr= 10.25 for atom  27
 loop 4 1
 mod cartes coords mol 2
   6  -5.69908   0.00033  -0.20279
   6  -4.84362   0.00195  -1.31179
   6  -3.46690   0.00178  -1.16236
   6  -2.84703  -0.00010   0.12472
   6  -1.43397  -0.00034   0.29821
   6  -0.66906   0.00011   1.48683
   6   0.70258   0.00000   1.28249
   6   1.95387   0.00116   2.15239
   6   3.06492   0.00149   1.11302
   6   4.46879   0.00076   1.09162
   6   4.99867  -0.00052  -0.18412
  16   3.71881  -0.00076  -1.41134
   6   2.48843   0.00074  -0.16918
   6   1.08153  -0.00043  -0.07487
  16  -0.31874  -0.00065  -1.12502
   6  -3.74267  -0.00171   1.23978
   6  -5.11540  -0.00150   1.07377
   1  -6.77658   0.00043  -0.32579
   1  -5.26270   0.00349  -2.31514
   1  -2.84100   0.00349  -2.04845
   1  -1.13595   0.00055   2.46432
   1   1.99689   0.88237   2.80648
   1   1.99834  -0.87935   2.80731
   1   5.09685   0.00134   1.97651
   1   6.03096   0.00029  -0.49516
   1  -3.33589  -0.00345   2.24499
   1  -5.75140  -0.00284   1.95594
 read in order, maxerr= 10.25 for atom  27
 loop 4 2
 mod cartes coords mol 2
   6  -5.69908  -0.00033   0.20279
   6  -4.84362  -0.00195   1.31179
   6  -3.46690  -0.00178   1.16236
   6  -2.84703   0.00010  -0.12472
   6  -1.43397   0.00034  -0.29821
   6  -0.66906  -0.00011  -1.48683
   6   0.70258  -0.00000  -1.28249
   6   1.95387  -0.00116  -2.15239
   6   3.06492  -0.00149  -1.11302
   6   4.46879  -0.00076  -1.09162
   6   4.99867   0.00052   0.18412
  16   3.71881   0.00076   1.41134
   6   2.48843  -0.00074   0.16918
   6   1.08153   0.00043   0.07487
  16  -0.31874   0.00065   1.12502
   6  -3.74267   0.00171  -1.23978
   6  -5.11540   0.00150  -1.07377
   1  -6.77658  -0.00043   0.32579
   1  -5.26270  -0.00349   2.31514
   1  -2.84100  -0.00349   2.04845
   1  -1.13595  -0.00055  -2.46432
   1   1.99689  -0.88237  -2.80648
   1   1.99834   0.87935  -2.80731
   1   5.09685  -0.00134  -1.97651
   1   6.03096  -0.00029   0.49516
   1  -3.33589   0.00345  -2.24499
   1  -5.75140   0.00284  -1.95594
 read in order, maxerr=  9.81 for atom  18
 loop 4 3
 mod cartes coords mol 2
   6  -5.69908   0.00033   0.20279
   6  -4.84362   0.00195   1.31179
   6  -3.46690   0.00178   1.16236
   6  -2.84703  -0.00010  -0.12472
   6  -1.43397  -0.00034  -0.29821
   6  -0.66906   0.00011  -1.48683
   6   0.70258   0.00000  -1.28249
   6   1.95387   0.00116  -2.15239
   6   3.06492   0.00149  -1.11302
   6   4.46879   0.00076  -1.09162
   6   4.99867  -0.00052   0.18412
  16   3.71881  -0.00076   1.41134
   6   2.48843   0.00074   0.16918
   6   1.08153  -0.00043   0.07487
  16  -0.31874  -0.00065   1.12502
   6  -3.74267  -0.00171  -1.23978
   6  -5.11540  -0.00150  -1.07377
   1  -6.77658   0.00043   0.32579
   1  -5.26270   0.00349   2.31514
   1  -2.84100   0.00349   2.04845
   1  -1.13595   0.00055  -2.46432
   1   1.99689   0.88237  -2.80648
   1   1.99834  -0.87935  -2.80731
   1   5.09685   0.00134  -1.97651
   1   6.03096   0.00029   0.49516
   1  -3.33589  -0.00345  -2.24499
   1  -5.75140  -0.00284  -1.95594
 read in order, maxerr=  9.81 for atom  18
 loop 4 4
 mod cartes coords mol 2
   6   5.69908  -0.00033  -0.20279
   6   4.84362  -0.00195  -1.31179
   6   3.46690  -0.00178  -1.16236
   6   2.84703   0.00010   0.12472
   6   1.43397   0.00034   0.29821
   6   0.66906  -0.00011   1.48683
   6  -0.70258  -0.00000   1.28249
   6  -1.95387  -0.00116   2.15239
   6  -3.06492  -0.00149   1.11302
   6  -4.46879  -0.00076   1.09162
   6  -4.99867   0.00052  -0.18412
  16  -3.71881   0.00076  -1.41134
   6  -2.48843  -0.00074  -0.16918
   6  -1.08153   0.00043  -0.07487
  16   0.31874   0.00065  -1.12502
   6   3.74267   0.00171   1.23978
   6   5.11540   0.00150   1.07377
   1   6.77658  -0.00043  -0.32579
   1   5.26270  -0.00349  -2.31514
   1   2.84100  -0.00349  -2.04845
   1   1.13595  -0.00055   2.46432
   1  -1.99689  -0.88237   2.80648
   1  -1.99834   0.87935   2.80731
   1  -5.09685  -0.00134   1.97651
   1  -6.03096  -0.00029  -0.49516
   1   3.33589   0.00345   2.24499
   1   5.75140   0.00284   1.95594
 read in order, maxerr=  9.32 for atom  18
 loop 4 5
 mod cartes coords mol 2
[...]
 nber times 1st assigned=          74           0
 nber times 1st assigned=          75           0
 nber times 1st assigned=          76           0
 nber times 1st assigned=          77           0
 nber times 1st assigned=          78           0
 nber times 1st assigned=          79           0
 nber times 1st assigned=          80           0
 nber times 1st assigned=          81           0
 Dushinsky matrix written to .out file
 modes represented=   81.6239126978505     

 Dushinsky matrix, ncs 1 in terms of ncs 2

   mode   freq    coeff     %      %tot     of    at

   7        40.  0.9683    93.8   140.0   8        43.
   8        45. -0.9642    93.0   305.0   7        39.
                 0.4124    17.0          17       356.
                 0.5992    35.9          58      1309.
                -0.4128    17.0          66      1473.
                 0.3189    10.2          70      1544.
   9        78.  0.9658    93.3   471.8   9        89.
                 0.3886    15.1          10       109.
                 0.4424    19.6          12       183.
                -0.4311    18.6          14       222.
                -0.7392    54.6          23       508.
                 0.3884    15.1          26       559.
                -0.6057    36.7          34       704.
                 0.3318    11.0          35       757.
                 0.5720    32.7          38       804.
  10       124. -0.9158    83.9   140.4  10       109.
  11       144.  0.9575    91.7    97.7  11       139.
  12       186.  0.3905    15.3   124.6  12       183.
                 0.9051    81.9          13       196.
  13       224.  0.7408    54.9    97.7  12       183.
                -0.3385    11.5          13       196.
  14       253.  0.4540    20.6    98.4  14       222.
                 0.8200    67.2          15       235.
  15       259.  0.9476    89.8   103.1  16       263.
  16       290.  0.6731    45.3   101.5  14       222.
                -0.4336    18.8          15       235.
  17       357. -0.7725    59.7   110.8  17       356.
                -0.3430    11.8          18       390.
  18       414.  0.9875    97.5   104.0  19       421.
  19       436. -0.9546    91.1   102.7  21       432.
  20       467. -0.7838    61.4    94.8  18       390.
                 0.3253    10.6          20       430.
  21       477. -0.7439    55.3    96.7  20       430.
                 0.3493    12.2          22       455.
                 0.3285    10.8          24       509.
  22       516. -0.8907    79.3    95.7  24       509.
  23       556. -0.5204    27.1    99.4  23       508.
  24       570.  0.9662    93.3    98.4  25       553.
  25       585. -0.3253    10.6    99.5  22       455.
                 0.7445    55.4          26       559.
  26       608.  0.9876    97.5    98.2  27       579.
  27       632.  0.4478    20.1   101.2  22       455.
                 0.4341    18.8          28       630.
                 0.6119    37.4          29       633.
  28       634.  0.7939    63.0   100.3  28       630.
                -0.3330    11.1          29       633.
  29       659. -0.9636    92.9    98.4  30       641.
  30       696. -0.5319    28.3   101.7  22       455.
                 0.6840    46.8          29       633.
  31       698. -0.8523    72.6   101.6  31       667.
  32       708. -0.9272    86.0    99.6  32       679.
  33       714.  0.9795    95.9    99.8  33       696.
  34       774. -0.6697    44.9    97.6  34       704.
  35       817.  0.9898    98.0    99.2  37       791.
  36       848. -0.8524    72.7    98.8  35       757.
                 0.3345    11.2          36       788.
  37       850.  0.9111    83.0    98.8  36       788.
  38       877. -0.9586    91.9    98.8  39       826.
  39       920. -0.3428    11.7   100.0  38       804.
                 0.8342    69.6          40       895.
  40       924.  0.6318    39.9    99.0  38       804.
                 0.4291    18.4          40       895.
  41       936.  0.9657    93.3    99.4  44       936.
  42       958.  0.9419    88.7    98.3  43       936.
  43       978. -0.9670    93.5    98.8  41       927.
  44       999. -0.9292    86.3    99.4  42       935.
  45      1001.  0.9706    94.2   100.1  45       975.
  46      1014.  0.9416    88.7    99.5  46       991.
  47      1028. -0.9535    90.9   100.0  47      1008.
  48      1053.  0.9792    95.9   100.1  48      1031.
  49      1104.  0.9330    87.1    99.0  50      1088.
  50      1110.  0.9682    93.7    99.9  49      1084.
  51      1149.  0.9990    99.8    99.0  51      1137.
  52      1174.  0.4008    16.1    99.3  52      1154.
                -0.7306    53.4          53      1177.
                 0.4300    18.5          54      1188.
  53      1183. -0.7728    59.7    99.7  52      1154.
                -0.5074    25.7          53      1177.
  54      1206. -0.3169    10.0   100.0  54      1188.
                 0.8736    76.3          55      1202.
  55      1212.  0.3190    10.2    99.5  52      1154.
                -0.6200    38.4          54      1188.
                -0.4359    19.0          55      1202.
                 0.4529    20.5          56      1211.
  56      1234.  0.3532    12.5    99.1  54      1188.
                 0.8028    64.5          56      1211.
  57      1268.  0.9656    93.2    99.7  57      1248.
  58      1317. -0.6406    41.0   100.1  58      1309.
  59      1357.  0.9333    87.1    99.7  60      1358.
  60      1361. -0.7379    54.4    99.6  59      1320.
                -0.3760    14.1          62      1422.
  61      1404.  0.3939    15.5    99.7  59      1320.
                -0.6289    39.5          63      1440.
                 0.5051    25.5          64      1453.
  62      1423. -0.7730    59.8    99.9  61      1383.
                -0.3492    12.2          64      1453.
  63      1439. -0.5763    33.2    99.5  62      1422.
                 0.3758    14.1          63      1440.
                 0.5832    34.0          65      1463.
  64      1458. -0.4677    21.9    99.5  63      1440.
                -0.4597    21.1          64      1453.
                 0.4481    20.1          67      1493.
  65      1468.  0.3164    10.0    99.5  62      1422.
                 0.6798    46.2          65      1463.
                -0.4074    16.6          69      1530.
  66      1479.  0.3608    13.0    99.7  64      1453.
                -0.6490    42.1          66      1473.
                -0.3565    12.7          68      1519.
  67      1519.  0.3260    10.6    99.6  62      1422.
                 0.4017    16.1          66      1473.
                -0.3304    10.9          67      1493.
                -0.6576    43.3          68      1519.
  68      1532. -0.4018    16.1   100.0  63      1440.
                -0.3186    10.2          64      1453.
                -0.7209    52.0          67      1493.
                 0.3226    10.4          68      1519.
  69      1556.  0.3337    11.1    99.9  68      1519.
                 0.7586    57.6          69      1530.
  70      1613.  0.8519    72.6    99.4  70      1544.
  71      1641. -0.9944    98.9   100.3  71      1626.
  72      3027.  0.9999   100.0   100.1  72      2982.
  73      3055.  1.0000   100.0    99.9  73      2996.
  74      3161. -0.9333    87.1   100.0  74      3120.
  75      3167.  0.8714    75.9   100.0  75      3126.
                -0.3389    11.5          78      3161.
  76      3177. -0.9627    92.7   100.0  76      3158.
  77      3183.  0.3474    12.1   100.0  75      3126.
                 0.9259    85.7          78      3161.
  78      3191.  0.9503    90.3   100.0  79      3169.
  79      3199. -0.9927    98.5   100.0  77      3159.
  80      3201.  0.9681    93.7   100.0  80      3179.
  81      3246. -0.9975    99.5   100.0  81      3240.
 nber times 1st assigned=           1           0
 nber times 1st assigned=           2           0
 nber times 1st assigned=           3           0
 nber times 1st assigned=           4           0
 nber times 1st assigned=           5           0
 nber times 1st assigned=           6           0
 nber times 1st assigned=           7           0
 nber times 1st assigned=           8           0
 nber times 1st assigned=           9           0
 nber times 1st assigned=          10           0
 nber times 1st assigned=          11           0
 nber times 1st assigned=          12           0
 nber times 1st assigned=          13           0
 nber times 1st assigned=          14           0
 nber times 1st assigned=          15           0
 nber times 1st assigned=          16           0
 nber times 1st assigned=          17           0
 nber times 1st assigned=          18           0
 nber times 1st assigned=          19           0
 nber times 1st assigned=          20           0
 nber times 1st assigned=          21           0
 nber times 1st assigned=          22           0
 nber times 1st assigned=          23           0
 nber times 1st assigned=          24           0
 nber times 1st assigned=          25           0
 nber times 1st assigned=          26           0
 nber times 1st assigned=          27           0
 nber times 1st assigned=          28           0
 nber times 1st assigned=          29           0
 nber times 1st assigned=          30           0
 nber times 1st assigned=          31           0
 nber times 1st assigned=          32           0
 nber times 1st assigned=          33           0
 nber times 1st assigned=          34           0
 nber times 1st assigned=          35           0
 nber times 1st assigned=          36           0
 nber times 1st assigned=          37           0
 nber times 1st assigned=          38           0
 nber times 1st assigned=          39           0
 nber times 1st assigned=          40           0
 nber times 1st assigned=          41           0
 nber times 1st assigned=          42           0
 nber times 1st assigned=          43           0
 nber times 1st assigned=          44           0
 nber times 1st assigned=          45           0
 nber times 1st assigned=          46           0
 nber times 1st assigned=          47           0
 nber times 1st assigned=          48           0
 nber times 1st assigned=          49           0
 nber times 1st assigned=          50           0
 nber times 1st assigned=          51           0
 nber times 1st assigned=          52           0
 nber times 1st assigned=          53           0
 nber times 1st assigned=          54           0
 nber times 1st assigned=          55           0
 nber times 1st assigned=          56           0
 nber times 1st assigned=          57           0
 nber times 1st assigned=          58           0
 nber times 1st assigned=          59           0
 nber times 1st assigned=          60           0
 nber times 1st assigned=          61           0
 nber times 1st assigned=          62           0
 nber times 1st assigned=          63           0
 nber times 1st assigned=          64           0
 nber times 1st assigned=          65           0
 nber times 1st assigned=          66           0
 nber times 1st assigned=          67           0
 nber times 1st assigned=          68           0
 nber times 1st assigned=          69           0
 nber times 1st assigned=          70           0
 nber times 1st assigned=          71           0
 nber times 1st assigned=          72           0
 nber times 1st assigned=          73           0
 nber times 1st assigned=          74           0
 nber times 1st assigned=          75           0
 nber times 1st assigned=          76           0
 nber times 1st assigned=          77           0
 nber times 1st assigned=          78           0
 nber times 1st assigned=          79           0
 nber times 1st assigned=          80           0
 nber times 1st assigned=          81           0
 modes represented=   81.6239126978505     
 p1=
    0.   -0.   -0.    0.   -0.   -0. -160.   67.    9.   -3.   -9.   -6.    1.    1.   -3.    3.    3.   -3.   -2.   -0.
   -1.   -1.   -0.    1.    1.   -5.   -0.   -1.    1.   -0.    3.   -1.   -1.    0.    3.    1.    0.   -0.    1.    0.
   -0.    0.    0.   -0.   -0.   -2.   -0.   -1.    0.   -1.   -0.   -1.   -0.    1.   -1.   -1.    1.   -0.    1.   -1.
    3.   -2.    2.    0.   -4.    1.   -0.    1.    3.   -0.   -2.   -0.    0.   -0.   -0.    0.    0.    0.    0.   -0.
   -0.
 p2=
   -0.   -0.    0.   -0.   -0.   -0.   27.  172.   -6.   -0.    9.    4.    6.    1.   -3.    6.    5.   -1.    1.   -0.
   -1.   -0.   -1.    0.   -1.    1.    6.    1.    0.    1.    3.    0.    1.   -0.   -2.    1.   -4.   -0.   -0.   -0.
   -0.   -0.   -0.   -0.    0.    2.    0.    0.    1.   -0.    0.    0.   -1.   -0.   -2.   -0.   -1.    0.   -2.   -0.
   -3.    1.    1.   -3.    1.   -1.    1.   -0.   -4.   -0.   -3.    0.    0.   -0.    0.   -0.    0.    0.   -0.    0.
   -0.

 Displacement: in terms of nc of 1 THEN of nc of 2

   1     freq=    -0. Q=  0.000 lam=    -0.0     freq=    -0. Q=  0.000 lam=    -0.0
   2     freq=    -0. Q= -0.000 lam=    -0.0     freq=    -0. Q= -0.000 lam=    -0.0
   3     freq=    -0. Q= -0.000 lam=    -0.0     freq=    -0. Q= -0.000 lam=    -0.0
   4     freq=     0. Q=  0.000 lam=     0.0     freq=     0. Q=  0.000 lam=     0.0
   5     freq=     0. Q= -0.000 lam=     0.0     freq=     0. Q= -0.000 lam=     0.0
   6     freq=     0. Q= -0.000 lam=     0.0     freq=     0. Q= -0.000 lam=     0.0
   7     freq=    40. Q= -4.048 lam=   323.6     freq=    39. Q= -0.689 lam=     9.3
   8     freq=    45. Q=  1.815 lam=    74.4     freq=    43. Q=  4.540 lam=   443.6
   9     freq=    78. Q=  0.313 lam=     3.8     freq=    89. Q=  0.228 lam=     2.3
  10     freq=   124. Q= -0.132 lam=     1.1     freq=   109. Q= -0.009 lam=     0.0
  11     freq=   144. Q= -0.448 lam=    14.4     freq=   139. Q= -0.417 lam=    12.1
  12     freq=   186. Q= -0.305 lam=     8.7     freq=   183. Q= -0.206 lam=     3.9
  13     freq=   224. Q=  0.055 lam=     0.3     freq=   196. Q=  0.347 lam=    11.8
  14     freq=   253. Q=  0.066 lam=     0.5     freq=   222. Q=  0.082 lam=     0.7
  15     freq=   259. Q= -0.168 lam=     3.7     freq=   235. Q= -0.183 lam=     3.9
  16     freq=   290. Q=  0.200 lam=     5.8     freq=   263. Q=  0.379 lam=    18.9
  17     freq=   357. Q=  0.209 lam=     7.8     freq=   356. Q=  0.382 lam=    25.9
  18     freq=   414. Q= -0.213 lam=     9.4     freq=   390. Q= -0.104 lam=     2.1
  19     freq=   436. Q= -0.173 lam=     6.5     freq=   421. Q= -0.077 lam=     1.2
  20     freq=   467. Q= -0.022 lam=     0.1     freq=   430. Q= -0.009 lam=     0.0
  21     freq=   477. Q= -0.075 lam=     1.3     freq=   432. Q= -0.065 lam=     0.9
  22     freq=   516. Q= -0.095 lam=     2.3     freq=   455. Q= -0.019 lam=     0.1
  23     freq=   556. Q= -0.031 lam=     0.3     freq=   508. Q= -0.048 lam=     0.6
  24     freq=   570. Q=  0.088 lam=     2.2     freq=   509. Q=  0.043 lam=     0.5
  25     freq=   585. Q=  0.112 lam=     3.7     freq=   553. Q=  0.139 lam=     5.3
  26     freq=   608. Q= -0.544 lam=    90.0     freq=   559. Q= -0.091 lam=     2.3
  27     freq=   632. Q= -0.011 lam=     0.0     freq=   579. Q= -0.552 lam=    88.3
  28     freq=   634. Q= -0.109 lam=     3.8     freq=   630. Q= -0.120 lam=     4.5
  29     freq=   659. Q=  0.104 lam=     3.6     freq=   633. Q=  0.018 lam=     0.1
  30     freq=   696. Q= -0.045 lam=     0.7     freq=   641. Q= -0.132 lam=     5.6
  31     freq=   698. Q=  0.294 lam=    30.2     freq=   667. Q=  0.271 lam=    24.5
  32     freq=   708. Q= -0.077 lam=     2.1     freq=   679. Q= -0.052 lam=     0.9
  33     freq=   714. Q= -0.097 lam=     3.3     freq=   696. Q= -0.105 lam=     3.9
  34     freq=   774. Q=  0.048 lam=     0.9     freq=   704. Q=  0.047 lam=     0.8
  35     freq=   817. Q=  0.402 lam=    65.9     freq=   757. Q=  0.232 lam=    20.3
  36     freq=   848. Q=  0.104 lam=     4.5     freq=   788. Q=  0.157 lam=     9.7
  37     freq=   850. Q=  0.054 lam=     1.2     freq=   791. Q=  0.411 lam=    66.7
  38     freq=   877. Q= -0.004 lam=     0.0     freq=   804. Q= -0.002 lam=     0.0
  39     freq=   920. Q=  0.096 lam=     4.2     freq=   826. Q=  0.005 lam=     0.0
  40     freq=   924. Q=  0.044 lam=     0.9     freq=   895. Q=  0.040 lam=     0.7
  41     freq=   936. Q= -0.005 lam=     0.0     freq=   927. Q= -0.047 lam=     1.0
  42     freq=   958. Q=  0.038 lam=     0.7     freq=   935. Q=  0.004 lam=     0.0
  43     freq=   978. Q=  0.038 lam=     0.7     freq=   936. Q=  0.047 lam=     1.0
  44     freq=   999. Q= -0.004 lam=     0.0     freq=   936. Q= -0.000 lam=     0.0
  45     freq=  1001. Q= -0.027 lam=     0.4     freq=   975. Q= -0.061 lam=     1.8
  46     freq=  1014. Q= -0.302 lam=    46.2     freq=   991. Q= -0.296 lam=    43.3
  47     freq=  1028. Q= -0.059 lam=     1.8     freq=  1008. Q= -0.051 lam=     1.3
  48     freq=  1053. Q= -0.068 lam=     2.4     freq=  1031. Q= -0.046 lam=     1.1
  49     freq=  1104. Q=  0.023 lam=     0.3     freq=  1084. Q=  0.102 lam=     5.7
  50     freq=  1110. Q= -0.095 lam=     5.0     freq=  1088. Q= -0.022 lam=     0.3
  51     freq=  1149. Q= -0.000 lam=     0.0     freq=  1137. Q= -0.003 lam=     0.0
  52     freq=  1174. Q= -0.087 lam=     4.4     freq=  1154. Q= -0.047 lam=     1.3
  53     freq=  1183. Q= -0.018 lam=     0.2     freq=  1177. Q= -0.076 lam=     3.4
  54     freq=  1206. Q=  0.131 lam=    10.4     freq=  1188. Q=  0.004 lam=     0.0
  55     freq=  1212. Q= -0.084 lam=     4.2     freq=  1202. Q= -0.229 lam=    31.4
  56     freq=  1234. Q= -0.121 lam=     9.0     freq=  1211. Q= -0.014 lam=     0.1
  57     freq=  1268. Q=  0.127 lam=    10.3     freq=  1248. Q=  0.101 lam=     6.3
  58     freq=  1317. Q= -0.065 lam=     2.8     freq=  1309. Q= -0.035 lam=     0.8
  59     freq=  1357. Q=  0.090 lam=     5.5     freq=  1320. Q=  0.351 lam=    81.4
  60     freq=  1361. Q= -0.179 lam=    21.7     freq=  1358. Q= -0.016 lam=     0.2
  61     freq=  1404. Q=  0.435 lam=   132.9     freq=  1383. Q=  0.479 lam=   158.7
  62     freq=  1423. Q= -0.349 lam=    86.4     freq=  1422. Q= -0.118 lam=     9.9
  63     freq=  1439. Q=  0.299 lam=    64.5     freq=  1440. Q=  0.140 lam=    14.0
  64     freq=  1458. Q=  0.001 lam=     0.0     freq=  1453. Q=  0.397 lam=   114.2
  65     freq=  1468. Q= -0.604 lam=   267.5     freq=  1463. Q= -0.115 lam=     9.6
  66     freq=  1479. Q=  0.176 lam=    22.9     freq=  1473. Q=  0.116 lam=     9.9
  67     freq=  1519. Q= -0.015 lam=     0.2     freq=  1493. Q= -0.224 lam=    37.3
  68     freq=  1532. Q=  0.114 lam=     9.9     freq=  1519. Q=  0.076 lam=     4.4
  69     freq=  1556. Q=  0.403 lam=   126.1     freq=  1530. Q=  0.659 lam=   332.2
  70     freq=  1613. Q= -0.041 lam=     1.4     freq=  1544. Q= -0.007 lam=     0.0
  71     freq=  1641. Q= -0.365 lam=   109.2     freq=  1626. Q= -0.449 lam=   164.0
  72     freq=  3027. Q= -0.031 lam=     1.4     freq=  2982. Q= -0.034 lam=     1.7
  73     freq=  3055. Q=  0.000 lam=     0.0     freq=  2996. Q=  0.001 lam=     0.0
  74     freq=  3161. Q= -0.025 lam=     1.0     freq=  3120. Q= -0.030 lam=     1.4
  75     freq=  3167. Q= -0.001 lam=     0.0     freq=  3126. Q= -0.006 lam=     0.1
  76     freq=  3177. Q=  0.001 lam=     0.0     freq=  3158. Q=  0.004 lam=     0.0
  77     freq=  3183. Q=  0.001 lam=     0.0     freq=  3159. Q=  0.024 lam=     0.9
  78     freq=  3191. Q=  0.025 lam=     1.0     freq=  3161. Q=  0.004 lam=     0.0
  79     freq=  3199. Q=  0.025 lam=     1.0     freq=  3169. Q=  0.014 lam=     0.3
  80     freq=  3201. Q= -0.013 lam=     0.3     freq=  3179. Q= -0.004 lam=     0.0
  81     freq=  3246. Q= -0.013 lam=     0.3     freq=  3240. Q= -0.012 lam=     0.2

 total reorg energy (cm**-1, kcal/mol)=     1633.     1811.      4.67      5.18
 Nber of molecules processed=           2
