 Enter ifcurve (0=recti, 1=orth curvi, 2=apprx curvi, -1 = skip
 And atom ordering flag, 0= never changes, 1= use the first order thenceforth,
  2= deduce it (does read on fail), 3= always read it
 Reading file: 
 ./CDT-A_5_C0S0.log                                                             
                                          
  Entering Gaussian System, Link 0=g16                                          
  
 Gaussian format, type: g94, g98, g03= F F F
  #P Geom=AllCheck Guess=TCheck SCRF=Check GenChk RB3LYP/6-311G(d,p) Fre    
 energy type= B3LYP   
 Original G94 input coords:
  6  6.382046-14.913941-35.593507
  6  5.113508-15.605185-35.083144
  6  4.851113-16.963837-35.740894
  7  5.096859-15.700155-33.588101
  6  6.070714-16.471582-32.940882
  8  6.928794-17.066925-33.568658
  6  6.016469-16.535171-31.457731
  6  6.959070-17.283410-30.779239
  6  6.932329-17.360931-29.384786
  6  5.968514-16.697508-28.627354
  6  5.931312-16.772346-27.160233
  6  6.857776-17.513155-26.428832
  6  6.815070-17.578825-25.034574
  6  5.839035-16.901014-24.330133
  6  5.824198-16.993254-22.849046
  8  6.637129-17.644035-22.226378
  7  4.805033-16.278088-22.186917
  6  4.768371-16.350556-20.742401
  6  5.334565-15.333328-19.981179
  6  5.304446-15.404910-18.595821
  6  4.695147-16.488400-17.939451
  6  4.652299-16.537491-16.477047
  6  4.650412-15.485739-15.583644
  6  4.603384-15.905387-14.236594
  6  4.565937-15.251232-12.870120
  6  4.510904-16.455202-11.951649
  6  4.458179-16.697753-10.556055
  6  4.421914-18.036681-10.268933
 16  4.452086-19.031279-11.706128
  6  4.514067-17.618521-12.699698
  6  4.568798-17.281242-14.100316
 16  4.603080-18.087300-15.626091
  6  4.130238-17.503172-18.729548
  6  4.170036-17.437540-20.115785
  6  3.819816-15.496018-22.823728
  8  2.976681-14.906663-22.180127
  6  3.878407-15.439836-24.305567
  6  2.936757-14.692523-24.986090
  6  2.963632-14.617799-26.380272
  6  3.927634-15.283256-27.135204
  6  3.964394-15.209270-28.602389
  6  3.038163-14.470002-29.336205
  6  3.082127-14.405197-30.730758
  6  4.060273-15.082634-31.433390
  6  4.081830-14.993847-32.914989
  8  3.255131-14.336585-33.521195
  6  5.020271-15.845267-30.733484
  6  4.984023-15.918009-29.308329
  6  4.912071-16.062882-26.452837
  6  4.876400-16.134785-25.026615
  1  6.279605-14.731686-36.666709
  1  7.268874-15.524065-35.427514
  1  6.519242-13.946616-35.103342
  1  4.266508-14.957292-35.297161
  1  5.675817-17.656651-35.579068
  1  4.723520-16.818452-36.817025
  1  3.931126-17.409597-35.353979
  1  7.715916-17.806198-31.350213
  1  7.690584-17.958379-28.897932
  1  7.639917-18.060162-26.936635
  1  7.543379-18.160071-24.483117
  1  5.808727-14.493624-20.474758
  1  5.778974-14.624416-18.013775
  1  4.651310-14.452787-15.906424
  1  3.691685-14.601753-12.749403
  1  5.452411-14.634022-12.685876
  1  4.446500-15.932324 -9.791018
  1  4.378867-18.514776 -9.302791
  1  3.635263-18.342016-18.254458
  1  3.727873-18.225894-20.712711
  1  2.180339-14.167931-24.415995
  1  2.206124-14.020957-26.868930
  1  2.254681-13.923246-28.830147
  1  2.353457-13.825099-31.282605
 nber atoms=          74
  SCF Done:  E(RB3LYP) =  -2822.34640484     A.U. after    1 cycles             
  
          23          40 "  -2822.34640484"
After scan for Atom:   Atom  AN      X      Y      Z        X      Y      Z        X      Y      Z   
After scan for Atom:   Atom  AN      X      Y      Z        X      Y      Z        X      Y      Z   
After scan for Atom:   Atom  AN      X      Y      Z        X      Y      Z        X      Y      Z   
After scan for Atom:   Atom  AN      X      Y      Z        X      Y      Z        X      Y      Z   
After scan for Atom:   Atom  AN      X      Y      Z        X      Y      Z        X      Y      Z   
After scan for Atom:   Atom  AN      X      Y      Z        X      Y      Z        X      Y      Z   
After scan for Atom:   Atom  AN      X      Y      Z        X      Y      Z        X      Y      Z   
After scan for Atom:   Atom  AN      X      Y      Z        X      Y      Z        X      Y      Z   
After scan for Atom:   Atom  AN      X      Y      Z        X      Y      Z        X      Y      Z   
After scan for Atom:   Atom  AN      X      Y      Z        X      Y      Z        X      Y      Z   
After scan for Atom:   Atom  AN      X      Y      Z        X      Y      Z        X      Y      Z   
After scan for Atom:   Atom  AN      X      Y      Z        X      Y      Z        X      Y      Z   
After scan for Atom:   Atom  AN      X      Y      Z        X      Y      Z        X      Y      Z   
After scan for Atom:   Atom  AN      X      Y      Z        X      Y      Z        X      Y      Z   
After scan for Atom:   Atom  AN      X      Y      Z        X      Y      Z        X      Y      Z   
After scan for Atom:   Atom  AN      X      Y      Z        X      Y      Z        X      Y      Z   
After scan for Atom:   Atom  AN      X      Y      Z        X      Y      Z        X      Y      Z   
After scan for Atom:   Atom  AN      X      Y      Z        X      Y      Z        X      Y      Z   
After scan for Atom:   Atom  AN      X      Y      Z        X      Y      Z        X      Y      Z   
After scan for Atom:   Atom  AN      X      Y      Z        X      Y      Z        X      Y      Z   
After scan for Atom:   Atom  AN      X      Y      Z        X      Y      Z        X      Y      Z   
After scan for Atom:   Atom  AN      X      Y      Z        X      Y      Z        X      Y      Z   
After scan for Atom:   Atom  AN      X      Y      Z        X      Y      Z        X      Y      Z   
After scan for Atom:   Atom  AN      X      Y      Z        X      Y      Z        X      Y      Z   
After scan for Atom:   Atom  AN      X      Y      Z        X      Y      Z        X      Y      Z   
After scan for Atom:   Atom  AN      X      Y      Z        X      Y      Z        X      Y      Z   
After scan for Atom:   Atom  AN      X      Y      Z        X      Y      Z        X      Y      Z   
After scan for Atom:   Atom  AN      X      Y      Z        X      Y      Z        X      Y      Z   
After scan for Atom:   Atom  AN      X      Y      Z        X      Y      Z        X      Y      Z   
After scan for Atom:   Atom  AN      X      Y      Z        X      Y      Z        X      Y      Z   
After scan for Atom:   Atom  AN      X      Y      Z        X      Y      Z        X      Y      Z   
After scan for Atom:   Atom  AN      X      Y      Z        X      Y      Z        X      Y      Z   
After scan for Atom:   Atom  AN      X      Y      Z        X      Y      Z        X      Y      Z   
After scan for Atom:   Atom  AN      X      Y      Z        X      Y      Z        X      Y      Z   
After scan for Atom:   Atom  AN      X      Y      Z        X      Y      Z        X      Y      Z   
After scan for Atom:   Atom  AN      X      Y      Z        X      Y      Z        X      Y      Z   
After scan for Atom:   Atom  AN      X      Y      Z        X      Y      Z        X      Y      Z   
After scan for Atom:   Atom  AN      X      Y      Z        X      Y      Z        X      Y      Z   
After scan for Atom:   Atom  AN      X      Y      Z        X      Y      Z        X      Y      Z   
After scan for Atom:   Atom  AN      X      Y      Z        X      Y      Z        X      Y      Z   
After scan for Atom:   Atom  AN      X      Y      Z        X      Y      Z        X      Y      Z   
After scan for Atom:   Atom  AN      X      Y      Z        X      Y      Z        X      Y      Z   
After scan for Atom:   Atom  AN      X      Y      Z        X      Y      Z        X      Y      Z   
After scan for Atom:   Atom  AN      X      Y      Z        X      Y      Z        X      Y      Z   
After scan for Atom:   Atom  AN      X      Y      Z        X      Y      Z        X      Y      Z   
After scan for Atom:   Atom  AN      X      Y      Z        X      Y      Z        X      Y      Z   
After scan for Atom:   Atom  AN      X      Y      Z        X      Y      Z        X      Y      Z   
After scan for Atom:   Atom  AN      X      Y      Z        X      Y      Z        X      Y      Z   
After scan for Atom:   Atom  AN      X      Y      Z        X      Y      Z        X      Y      Z   
After scan for Atom:   Atom  AN      X      Y      Z        X      Y      Z        X      Y      Z   
After scan for Atom:   Atom  AN      X      Y      Z        X      Y      Z        X      Y      Z   
After scan for Atom:   Atom  AN      X      Y      Z        X      Y      Z        X      Y      Z   
After scan for Atom:   Atom  AN      X      Y      Z        X      Y      Z        X      Y      Z   
After scan for Atom:   Atom  AN      X      Y      Z        X      Y      Z        X      Y      Z   
After scan for Atom:   Atom  AN      X      Y      Z        X      Y      Z        X      Y      Z   
After scan for Atom:   Atom  AN      X      Y      Z        X      Y      Z        X      Y      Z   
After scan for Atom:   Atom  AN      X      Y      Z        X      Y      Z        X      Y      Z   
After scan for Atom:   Atom  AN      X      Y      Z        X      Y      Z        X      Y      Z   
After scan for Atom:   Atom  AN      X      Y      Z        X      Y      Z        X      Y      Z   
After scan for Atom:   Atom  AN      X      Y      Z        X      Y      Z        X      Y      Z   
After scan for Atom:   Atom  AN      X      Y      Z        X      Y      Z        X      Y      Z   
After scan for Atom:   Atom  AN      X      Y      Z        X      Y      Z        X      Y      Z   
After scan for Atom:   Atom  AN      X      Y      Z        X      Y      Z        X      Y      Z   
After scan for Atom:   Atom  AN      X      Y      Z        X      Y      Z        X      Y      Z   
After scan for Atom:   Atom  AN      X      Y      Z        X      Y      Z        X      Y      Z   
After scan for Atom:   Atom  AN      X      Y      Z        X      Y      Z        X      Y      Z   
After scan for Atom:   Atom  AN      X      Y      Z        X      Y      Z        X      Y      Z   
After scan for Atom:   Atom  AN      X      Y      Z        X      Y      Z        X      Y      Z   
After scan for Atom:   Atom  AN      X      Y      Z        X      Y      Z        X      Y      Z   
After scan for Atom:   Atom  AN      X      Y      Z        X      Y      Z        X      Y      Z   
After scan for Atom:   Atom  AN      X      Y      Z        X      Y      Z        X      Y      Z   
After scan for Atom:   Atom  AN      X      Y      Z        X      Y      Z        X      Y      Z   
 g94    frequencies=
     0.0    0.0    0.0    0.0    0.0    0.0    5.5    8.9   11.7   22.1
    28.4   40.2   43.3   52.4   55.8   65.9   75.2   86.6   95.6   99.2
   104.7  121.6  134.1  143.9  163.5  174.6  182.0  188.5  203.6  206.5
   217.6  228.3  234.8  236.8  253.3  263.6  271.7  282.3  290.2  314.7
   329.5  341.0  355.1  358.9  381.3  391.5  395.2  419.7  431.1  435.8
   437.2  438.6  446.1  447.7  451.7  466.7  469.6  480.1  480.3  483.6
   498.6  512.1  518.7  533.8  534.9  551.6  561.3  570.6  577.7  585.0
   586.1  596.5  611.8  623.1  631.5  633.4  647.1  659.1  664.8  666.5
   697.0  697.6  711.8  713.9  716.9  725.8  742.3  746.1  750.7  763.1
   772.2  785.6  800.0  803.2  810.8  816.8  822.4  834.0  836.4  844.5
   855.0  858.3  864.7  865.3  869.9  871.9  877.3  912.2  923.1  927.9
   936.7  946.0  957.1  957.9  964.9  970.3  979.5  986.8  992.4  996.6
  1001.2 1001.8 1005.6 1028.9 1035.5 1063.4 1081.3 1100.8 1109.9 1133.9
  1149.2 1150.4 1156.1 1160.1 1165.6 1171.8 1175.8 1193.9 1200.4 1204.9
  1210.4 1212.3 1220.5 1221.3 1235.2 1240.6 1251.2 1260.3 1268.2 1269.0
  1309.3 1314.3 1316.0 1326.4 1333.0 1336.5 1355.6 1361.2 1368.6 1374.7
  1382.3 1385.0 1400.8 1403.7 1406.7 1417.1 1420.6 1428.8 1436.6 1438.1
  1446.2 1454.7 1458.2 1469.6 1476.9 1485.5 1491.3 1498.2 1505.5 1506.1
  1522.7 1527.2 1534.6 1542.7 1559.2 1560.5 1603.9 1608.2 1614.8 1619.8
  1631.4 1631.5 1648.2 1648.9 1713.1 1734.5 1751.0 1768.4 3027.7 3034.7
  3038.8 3055.3 3092.6 3095.7 3113.1 3133.2 3143.5 3175.6 3179.4 3193.4
  3193.6 3193.8 3195.5 3199.3 3200.9 3201.1 3201.2 3208.1 3208.4 3218.0
  3218.2 3246.2
 g94    symmetries=
                                                 A      A      A      A
       A      A      A      A      A      A      A      A      A      A
       A      A      A      A      A      A      A      A      A      A
       A      A      A      A      A      A      A      A      A      A
       A      A      A      A      A      A      A      A      A      A
       A      A      A      A      A      A      A      A      A      A
       A      A      A      A      A      A      A      A      A      A
       A      A      A      A      A      A      A      A      A      A
       A      A      A      A      A      A      A      A      A      A
       A      A      A      A      A      A      A      A      A      A
       A      A      A      A      A      A      A      A      A      A
       A      A      A      A      A      A      A      A      A      A
       A      A      A      A      A      A      A      A      A      A
       A      A      A      A      A      A      A      A      A      A
       A      A      A      A      A      A      A      A      A      A
       A      A      A      A      A      A      A      A      A      A
       A      A      A      A      A      A      A      A      A      A
       A      A      A      A      A      A      A      A      A      A
       A      A      A      A      A      A      A      A      A      A
       A      A      A      A      A      A      A      A      A      A
       A      A      A      A      A      A      A      A      A      A
       A      A      A      A      A      A      A      A      A      A
       A      A
 atomic masses:
 12.0000 12.0000 12.0000 14.0031 12.0000 15.9949 12.0000 12.0000 12.0000 12.0000
 12.0000 12.0000 12.0000 12.0000 12.0000 15.9949 14.0031 12.0000 12.0000 12.0000
 12.0000 12.0000 12.0000 12.0000 12.0000 12.0000 12.0000 12.0000 31.9721 12.0000
 12.0000 31.9721 12.0000 12.0000 12.0000 15.9949 12.0000 12.0000 12.0000 12.0000
 12.0000 12.0000 12.0000 12.0000 12.0000 15.9949 12.0000 12.0000 12.0000 12.0000
  1.0078  1.0078  1.0078  1.0078  1.0078  1.0078  1.0078  1.0078  1.0078  1.0078
  1.0078  1.0078  1.0078  1.0078  1.0078  1.0078  1.0078  1.0078  1.0078  1.0078
  1.0078  1.0078  1.0078  1.0078
 looking for force constants in 
 ./CDT-A_5_C0S0.fchk                                                            
  
 Cartesian Force Constants                  R   N=       24753                  
  
 n3=         222       24753
 g94-fc frequencies=
    -6.2   -1.3   -0.0    0.0    0.0    0.8    6.7    8.9   11.8   22.1
    28.4   40.2   43.3   52.4   55.8   65.9   75.2   86.6   95.6   99.2
   104.7  121.6  134.1  143.9  163.5  174.6  182.0  188.5  203.6  206.5
   217.6  228.3  234.8  236.8  253.3  263.6  271.7  282.3  290.2  314.7
   329.5  341.0  355.2  358.9  381.3  391.5  395.2  419.7  431.1  435.8
   437.2  438.6  446.1  447.7  451.7  466.7  469.6  480.1  480.3  483.6
   498.6  512.1  518.7  533.8  534.9  551.7  561.3  570.6  577.7  585.1
   586.2  596.6  611.8  623.1  631.5  633.4  647.1  659.1  664.8  666.6
   697.1  697.7  711.8  713.9  716.9  725.8  742.3  746.1  750.7  763.1
   772.2  785.6  800.0  803.2  810.9  816.8  822.4  834.0  836.4  844.5
   855.0  858.4  864.8  865.3  869.9  872.0  877.3  912.2  923.1  927.9
   936.7  946.0  957.2  958.0  964.9  970.4  979.5  986.9  992.5  996.6
  1001.2 1001.8 1005.6 1028.9 1035.5 1063.4 1081.3 1100.8 1109.9 1133.9
  1149.2 1150.4 1156.2 1160.1 1165.7 1171.8 1175.9 1194.0 1200.4 1204.9
  1210.4 1212.3 1220.5 1221.4 1235.2 1240.6 1251.2 1260.3 1268.2 1269.1
  1309.3 1314.4 1316.1 1326.5 1333.0 1336.5 1355.6 1361.2 1368.6 1374.8
  1382.3 1385.1 1400.8 1403.7 1406.8 1417.2 1420.6 1428.9 1436.6 1438.1
  1446.2 1454.8 1458.2 1469.7 1477.0 1485.5 1491.3 1498.2 1505.5 1506.1
  1522.8 1527.2 1534.6 1542.7 1559.2 1560.6 1604.0 1608.2 1614.9 1619.9
  1631.4 1631.5 1648.2 1649.0 1713.1 1734.5 1751.1 1768.4 3027.8 3034.8
  3038.9 3055.4 3092.6 3095.8 3113.2 3133.3 3143.6 3175.6 3179.5 3193.4
  3193.7 3193.9 3195.5 3199.3 3201.0 3201.1 3201.3 3208.2 3208.5 3218.1
  3218.3 3246.3
 at 99999: n3=         222
 symm operator            1 :  F  nop=           0
 symm operator            2 :  F  nop=           0
 symm operator            3 :  F  nop=           0
 symm operator            4 :  F  nop=           0
 symm operator            5 :  F  nop=           0
 symm operator            6 :  F  nop=           0
 symm operator            7 :  F  nop=           0
 The point group of the molecule is  C1
 Symmetry rotation matrix:
   1.00000   0.00000   0.00000
   0.00000   1.00000   0.00000
   0.00000   0.00000   1.00000

 Projecting out zero-frequency components
 generating redundant internal coords
         300        3600          74
 search for int coords
   1 str   2   1   1.532
   2 str   3   2   1.532
   3 str   4   2   1.498
   4 str   5   4   1.401
   5 str   6   5   1.219
   6 str   7   5   1.486
   7 str   8   7   1.382
   8 str   9   8   1.397
   9 str  10   9   1.394
  10 str  11  10   1.469
  11 str  12  11   1.394
  12 str  13  12   1.396
  13 str  14  13   1.381
  14 str  15  14   1.484
  15 str  16  15   1.213
  16 str  17  15   1.410
  17 str  18  17   1.447
  18 str  19  18   1.391
  19 str  20  19   1.388
  20 str  21  20   1.406
  21 str  22  21   1.464
  22 str  23  22   1.380
  23 str  24  23   1.412
  24 str  25  24   1.515
  25 str  26  25   1.515
  26 str  27  26   1.417
  27 str  28  27   1.370
  28 str  29  28   1.748
  29 str  30  26   1.383
  30 str  30  29   1.728
  31 str  31  24   1.383
  32 str  31  30   1.442
  33 str  32  22   1.769
  34 str  32  31   1.726
  35 str  33  21   1.405
  36 str  34  18   1.390
  37 str  34  33   1.388
  38 str  35  17   1.410
  39 str  36  35   1.213
  40 str  37  35   1.484
  41 str  38  37   1.381
  42 str  39  38   1.396
  43 str  40  39   1.394
  44 str  41  40   1.470
  45 str  42  41   1.394
  46 str  43  42   1.397
  47 str  44  43   1.382
  48 str  45   4   1.408
  49 str  45  44   1.484
  50 str  46  45   1.218
  51 str  47   7   1.412
  52 str  47  44   1.412
  53 str  48  10   1.428
  54 str  48  41   1.428
  55 str  48  47   1.427
  56 str  49  11   1.429
  57 str  49  40   1.429
  58 str  50  14   1.414
  59 str  50  37   1.414
  60 str  50  49   1.428
  61 str  51   1   1.093
  62 str  52   1   1.089
  63 str  53   1   1.093
  64 str  54   2   1.088
  65 str  55   3   1.089
  66 str  56   3   1.093
  67 str  57   3   1.093
  68 str  58   8   1.083
  69 str  59   9   1.081
  70 str  60  12   1.081
  71 str  61  13   1.083
  72 str  62  19   1.083
  73 str  63  20   1.083
  74 str  64  23   1.082
  75 str  65  25   1.096
  76 str  66  25   1.096
  77 str  67  27   1.082
  78 str  68  28   1.079
  79 str  69  33   1.084
  80 str  70  34   1.083
  81 str  71  38   1.083
  82 str  72  39   1.081
  83 str  73  42   1.081
  84 str  74  43   1.083
 nber stretches=          84
  85 ben   1   2   3
  86 prop tor   1   2   3  55
  87 prop tor   1   2   3  56
  88 prop tor   1   2   3  57
  89 ben   1   2   4
  90 prop tor   1   2   4   5
  91 prop tor   1   2   4  45
  92 ben   1   2  54
  93 ben   2   1  51
  94 ben   2   1  52
  95 ben   2   1  53
  96 ben   2   3  55
  97 ben   2   3  56
  98 ben   2   3  57
  99 ben   2   4   5
 100 prop tor   2   4   5   6
 101 prop tor   2   4   5   7
 102 ben   2   4  45
 103 prop tor   2   4  45  44
 104 prop tor   2   4  45  46
 105 ben   3   2   4
 106 prop tor   3   2   4   5
 107 prop tor   3   2   4  45
 108 ben   3   2  54
 109 prop tor   4   2   3  55
 110 prop tor   4   2   3  56
 111 prop tor   4   2   3  57
 112 ben   4   2  54
 113 ben   4   5   6
 114 ben   4   5   7
 115 prop tor   4   5   7   8
 116 prop tor   4   5   7  47
 117 ben   4  45  44
 118 ben   4  45  46
 119 ben   5   4  45
 120 prop tor   5   4  45  44
 121 prop tor   5   4  45  46
 122 ben   5   7   8
 123 prop tor   5   7   8   9
 124 prop tor   5   7   8  58
 125 ben   5   7  47
 126 prop tor   5   7  47  44
 127 prop tor   5   7  47  48
 128 ben   6   5   7
 129 prop tor   6   5   7   8
 130 prop tor   6   5   7  47
 131 ben   7   8   9
 132 prop tor   7   8   9  10
 133 prop tor   7   8   9  59
 134 ben   7   8  58
 135 ben   7  47  44
 136 ben   7  47  48
 137 prop tor   7  47  48  10
 138 prop tor   7  47  48  41
 139 ben   8   7  47
 140 prop tor   8   7  47  44
 141 prop tor   8   7  47  48
 142 ben   8   9  10
 143 prop tor   8   9  10  11
 144 prop tor   8   9  10  48
 145 ben   8   9  59
 146 ben   9   8  58
 147 ben   9  10  11
 148 prop tor   9  10  11  12
 149 prop tor   9  10  11  49
 150 ben   9  10  48
 151 prop tor   9  10  48  41
 152 prop tor   9  10  48  47
 153 ben  10   9  59
 154 ben  10  11  12
 155 prop tor  10  11  12  13
 156 prop tor  10  11  12  60
 157 ben  10  11  49
 158 prop tor  10  11  49  40
 159 prop tor  10  11  49  50
 160 ben  10  48  41
 161 ben  10  48  47
 162 ben  11  10  48
 163 prop tor  11  10  48  41
 164 prop tor  11  10  48  47
 165 ben  11  12  13
 166 prop tor  11  12  13  14
 167 prop tor  11  12  13  61
 168 ben  11  12  60
 169 ben  11  49  40
 170 ben  11  49  50
 171 prop tor  11  49  50  14
 172 prop tor  11  49  50  37
 173 ben  12  11  49
 174 prop tor  12  11  49  40
 175 prop tor  12  11  49  50
 176 ben  12  13  14
 177 prop tor  12  13  14  15
 178 prop tor  12  13  14  50
 179 ben  12  13  61
 180 ben  13  12  60
 181 ben  13  14  15
 182 prop tor  13  14  15  16
 183 prop tor  13  14  15  17
 184 ben  13  14  50
 185 prop tor  13  14  50  37
 186 prop tor  13  14  50  49
 187 ben  14  13  61
 188 ben  14  15  16
 189 ben  14  15  17
 190 prop tor  14  15  17  18
 191 prop tor  14  15  17  35
 192 ben  14  50  37
 193 ben  14  50  49
 194 ben  15  14  50
 195 prop tor  15  14  50  37
 196 prop tor  15  14  50  49
 197 ben  15  17  18
 198 prop tor  15  17  18  19
 199 prop tor  15  17  18  34
 200 ben  15  17  35
 201 prop tor  15  17  35  36
 202 prop tor  15  17  35  37
 203 ben  16  15  17
 204 prop tor  16  15  17  18
 205 prop tor  16  15  17  35
 206 ben  17  18  19
 207 prop tor  17  18  19  20
 208 prop tor  17  18  19  62
 209 ben  17  18  34
 210 prop tor  17  18  34  33
 211 prop tor  17  18  34  70
 212 ben  17  35  36
 213 ben  17  35  37
 214 prop tor  17  35  37  38
 215 prop tor  17  35  37  50
 216 ben  18  17  35
 217 prop tor  18  17  35  36
 218 prop tor  18  17  35  37
 219 ben  18  19  20
 220 prop tor  18  19  20  21
 221 prop tor  18  19  20  63
 222 ben  18  19  62
 223 ben  18  34  33
 224 ben  18  34  70
 225 ben  19  18  34
 226 prop tor  19  18  34  33
 227 prop tor  19  18  34  70
 228 ben  19  20  21
 229 prop tor  19  20  21  22
 230 prop tor  19  20  21  33
 231 ben  19  20  63
 232 ben  20  19  62
 233 ben  20  21  22
 234 prop tor  20  21  22  23
 235 prop tor  20  21  22  32
 236 ben  20  21  33
 237 prop tor  20  21  33  34
 238 prop tor  20  21  33  69
 239 ben  21  20  63
 240 ben  21  22  23
 241 prop tor  21  22  23  24
 242 prop tor  21  22  23  64
 243 ben  21  22  32
 244 prop tor  21  22  32  31
 245 ben  21  33  34
 246 prop tor  21  33  34  18
 247 prop tor  21  33  34  70
 248 ben  21  33  69
 249 ben  22  21  33
 250 prop tor  22  21  33  34
 251 prop tor  22  21  33  69
 252 ben  22  23  24
 253 prop tor  22  23  24  25
 254 prop tor  22  23  24  31
 255 ben  22  23  64
 256 ben  22  32  31
 257 ben  23  22  32
 258 prop tor  23  22  32  31
 259 ben  23  24  25
 260 prop tor  23  24  25  26
 261 prop tor  23  24  25  65
 262 prop tor  23  24  25  66
 263 ben  23  24  31
 264 prop tor  23  24  31  30
 265 prop tor  23  24  31  32
 266 ben  24  23  64
 267 ben  24  25  26
 268 prop tor  24  25  26  27
 269 prop tor  24  25  26  30
 270 ben  24  25  65
 271 ben  24  25  66
 272 ben  24  31  30
 273 ben  24  31  32
 274 prop tor  24  31  32  22
 275 ben  25  24  31
 276 prop tor  25  24  31  30
 277 prop tor  25  24  31  32
 278 ben  25  26  27
 279 prop tor  25  26  27  28
 280 prop tor  25  26  27  67
 281 ben  25  26  30
 282 prop tor  25  26  30  29
 283 prop tor  25  26  30  31
 284 ben  26  25  65
 285 ben  26  25  66
 286 ben  26  27  28
 287 prop tor  26  27  28  29
 288 prop tor  26  27  28  68
 289 ben  26  27  67
 290 ben  26  30  29
 291 ben  26  30  31
 292 prop tor  26  30  31  24
 293 prop tor  26  30  31  32
 294 ben  27  26  30
 295 prop tor  27  26  30  29
 296 prop tor  27  26  30  31
 297 ben  27  28  29
 298 prop tor  27  28  29  30
 299 ben  27  28  68
 300 ben  28  27  67
 301 ben  28  29  30
 302 prop tor  28  29  30  26
 303 prop tor  28  29  30  31
 304 ben  29  28  68
 305 ben  29  30  31
 306 prop tor  29  30  31  24
 307 prop tor  29  30  31  32
 308 prop tor  30  26  27  28
 309 prop tor  30  26  27  67
 310 ben  30  31  32
 311 prop tor  30  31  32  22
 312 prop tor  31  24  25  26
 313 prop tor  31  24  25  65
 314 prop tor  31  24  25  66
 315 prop tor  32  22  23  24
 316 prop tor  32  22  23  64
 317 prop tor  33  21  22  23
 318 prop tor  33  21  22  32
 319 ben  33  34  70
 320 prop tor  34  18  19  20
 321 prop tor  34  18  19  62
 322 ben  34  33  69
 323 prop tor  35  17  18  19
 324 prop tor  35  17  18  34
 325 ben  35  37  38
 326 prop tor  35  37  38  39
 327 prop tor  35  37  38  71
 328 ben  35  37  50
 329 prop tor  35  37  50  14
 330 prop tor  35  37  50  49
 331 ben  36  35  37
 332 prop tor  36  35  37  38
 333 prop tor  36  35  37  50
 334 ben  37  38  39
 335 prop tor  37  38  39  40
 336 prop tor  37  38  39  72
 337 ben  37  38  71
 338 ben  37  50  49
 339 ben  38  37  50
 340 prop tor  38  37  50  14
 341 prop tor  38  37  50  49
 342 ben  38  39  40
 343 prop tor  38  39  40  41
 344 prop tor  38  39  40  49
 345 ben  38  39  72
 346 ben  39  38  71
 347 ben  39  40  41
 348 prop tor  39  40  41  42
 349 prop tor  39  40  41  48
 350 ben  39  40  49
 351 prop tor  39  40  49  11
 352 prop tor  39  40  49  50
 353 ben  40  39  72
 354 ben  40  41  42
 355 prop tor  40  41  42  43
 356 prop tor  40  41  42  73
 357 ben  40  41  48
 358 prop tor  40  41  48  10
 359 prop tor  40  41  48  47
 360 ben  40  49  50
 361 prop tor  40  49  50  14
 362 prop tor  40  49  50  37
 363 ben  41  40  49
 364 prop tor  41  40  49  11
 365 prop tor  41  40  49  50
 366 ben  41  42  43
 367 prop tor  41  42  43  44
 368 prop tor  41  42  43  74
 369 ben  41  42  73
 370 ben  41  48  47
 371 ben  42  41  48
 372 prop tor  42  41  48  10
 373 prop tor  42  41  48  47
 374 ben  42  43  44
 375 prop tor  42  43  44  45
 376 prop tor  42  43  44  47
 377 ben  42  43  74
 378 ben  43  42  73
 379 ben  43  44  45
 380 prop tor  43  44  45   4
 381 prop tor  43  44  45  46
 382 ben  43  44  47
 383 prop tor  43  44  47   7
 384 prop tor  43  44  47  48
 385 ben  44  43  74
 386 ben  44  45  46
 387 ben  44  47  48
 388 prop tor  44  47  48  10
 389 prop tor  44  47  48  41
 390 prop tor  45   4   5   6
 391 prop tor  45   4   5   7
 392 ben  45  44  47
 393 prop tor  45  44  47   7
 394 prop tor  45  44  47  48
 395 prop tor  47   7   8   9
 396 prop tor  47   7   8  58
 397 prop tor  47  44  45   4
 398 prop tor  47  44  45  46
 399 prop tor  48  10  11  12
 400 prop tor  48  10  11  49
 401 prop tor  48  41  42  43
 402 prop tor  48  41  42  73
 403 prop tor  49  11  12  13
 404 prop tor  49  11  12  60
 405 prop tor  49  40  41  42
 406 prop tor  49  40  41  48
 407 prop tor  50  14  15  16
 408 prop tor  50  14  15  17
 409 prop tor  50  37  38  39
 410 prop tor  50  37  38  71
 411 prop tor  51   1   2   3
 412 prop tor  51   1   2   4
 413 prop tor  51   1   2  54
 414 ben  51   1  52
 415 ben  51   1  53
 416 prop tor  52   1   2   3
 417 prop tor  52   1   2   4
 418 prop tor  52   1   2  54
 419 ben  52   1  53
 420 prop tor  53   1   2   3
 421 prop tor  53   1   2   4
 422 prop tor  53   1   2  54
 423 prop tor  54   2   3  55
 424 prop tor  54   2   3  56
 425 prop tor  54   2   3  57
 426 prop tor  54   2   4   5
 427 prop tor  54   2   4  45
 428 ben  55   3  56
 429 ben  55   3  57
 430 ben  56   3  57
 431 prop tor  58   8   9  10
 432 prop tor  58   8   9  59
 433 prop tor  59   9  10  11
 434 prop tor  59   9  10  48
 435 prop tor  60  12  13  14
 436 prop tor  60  12  13  61
 437 prop tor  61  13  14  15
 438 prop tor  61  13  14  50
 439 prop tor  62  19  20  21
 440 prop tor  62  19  20  63
 441 prop tor  63  20  21  22
 442 prop tor  63  20  21  33
 443 prop tor  64  23  24  25
 444 prop tor  64  23  24  31
 445 prop tor  65  25  26  27
 446 prop tor  65  25  26  30
 447 ben  65  25  66
 448 prop tor  66  25  26  27
 449 prop tor  66  25  26  30
 450 prop tor  67  27  28  29
 451 prop tor  67  27  28  68
 452 prop tor  68  28  29  30
 453 prop tor  69  33  34  18
 454 prop tor  69  33  34  70
 455 prop tor  71  38  39  40
 456 prop tor  71  38  39  72
 457 prop tor  72  39  40  41
 458 prop tor  72  39  40  49
 459 prop tor  73  42  43  44
 460 prop tor  73  42  43  74
 461 prop tor  74  43  44  45
 462 prop tor  74  43  44  47
 nber bend=             146
 nber lin bend=           0
 nber prop tor=         232
 nber impr tor=           0
 nber tot redund int=         462
 Eigenvalues of G in red int coords
    Gval -0.00000000 -0.00000000 -0.00000000 -0.00000000 -0.00000000 -0.00000000 -0.00000000 -0.00000000
    Gval -0.00000000 -0.00000000 -0.00000000 -0.00000000 -0.00000000 -0.00000000 -0.00000000 -0.00000000
    Gval -0.00000000 -0.00000000 -0.00000000 -0.00000000 -0.00000000 -0.00000000 -0.00000000 -0.00000000
    Gval -0.00000000 -0.00000000 -0.00000000 -0.00000000 -0.00000000 -0.00000000 -0.00000000 -0.00000000
    Gval -0.00000000 -0.00000000 -0.00000000 -0.00000000 -0.00000000 -0.00000000 -0.00000000 -0.00000000
    Gval -0.00000000 -0.00000000 -0.00000000 -0.00000000 -0.00000000 -0.00000000 -0.00000000 -0.00000000
    Gval -0.00000000 -0.00000000 -0.00000000 -0.00000000 -0.00000000 -0.00000000 -0.00000000 -0.00000000
    Gval -0.00000000 -0.00000000 -0.00000000 -0.00000000 -0.00000000 -0.00000000 -0.00000000 -0.00000000
    Gval -0.00000000 -0.00000000 -0.00000000 -0.00000000 -0.00000000 -0.00000000 -0.00000000 -0.00000000
    Gval -0.00000000 -0.00000000 -0.00000000 -0.00000000 -0.00000000 -0.00000000 -0.00000000 -0.00000000
    Gval -0.00000000 -0.00000000 -0.00000000 -0.00000000 -0.00000000 -0.00000000 -0.00000000 -0.00000000
    Gval -0.00000000 -0.00000000 -0.00000000 -0.00000000 -0.00000000 -0.00000000 -0.00000000 -0.00000000
    Gval -0.00000000 -0.00000000 -0.00000000 -0.00000000 -0.00000000 -0.00000000 -0.00000000 -0.00000000
    Gval -0.00000000 -0.00000000 -0.00000000 -0.00000000 -0.00000000 -0.00000000 -0.00000000 -0.00000000
    Gval -0.00000000 -0.00000000 -0.00000000 -0.00000000 -0.00000000 -0.00000000 -0.00000000 -0.00000000
    Gval -0.00000000  0.00000000  0.00000000  0.00000000  0.00000000  0.00000000  0.00000000  0.00000000
    Gval  0.00000000  0.00000000  0.00000000  0.00000000  0.00000000  0.00000000  0.00000000  0.00000000
    Gval  0.00000000  0.00000000  0.00000000  0.00000000  0.00000000  0.00000000  0.00000000  0.00000000
    Gval  0.00000000  0.00000000  0.00000000  0.00000000  0.00000000  0.00000000  0.00000000  0.00000000
    Gval  0.00000000  0.00000000  0.00000000  0.00000000  0.00000000  0.00000000  0.00000000  0.00000000
    Gval  0.00000000  0.00000000  0.00000000  0.00000000  0.00000000  0.00000000  0.00000000  0.00000000
    Gval  0.00000000  0.00000000  0.00000000  0.00000000  0.00000000  0.00000000  0.00000000  0.00000000
    Gval  0.00000000  0.00000000  0.00000000  0.00000000  0.00000000  0.00000000  0.00000000  0.00000000
    Gval  0.00000000  0.00000000  0.00000000  0.00000000  0.00000000  0.00000000  0.00000000  0.00000000
    Gval  0.00000000  0.00000000  0.00000000  0.00000000  0.00000000  0.00000000  0.00000000  0.00000000
    Gval  0.00000000  0.00000000  0.00000000  0.00000000  0.00000000  0.00000000  0.00000000  0.00000000
    Gval  0.00000000  0.00000000  0.00000000  0.00000000  0.00000000  0.00000000  0.00000000  0.00000000
    Gval  0.00000000  0.00000000  0.00000000  0.00000000  0.00000000  0.00000000  0.00000000  0.00000000
    Gval  0.00000000  0.00000000  0.00000000  0.00000000  0.00000000  0.00000000  0.00000000  0.00000000
    Gval  0.00000000  0.00000000  0.00000000  0.00000000  0.00000000  0.00000000  0.00000000  0.00000000
    Gval  0.00000000  0.00000000  0.00000000  0.00000000  0.00000000  0.00000000  0.00000012  0.00000016
    Gval  0.00000076  0.00000112  0.00000156  0.00000289  0.00000327  0.00000346  0.00000479  0.00000641
    Gval  0.00000699  0.00000930  0.00001033  0.00001125  0.00001252  0.00001355  0.00001583  0.00001625
    Gval  0.00001670  0.00001786  0.00001830  0.00001919  0.00002174  0.00002314  0.00002374  0.00002411
    Gval  0.00002532  0.00002630  0.00002780  0.00002941  0.00003006  0.00003444  0.00003581  0.00003900
    Gval  0.00003993  0.00004413  0.00004591  0.00004897  0.00004920  0.00005092  0.00005245  0.00005356
    Gval  0.00005484  0.00005676  0.00005914  0.00006117  0.00006357  0.00006478  0.00006889  0.00007147
    Gval  0.00007364  0.00007821  0.00007962  0.00008142  0.00008253  0.00008588  0.00008844  0.00008859
    Gval  0.00009024  0.00009327  0.00009362  0.00009455  0.00009824  0.00010078  0.00011300  0.00011749
    Gval  0.00011822  0.00012168  0.00012271  0.00013409  0.00013613  0.00013701  0.00013756  0.00014057
    Gval  0.00014965  0.00015501  0.00015918  0.00016050  0.00016439  0.00017364  0.00018051  0.00018200
    Gval  0.00020320  0.00020752  0.00022241  0.00022364  0.00023011  0.00023150  0.00026409  0.00027215
    Gval  0.00028351  0.00028666  0.00029078  0.00029308  0.00029566  0.00030251  0.00030841  0.00033697
    Gval  0.00034246  0.00036064  0.00036918  0.00037341  0.00037921  0.00038138  0.00038309  0.00038983
    Gval  0.00039299  0.00039430  0.00040346  0.00042115  0.00042445  0.00042850  0.00042987  0.00043566
    Gval  0.00044153  0.00044309  0.00046098  0.00046216  0.00046604  0.00047432  0.00048112  0.00049285
    Gval  0.00053384  0.00053717  0.00054371  0.00055413  0.00055416  0.00055595  0.00055603  0.00057164
    Gval  0.00058331  0.00059676  0.00059864  0.00059869  0.00059944  0.00059970  0.00060002  0.00060037
    Gval  0.00060220  0.00060929  0.00062385  0.00062738  0.00062927  0.00063932  0.00064194  0.00064560
    Gval  0.00064615  0.00064810  0.00065058  0.00067098  0.00069425  0.00069788  0.00079559  0.00080553
    Gval  0.00082350  0.00094186  0.00099536  0.00107228  0.00108083  0.00108140  0.00109539  0.00109636
    Gval  0.00109709  0.00109761  0.00110940  0.00114120  0.00114391  0.00115077  0.00116248  0.00116258
    Gval  0.00116297  0.00116319  0.00116688  0.00117166  0.00117205  0.00117225  0.00118433  0.00120298
    Gval  0.00126216  0.00129520  0.00133659  0.00137424  0.00138184  0.00149540  0.00156081  0.00166025
    Gval  0.00172337  0.00175881  0.00178493  0.00191240  0.00195760  0.00208602  0.00229272  0.00234977
    Gval  0.00235468  0.00246714  0.00253517  0.00253645  0.00256407  0.00267224  0.00278640  0.00292299
    Gval  0.00302357  0.00302555  0.00304219  0.00308154  0.00309680  0.00362152  0.00365555  0.00365748
    Gval  0.00370416  0.00370585  0.00372620  0.00375354  0.00394292  0.00408011
  1.204183898601317E-007  1.204183898601317E-007
  1.587717924845909E-007  1.204183898601317E-007
  7.578243585516439E-007  1.204183898601317E-007
  1.122805333814116E-006  1.204183898601317E-007
  1.563143973636533E-006  1.204183898601317E-007
  2.894647743927105E-006  1.204183898601317E-007
  3.272801924423619E-006  1.204183898601317E-007
  3.456735074497825E-006  1.204183898601317E-007
  4.790012776506405E-006  1.204183898601317E-007
  6.412411701880951E-006  1.204183898601317E-007
  6.994910915409119E-006  1.204183898601317E-007
  9.303225539585491E-006  1.204183898601317E-007
  1.033379958395370E-005  1.204183898601317E-007
  1.124891961659469E-005  1.204183898601317E-007
  1.252341482383251E-005  1.204183898601317E-007
  1.354676115568399E-005  1.204183898601317E-007
  1.582696076843741E-005  1.204183898601317E-007
  1.625378946635309E-005  1.204183898601317E-007
  1.669616226478451E-005  1.204183898601317E-007
  1.786173292706700E-005  1.204183898601317E-007
  1.830366784914083E-005  1.204183898601317E-007
  1.919406700437704E-005  1.204183898601317E-007
  2.174209517723478E-005  1.204183898601317E-007
  2.313807551012255E-005  1.204183898601317E-007
  2.373682042008421E-005  1.204183898601317E-007
  2.411234134368705E-005  1.204183898601317E-007
  2.531769846943928E-005  1.204183898601317E-007
  2.629876471864737E-005  1.204183898601317E-007
  2.780028852608519E-005  1.204183898601317E-007
  2.940591718523586E-005  1.204183898601317E-007
  3.005586114717251E-005  1.204183898601317E-007
  3.444076172655607E-005  1.204183898601317E-007
  3.581031742720159E-005  1.204183898601317E-007
  3.899599206287161E-005  1.204183898601317E-007
  3.993496792554999E-005  1.204183898601317E-007
  4.413490795085447E-005  1.204183898601317E-007
  4.590918513612898E-005  1.204183898601317E-007
  4.896799520584395E-005  1.204183898601317E-007
  4.920021249447583E-005  1.204183898601317E-007
  5.091516840314767E-005  1.204183898601317E-007
  5.245042457807794E-005  1.204183898601317E-007
  5.355952095141582E-005  1.204183898601317E-007
  5.483746188344312E-005  1.204183898601317E-007
  5.676180670460156E-005  1.204183898601317E-007
  5.913916051395021E-005  1.204183898601317E-007
  6.117202045136329E-005  1.204183898601317E-007
  6.357304863284869E-005  1.204183898601317E-007
  6.477761344407331E-005  1.204183898601317E-007
  6.889080043787627E-005  1.204183898601317E-007
  7.147104293523475E-005  1.204183898601317E-007
  7.363627951543286E-005  1.204183898601317E-007
  7.821107085015822E-005  1.204183898601317E-007
  7.961566162249452E-005  1.204183898601317E-007
  8.141646169120455E-005  1.204183898601317E-007
  8.252986994701595E-005  1.204183898601317E-007
  8.587909356735740E-005  1.204183898601317E-007
  8.843962271738014E-005  1.204183898601317E-007
  8.858649405064344E-005  1.204183898601317E-007
  9.024330637604007E-005  1.204183898601317E-007
  9.327119280738382E-005  1.204183898601317E-007
  9.361729522043537E-005  1.204183898601317E-007
  9.455279342052740E-005  1.204183898601317E-007
  9.824330429848257E-005  1.204183898601317E-007
  1.007788421636682E-004  1.204183898601317E-007
  1.129997020698595E-004  1.204183898601317E-007
  1.174925576747195E-004  1.204183898601317E-007
  1.182150155114160E-004  1.204183898601317E-007
  1.216769889332549E-004  1.204183898601317E-007
  1.227055584847597E-004  1.204183898601317E-007
  1.340860574576990E-004  1.204183898601317E-007
  1.361329968510947E-004  1.204183898601317E-007
  1.370071050728822E-004  1.204183898601317E-007
  1.375551080193722E-004  1.204183898601317E-007
  1.405701703599527E-004  1.204183898601317E-007
  1.496504245560213E-004  1.204183898601317E-007
  1.550121392388679E-004  1.204183898601317E-007
  1.591772242092992E-004  1.204183898601317E-007
  1.605046909982752E-004  1.204183898601317E-007
  1.643942784946921E-004  1.204183898601317E-007
  1.736381913554472E-004  1.204183898601317E-007
  1.805124998841158E-004  1.204183898601317E-007
  1.820000864104805E-004  1.204183898601317E-007
  2.032047564420328E-004  1.204183898601317E-007
  2.075215095419565E-004  1.204183898601317E-007
  2.224132626529223E-004  1.204183898601317E-007
  2.236376429547880E-004  1.204183898601317E-007
  2.301109107892470E-004  1.204183898601317E-007
  2.315003869101360E-004  1.204183898601317E-007
  2.640944854578848E-004  1.204183898601317E-007
  2.721453367027487E-004  1.204183898601317E-007
  2.835065380596176E-004  1.204183898601317E-007
  2.866594319025420E-004  1.204183898601317E-007
  2.907787687197914E-004  1.204183898601317E-007
  2.930751534605123E-004  1.204183898601317E-007
  2.956553131822818E-004  1.204183898601317E-007
  3.025149474506067E-004  1.204183898601317E-007
  3.084081374414624E-004  1.204183898601317E-007
  3.369695213320835E-004  1.204183898601317E-007
  3.424637107708977E-004  1.204183898601317E-007
  3.606441570958385E-004  1.204183898601317E-007
  3.691834935487254E-004  1.204183898601317E-007
  3.734102656619031E-004  1.204183898601317E-007
  3.792098530428290E-004  1.204183898601317E-007
  3.813824075860659E-004  1.204183898601317E-007
  3.830894446079105E-004  1.204183898601317E-007
  3.898286992452874E-004  1.204183898601317E-007
  3.929949892029698E-004  1.204183898601317E-007
  3.943028344769416E-004  1.204183898601317E-007
  4.034557171858185E-004  1.204183898601317E-007
  4.211476967279002E-004  1.204183898601317E-007
  4.244497976045964E-004  1.204183898601317E-007
  4.284951539497883E-004  1.204183898601317E-007
  4.298685180089562E-004  1.204183898601317E-007
  4.356584433569901E-004  1.204183898601317E-007
  4.415325175462995E-004  1.204183898601317E-007
  4.430944234640779E-004  1.204183898601317E-007
  4.609826629175712E-004  1.204183898601317E-007
  4.621636600159824E-004  1.204183898601317E-007
  4.660432344872342E-004  1.204183898601317E-007
  4.743249558898099E-004  1.204183898601317E-007
  4.811161606914246E-004  1.204183898601317E-007
  4.928467745920039E-004  1.204183898601317E-007
  5.338442612575835E-004  1.204183898601317E-007
  5.371718571452191E-004  1.204183898601317E-007
  5.437063649287100E-004  1.204183898601317E-007
  5.541298336636957E-004  1.204183898601317E-007
  5.541619378880637E-004  1.204183898601317E-007
  5.559500666710506E-004  1.204183898601317E-007
  5.560294066894855E-004  1.204183898601317E-007
  5.716409979886558E-004  1.204183898601317E-007
  5.833088660829061E-004  1.204183898601317E-007
  5.967571119002688E-004  1.204183898601317E-007
  5.986398814238049E-004  1.204183898601317E-007
  5.986870087523068E-004  1.204183898601317E-007
  5.994399339578493E-004  1.204183898601317E-007
  5.996965272122652E-004  1.204183898601317E-007
  6.000187494444951E-004  1.204183898601317E-007
  6.003736588222591E-004  1.204183898601317E-007
  6.021966696377730E-004  1.204183898601317E-007
  6.092924172703782E-004  1.204183898601317E-007
  6.238458041896682E-004  1.204183898601317E-007
  6.273832857654619E-004  1.204183898601317E-007
  6.292742709844034E-004  1.204183898601317E-007
  6.393225702639480E-004  1.204183898601317E-007
  6.419426875428080E-004  1.204183898601317E-007
  6.456000130114300E-004  1.204183898601317E-007
  6.461468240529537E-004  1.204183898601317E-007
  6.481004964849824E-004  1.204183898601317E-007
  6.505834688727855E-004  1.204183898601317E-007
  6.709792687515536E-004  1.204183898601317E-007
  6.942474757536570E-004  1.204183898601317E-007
  6.978832831957941E-004  1.204183898601317E-007
  7.955927547476543E-004  1.204183898601317E-007
  8.055290539291009E-004  1.204183898601317E-007
  8.235027452853930E-004  1.204183898601317E-007
  9.418588458111325E-004  1.204183898601317E-007
  9.953578519989266E-004  1.204183898601317E-007
  1.072277475543342E-003  1.204183898601317E-007
  1.080833099426643E-003  1.204183898601317E-007
  1.081404463674751E-003  1.204183898601317E-007
  1.095389282991184E-003  1.204183898601317E-007
  1.096360729507242E-003  1.204183898601317E-007
  1.097087616581728E-003  1.204183898601317E-007
  1.097613872428887E-003  1.204183898601317E-007
  1.109400171260726E-003  1.204183898601317E-007
  1.141202002821861E-003  1.204183898601317E-007
  1.143914261587954E-003  1.204183898601317E-007
  1.150767153729750E-003  1.204183898601317E-007
  1.162478380594996E-003  1.204183898601317E-007
  1.162579661831259E-003  1.204183898601317E-007
  1.162974810020985E-003  1.204183898601317E-007
  1.163189528244106E-003  1.204183898601317E-007
  1.166875590299170E-003  1.204183898601317E-007
  1.171662531254087E-003  1.204183898601317E-007
  1.172048364022125E-003  1.204183898601317E-007
  1.172245230284820E-003  1.204183898601317E-007
  1.184327121847117E-003  1.204183898601317E-007
  1.202983334588388E-003  1.204183898601317E-007
  1.262156559667746E-003  1.204183898601317E-007
  1.295201295960468E-003  1.204183898601317E-007
  1.336591250025854E-003  1.204183898601317E-007
  1.374241484730628E-003  1.204183898601317E-007
  1.381841829889145E-003  1.204183898601317E-007
  1.495397924047526E-003  1.204183898601317E-007
  1.560814386925346E-003  1.204183898601317E-007
  1.660245957890109E-003  1.204183898601317E-007
  1.723371829305310E-003  1.204183898601317E-007
  1.758812811778831E-003  1.204183898601317E-007
  1.784930010335646E-003  1.204183898601317E-007
  1.912396563740671E-003  1.204183898601317E-007
  1.957597722327456E-003  1.204183898601317E-007
  2.086018095060054E-003  1.204183898601317E-007
  2.292724875507737E-003  1.204183898601317E-007
  2.349773946288042E-003  1.204183898601317E-007
  2.354676410694089E-003  1.204183898601317E-007
  2.467135863719334E-003  1.204183898601317E-007
  2.535171169277053E-003  1.204183898601317E-007
  2.536452457298248E-003  1.204183898601317E-007
  2.564072486809803E-003  1.204183898601317E-007
  2.672241739702166E-003  1.204183898601317E-007
  2.786401329558809E-003  1.204183898601317E-007
  2.922989440182342E-003  1.204183898601317E-007
  3.023573817375060E-003  1.204183898601317E-007
  3.025545467325176E-003  1.204183898601317E-007
  3.042194638906509E-003  1.204183898601317E-007
  3.081538639126820E-003  1.204183898601317E-007
  3.096796279232649E-003  1.204183898601317E-007
  3.621518502778441E-003  1.204183898601317E-007
  3.655553601813602E-003  1.204183898601317E-007
  3.657482128424993E-003  1.204183898601317E-007
  3.704155510783988E-003  1.204183898601317E-007
  3.705852505700308E-003  1.204183898601317E-007
  3.726200236234345E-003  1.204183898601317E-007
  3.753539671388014E-003  1.204183898601317E-007
  3.942921532003046E-003  1.204183898601317E-007
  4.080113437576400E-003  1.204183898601317E-007
 cut=1d-8, nber non-redundant internal coords=         216
 Check on Eigenvals of non-red overlap matrix:
  0.00000012  0.00000016  0.00000076  0.00000112  0.00000156  0.00000289  0.00000327  0.00000346
  0.00000479  0.00000641  0.00000699  0.00000930  0.00001033  0.00001125  0.00001252  0.00001355
  0.00001583  0.00001625  0.00001670  0.00001786  0.00001830  0.00001919  0.00002174  0.00002314
  0.00002374  0.00002411  0.00002532  0.00002630  0.00002780  0.00002941  0.00003006  0.00003444
  0.00003581  0.00003900  0.00003993  0.00004413  0.00004591  0.00004897  0.00004920  0.00005092
  0.00005245  0.00005356  0.00005484  0.00005676  0.00005914  0.00006117  0.00006357  0.00006478
  0.00006889  0.00007147  0.00007364  0.00007821  0.00007962  0.00008142  0.00008253  0.00008588
  0.00008844  0.00008859  0.00009024  0.00009327  0.00009362  0.00009455  0.00009824  0.00010078
  0.00011300  0.00011749  0.00011822  0.00012168  0.00012271  0.00013409  0.00013613  0.00013701
  0.00013756  0.00014057  0.00014965  0.00015501  0.00015918  0.00016050  0.00016439  0.00017364
  0.00018051  0.00018200  0.00020320  0.00020752  0.00022241  0.00022364  0.00023011  0.00023150
  0.00026409  0.00027215  0.00028351  0.00028666  0.00029078  0.00029308  0.00029566  0.00030251
  0.00030841  0.00033697  0.00034246  0.00036064  0.00036918  0.00037341  0.00037921  0.00038138
  0.00038309  0.00038983  0.00039299  0.00039430  0.00040346  0.00042115  0.00042445  0.00042850
  0.00042987  0.00043566  0.00044153  0.00044309  0.00046098  0.00046216  0.00046604  0.00047432
  0.00048112  0.00049285  0.00053384  0.00053717  0.00054371  0.00055413  0.00055416  0.00055595
  0.00055603  0.00057164  0.00058331  0.00059676  0.00059864  0.00059869  0.00059944  0.00059970
  0.00060002  0.00060037  0.00060220  0.00060929  0.00062385  0.00062738  0.00062927  0.00063932
  0.00064194  0.00064560  0.00064615  0.00064810  0.00065058  0.00067098  0.00069425  0.00069788
  0.00079559  0.00080553  0.00082350  0.00094186  0.00099536  0.00107228  0.00108083  0.00108140
  0.00109539  0.00109636  0.00109709  0.00109761  0.00110940  0.00114120  0.00114391  0.00115077
  0.00116248  0.00116258  0.00116297  0.00116319  0.00116688  0.00117166  0.00117205  0.00117225
  0.00118433  0.00120298  0.00126216  0.00129520  0.00133659  0.00137424  0.00138184  0.00149540
  0.00156081  0.00166025  0.00172337  0.00175881  0.00178493  0.00191240  0.00195760  0.00208602
  0.00229272  0.00234977  0.00235468  0.00246714  0.00253517  0.00253645  0.00256407  0.00267224
  0.00278640  0.00292299  0.00302357  0.00302555  0.00304219  0.00308154  0.00309680  0.00362152
  0.00365555  0.00365748  0.00370416  0.00370585  0.00372620  0.00375354  0.00394292  0.00408011
 Checking for correct frequencies
 recalc frequencies=
    -0.0   -0.0    0.0    0.0    0.0    0.0    5.5    8.9   11.7   22.1
    28.4   40.2   43.3   52.4   55.8   65.9   75.2   86.6   95.6   99.2
   104.7  121.6  134.1  143.9  163.5  174.6  182.0  188.5  203.6  206.5
   217.6  228.3  234.8  236.8  253.3  263.6  271.7  282.3  290.2  314.7
   329.5  341.0  355.2  358.9  381.3  391.5  395.2  419.7  431.1  435.8
   437.2  438.6  446.1  447.7  451.7  466.7  469.6  480.1  480.3  483.6
   498.6  512.1  518.7  533.8  534.9  551.7  561.3  570.6  577.7  585.1
   586.2  596.6  611.8  623.1  631.5  633.4  647.1  659.1  664.8  666.6
   697.1  697.7  711.8  713.9  716.9  725.8  742.3  746.1  750.7  763.1
   772.2  785.6  800.0  803.2  810.9  816.8  822.4  834.0  836.4  844.5
   855.0  858.4  864.8  865.3  869.9  872.0  877.3  912.2  923.1  927.9
   936.7  946.0  957.2  958.0  964.9  970.4  979.5  986.9  992.5  996.6
  1001.2 1001.8 1005.6 1028.9 1035.5 1063.4 1081.3 1100.8 1109.9 1133.9
  1149.2 1150.4 1156.2 1160.1 1165.7 1171.8 1175.9 1194.0 1200.4 1204.9
  1210.4 1212.3 1220.5 1221.4 1235.2 1240.6 1251.2 1260.3 1268.2 1269.1
  1309.3 1314.4 1316.1 1326.5 1333.0 1336.5 1355.6 1361.2 1368.6 1374.8
  1382.3 1385.1 1400.8 1403.7 1406.8 1417.2 1420.6 1428.9 1436.6 1438.1
  1446.2 1454.8 1458.2 1469.7 1477.0 1485.5 1491.3 1498.2 1505.5 1506.1
  1522.8 1527.2 1534.6 1542.7 1559.2 1560.6 1604.0 1608.2 1614.9 1619.9
  1631.4 1631.5 1648.2 1649.0 1713.1 1734.5 1751.1 1768.4 3027.8 3034.8
  3038.9 3055.4 3092.6 3095.8 3113.2 3133.3 3143.6 3175.6 3179.5 3193.4
  3193.7 3193.9 3195.5 3199.3 3201.0 3201.1 3201.3 3208.2 3208.5 3218.1
  3218.3 3246.3
 recalc symmetries=
                                                                       
                                                                       
                                                                       
                                                                       
                                                                       
                                                                       
                                                                       
                                                                       
                                                                       
                                                                       
                                                                       
                                                                       
                                                                       
                                                                       
                                                                       
                                                                       
                                                                       
                                                                       
                                                                       
                                                                       
                                                                       
                                                                       
               
 recalc freqs check OK
 Zero-point lengths:
 10.0000 10.0000 10.0000 10.0000 10.0000 10.0000105.3459 83.0702 72.3356 52.7780
 46.5287 39.1229 37.6675 34.2568 33.2004 30.5430 28.5833 26.6445 25.3502 24.8969
 24.2266 22.4779 21.4061 20.6667 19.3856 18.7605 18.3761 18.0556 17.3743 17.2537
 16.8059 16.4065 16.1794 16.1087 15.5774 15.2693 15.0405 14.7540 14.5533 13.9753
 13.6571 13.4254 13.1549 13.0855 12.6953 12.5300 12.4707 12.1005 11.9402 11.8749
 11.8570 11.8377 11.7375 11.7160 11.6649 11.4751 11.4405 11.3142 11.3122 11.2738
 11.1027 10.9550 10.8856 10.7302 10.7189 10.5551 10.4641 10.3782 10.3143 10.2494
 10.2397 10.1501 10.0225  9.9315  9.8654  9.8506  9.7457  9.6565  9.6148  9.6023
  9.3899  9.3858  9.2920  9.2785  9.2589  9.2020  9.0991  9.0761  9.0483  8.9745
  8.9212  8.8448  8.7648  8.7476  8.7060  8.6742  8.6447  8.5845  8.5720  8.5310
  8.4784  8.4618  8.4304  8.4279  8.4053  8.3955  8.3699  8.2083  8.1596  8.1383
  8.1001  8.0604  8.0131  8.0098  7.9810  7.9585  7.9211  7.8916  7.8694  7.8529
  7.8349  7.8325  7.8176  7.7286  7.7040  7.6024  7.5390  7.4719  7.4414  7.3623
  7.3130  7.3092  7.2910  7.2785  7.2612  7.2420  7.2296  7.1746  7.1554  7.1420
  7.1257  7.1201  7.0961  7.0937  7.0537  7.0384  7.0086  6.9833  6.9614  6.9591
  6.8513  6.8382  6.8337  6.8069  6.7902  6.7812  6.7332  6.7193  6.7013  6.6863
  6.6680  6.6613  6.6238  6.6170  6.6097  6.5854  6.5775  6.5584  6.5407  6.5373
  6.5189  6.4998  6.4921  6.4668  6.4508  6.4322  6.4196  6.4049  6.3893  6.3881
  6.3530  6.3437  6.3284  6.3118  6.2783  6.2756  6.1901  6.1819  6.1692  6.1597
  6.1378  6.1376  6.1065  6.1051  5.9897  5.9526  5.9244  5.8953  4.5054  4.5002
  4.4972  4.4850  4.4579  4.4556  4.4432  4.4289  4.4216  4.3993  4.3966  4.3870
  4.3868  4.3867  4.3856  4.3829  4.3818  4.3817  4.3816  4.3769  4.3767  4.3701
  4.3700  4.3511
 highest evec of mol 1
 -0.0000 -0.0000  0.0000
  0.0000 -0.0000  0.0000
 -0.0000 -0.0000  0.0000
  0.0000 -0.0000 -0.0000
 -0.0000  0.0000  0.0000
  0.0000 -0.0000 -0.0000
 -0.0000  0.0000 -0.0000
  0.0000 -0.0000  0.0000
 -0.0000  0.0000 -0.0000
  0.0000  0.0000  0.0000
  0.0000 -0.0000  0.0000
 -0.0000  0.0000  0.0000
 -0.0000  0.0000 -0.0000
  0.0000 -0.0000 -0.0000
 -0.0000  0.0000  0.0000
  0.0000 -0.0000 -0.0000
  0.0000 -0.0000 -0.0000
 -0.0000 -0.0000  0.0000
 -0.0001 -0.0001  0.0001
 -0.0000 -0.0000 -0.0001
 -0.0000 -0.0000  0.0001
  0.0000  0.0001 -0.0001
 -0.0000 -0.0002  0.0000
 -0.0000 -0.0003  0.0002
 -0.0000  0.0000  0.0002
  0.0002 -0.0002 -0.0067
 -0.0002  0.0573  0.0379
 -0.0116 -0.1400  0.2531
  0.0000 -0.0016 -0.0014
  0.0001  0.0020 -0.0029
  0.0000  0.0004 -0.0001
 -0.0000  0.0000  0.0001
  0.0000  0.0001 -0.0001
  0.0001  0.0001  0.0001
  0.0000 -0.0000  0.0000
 -0.0000  0.0000 -0.0000
 -0.0000  0.0000 -0.0000
  0.0000 -0.0000 -0.0000
  0.0000 -0.0000  0.0000
 -0.0000  0.0000  0.0000
 -0.0000  0.0000  0.0000
 -0.0000  0.0000 -0.0000
  0.0000 -0.0000  0.0000
  0.0000 -0.0000 -0.0000
  0.0000 -0.0000  0.0000
 -0.0000  0.0000 -0.0000
  0.0000  0.0000 -0.0000
 -0.0000 -0.0000 -0.0000
  0.0000  0.0000 -0.0000
 -0.0000  0.0000 -0.0000
 -0.0000  0.0000 -0.0000
  0.0000 -0.0000  0.0000
 -0.0000  0.0000  0.0000
 -0.0000  0.0000 -0.0000
  0.0000 -0.0000  0.0000
 -0.0000  0.0000 -0.0000
  0.0000  0.0000 -0.0000
 -0.0000  0.0000  0.0000
  0.0000 -0.0000  0.0000
  0.0001 -0.0001 -0.0001
  0.0000 -0.0000  0.0000
  0.0002  0.0003 -0.0002
  0.0001  0.0001  0.0001
  0.0000  0.0006 -0.0002
  0.0001 -0.0002  0.0002
 -0.0001 -0.0002  0.0002
  0.0019 -0.1303 -0.1263
  0.0374  0.4184 -0.8379
 -0.0001 -0.0002  0.0001
 -0.0002 -0.0003 -0.0002
 -0.0000  0.0000  0.0000
 -0.0000  0.0000 -0.0000
  0.0000 -0.0000 -0.0000
 -0.0000  0.0000 -0.0000
 generating redundant internal coords
         300        3600          74
 Adding extra bonds for z output only
           6           6           6           7           6           8
           6           6           6           6           6           6
           6           6           6           8           7           6
           6           6           6           6           6           6
           6           6           6           6          16           6
           6          16           6           6           6           8
           6           6           6           6           6           6
           6           6           6           8           6           6
           6           6           1           1           1           1
           1           1           1           1           1           1
           1           1           1           1           1           1
           1           1           1           1           1           1
           1           1
 search for int coords
   1 str   2   1   1.532
   2 str   3   2   1.532
   3 str   4   2   1.498
   4 str   5   4   1.401
   5 str   6   5   1.219
   6 str   7   5   1.486
   7 str   8   7   1.382
   8 str   9   8   1.397
   9 str  10   9   1.394
  10 str  11  10   1.469
  11 str  12  11   1.394
  12 str  13  12   1.396
  13 str  14  13   1.381
  14 str  15  14   1.484
  15 str  16  15   1.213
  16 str  17  15   1.410
  17 str  18  17   1.447
  18 str  19  18   1.391
  19 str  20  19   1.388
  20 str  21  20   1.406
  21 str  22  21   1.464
  22 str  23  22   1.380
  23 str  24  23   1.412
  24 str  25  24   1.515
  25 str  26  25   1.515
  26 str  27  26   1.417
  27 str  28  27   1.370
  28 str  29  28   1.748
  29 str  30  26   1.383
  30 str  30  29   1.728
  31 str  31  24   1.383
  32 str  31  30   1.442
  33 str  32  22   1.769
  34 str  32  31   1.726
  35 str  33  21   1.405
  36 str  34  18   1.390
  37 str  34  33   1.388
  38 str  35  17   1.410
  39 str  36  35   1.213
  40 str  37  35   1.484
  41 str  38  37   1.381
  42 str  39  38   1.396
  43 str  40  39   1.394
  44 str  41  40   1.470
  45 str  42  41   1.394
  46 str  43  42   1.397
  47 str  44  43   1.382
  48 str  45   4   1.408
  49 str  45  44   1.484
  50 str  46  45   1.218
  51 str  47   7   1.412
  52 str  47  44   1.412
  53 str  48  10   1.428
  54 str  48  41   1.428
  55 str  48  47   1.427
  56 str  49  11   1.429
  57 str  49  40   1.429
  58 str  50  14   1.414
  59 str  50  37   1.414
  60 str  50  49   1.428
  61 str  51   1   1.093
  62 str  52   1   1.089
  63 str  53   1   1.093
  64 str  54   2   1.088
  65 str  55   3   1.089
  66 str  56   3   1.093
  67 str  57   3   1.093
  68 str  58   8   1.083
  69 str  59   9   1.081
  70 str  60  12   1.081
  71 str  61  13   1.083
  72 str  62  19   1.083
  73 str  63  20   1.083
  74 str  64  23   1.082
  75 str  65  25   1.096
  76 str  66  25   1.096
  77 str  67  27   1.082
  78 str  68  28   1.079
  79 str  69  33   1.084
  80 str  70  34   1.083
  81 str  71  38   1.083
  82 str  72  39   1.081
  83 str  73  42   1.081
  84 str  74  43   1.083
 nber stretches=          84
  85 ben   1   2   3
  86 prop tor   1   2   3  55
  87 prop tor   1   2   3  56
  88 prop tor   1   2   3  57
  89 ben   1   2   4
  90 prop tor   1   2   4   5
  91 prop tor   1   2   4  45
  92 ben   1   2  54
  93 ben   2   1  51
  94 ben   2   1  52
  95 ben   2   1  53
  96 ben   2   3  55
  97 ben   2   3  56
  98 ben   2   3  57
  99 ben   2   4   5
 100 prop tor   2   4   5   6
 101 prop tor   2   4   5   7
 102 ben   2   4  45
 103 prop tor   2   4  45  44
 104 prop tor   2   4  45  46
 105 ben   3   2   4
 106 prop tor   3   2   4   5
 107 prop tor   3   2   4  45
 108 ben   3   2  54
 109 prop tor   4   2   3  55
 110 prop tor   4   2   3  56
 111 prop tor   4   2   3  57
 112 ben   4   2  54
 113 ben   4   5   6
 114 ben   4   5   7
 115 prop tor   4   5   7   8
 116 prop tor   4   5   7  47
 117 ben   4  45  44
 118 ben   4  45  46
 119 ben   5   4  45
 120 prop tor   5   4  45  44
 121 prop tor   5   4  45  46
 122 ben   5   7   8
 123 prop tor   5   7   8   9
 124 prop tor   5   7   8  58
 125 ben   5   7  47
 126 prop tor   5   7  47  44
 127 prop tor   5   7  47  48
 128 ben   6   5   7
 129 prop tor   6   5   7   8
 130 prop tor   6   5   7  47
 131 ben   7   8   9
 132 prop tor   7   8   9  10
 133 prop tor   7   8   9  59
 134 ben   7   8  58
 135 ben   7  47  44
 136 ben   7  47  48
 137 prop tor   7  47  48  10
 138 prop tor   7  47  48  41
 139 ben   8   7  47
 140 prop tor   8   7  47  44
 141 prop tor   8   7  47  48
 142 ben   8   9  10
 143 prop tor   8   9  10  11
 144 prop tor   8   9  10  48
 145 ben   8   9  59
 146 ben   9   8  58
 147 ben   9  10  11
 148 prop tor   9  10  11  12
 149 prop tor   9  10  11  49
 150 ben   9  10  48
 151 prop tor   9  10  48  41
 152 prop tor   9  10  48  47
 153 ben  10   9  59
 154 ben  10  11  12
 155 prop tor  10  11  12  13
 156 prop tor  10  11  12  60
 157 ben  10  11  49
 158 prop tor  10  11  49  40
 159 prop tor  10  11  49  50
 160 ben  10  48  41
 161 ben  10  48  47
 162 ben  11  10  48
 163 prop tor  11  10  48  41
 164 prop tor  11  10  48  47
 165 ben  11  12  13
 166 prop tor  11  12  13  14
 167 prop tor  11  12  13  61
 168 ben  11  12  60
 169 ben  11  49  40
 170 ben  11  49  50
 171 prop tor  11  49  50  14
 172 prop tor  11  49  50  37
 173 ben  12  11  49
 174 prop tor  12  11  49  40
 175 prop tor  12  11  49  50
 176 ben  12  13  14
 177 prop tor  12  13  14  15
 178 prop tor  12  13  14  50
 179 ben  12  13  61
 180 ben  13  12  60
 181 ben  13  14  15
 182 prop tor  13  14  15  16
 183 prop tor  13  14  15  17
 184 ben  13  14  50
 185 prop tor  13  14  50  37
 186 prop tor  13  14  50  49
 187 ben  14  13  61
 188 ben  14  15  16
 189 ben  14  15  17
 190 prop tor  14  15  17  18
 191 prop tor  14  15  17  35
 192 ben  14  50  37
 193 ben  14  50  49
 194 ben  15  14  50
 195 prop tor  15  14  50  37
 196 prop tor  15  14  50  49
 197 ben  15  17  18
 198 prop tor  15  17  18  19
 199 prop tor  15  17  18  34
 200 ben  15  17  35
 201 prop tor  15  17  35  36
 202 prop tor  15  17  35  37
 203 ben  16  15  17
 204 prop tor  16  15  17  18
 205 prop tor  16  15  17  35
 206 ben  17  18  19
 207 prop tor  17  18  19  20
 208 prop tor  17  18  19  62
 209 ben  17  18  34
 210 prop tor  17  18  34  33
 211 prop tor  17  18  34  70
 212 ben  17  35  36
 213 ben  17  35  37
 214 prop tor  17  35  37  38
 215 prop tor  17  35  37  50
 216 ben  18  17  35
 217 prop tor  18  17  35  36
 218 prop tor  18  17  35  37
 219 ben  18  19  20
 220 prop tor  18  19  20  21
 221 prop tor  18  19  20  63
 222 ben  18  19  62
 223 ben  18  34  33
 224 ben  18  34  70
 225 ben  19  18  34
 226 prop tor  19  18  34  33
 227 prop tor  19  18  34  70
 228 ben  19  20  21
 229 prop tor  19  20  21  22
 230 prop tor  19  20  21  33
 231 ben  19  20  63
 232 ben  20  19  62
 233 ben  20  21  22
 234 prop tor  20  21  22  23
 235 prop tor  20  21  22  32
 236 ben  20  21  33
 237 prop tor  20  21  33  34
 238 prop tor  20  21  33  69
 239 ben  21  20  63
 240 ben  21  22  23
 241 prop tor  21  22  23  24
 242 prop tor  21  22  23  64
 243 ben  21  22  32
 244 prop tor  21  22  32  31
 245 ben  21  33  34
 246 prop tor  21  33  34  18
 247 prop tor  21  33  34  70
 248 ben  21  33  69
 249 ben  22  21  33
 250 prop tor  22  21  33  34
 251 prop tor  22  21  33  69
 252 ben  22  23  24
 253 prop tor  22  23  24  25
 254 prop tor  22  23  24  31
 255 ben  22  23  64
 256 ben  22  32  31
 257 ben  23  22  32
 258 prop tor  23  22  32  31
 259 ben  23  24  25
 260 prop tor  23  24  25  26
 261 prop tor  23  24  25  65
 262 prop tor  23  24  25  66
 263 ben  23  24  31
 264 prop tor  23  24  31  30
 265 prop tor  23  24  31  32
 266 ben  24  23  64
 267 ben  24  25  26
 268 prop tor  24  25  26  27
 269 prop tor  24  25  26  30
 270 ben  24  25  65
 271 ben  24  25  66
 272 ben  24  31  30
 273 ben  24  31  32
 274 prop tor  24  31  32  22
 275 ben  25  24  31
 276 prop tor  25  24  31  30
 277 prop tor  25  24  31  32
 278 ben  25  26  27
 279 prop tor  25  26  27  28
 280 prop tor  25  26  27  67
 281 ben  25  26  30
 282 prop tor  25  26  30  29
 283 prop tor  25  26  30  31
 284 ben  26  25  65
 285 ben  26  25  66
 286 ben  26  27  28
 287 prop tor  26  27  28  29
 288 prop tor  26  27  28  68
 289 ben  26  27  67
 290 ben  26  30  29
 291 ben  26  30  31
 292 prop tor  26  30  31  24
 293 prop tor  26  30  31  32
 294 ben  27  26  30
 295 prop tor  27  26  30  29
 296 prop tor  27  26  30  31
 297 ben  27  28  29
 298 prop tor  27  28  29  30
 299 ben  27  28  68
 300 ben  28  27  67
 301 ben  28  29  30
 302 prop tor  28  29  30  26
 303 prop tor  28  29  30  31
 304 ben  29  28  68
 305 ben  29  30  31
 306 prop tor  29  30  31  24
 307 prop tor  29  30  31  32
 308 prop tor  30  26  27  28
 309 prop tor  30  26  27  67
 310 ben  30  31  32
 311 prop tor  30  31  32  22
 312 prop tor  31  24  25  26
 313 prop tor  31  24  25  65
 314 prop tor  31  24  25  66
 315 prop tor  32  22  23  24
 316 prop tor  32  22  23  64
 317 prop tor  33  21  22  23
 318 prop tor  33  21  22  32
 319 ben  33  34  70
 320 prop tor  34  18  19  20
 321 prop tor  34  18  19  62
 322 ben  34  33  69
 323 prop tor  35  17  18  19
 324 prop tor  35  17  18  34
 325 ben  35  37  38
 326 prop tor  35  37  38  39
 327 prop tor  35  37  38  71
 328 ben  35  37  50
 329 prop tor  35  37  50  14
 330 prop tor  35  37  50  49
 331 ben  36  35  37
 332 prop tor  36  35  37  38
 333 prop tor  36  35  37  50
 334 ben  37  38  39
 335 prop tor  37  38  39  40
 336 prop tor  37  38  39  72
 337 ben  37  38  71
 338 ben  37  50  49
 339 ben  38  37  50
 340 prop tor  38  37  50  14
 341 prop tor  38  37  50  49
 342 ben  38  39  40
 343 prop tor  38  39  40  41
 344 prop tor  38  39  40  49
 345 ben  38  39  72
 346 ben  39  38  71
 347 ben  39  40  41
 348 prop tor  39  40  41  42
 349 prop tor  39  40  41  48
 350 ben  39  40  49
 351 prop tor  39  40  49  11
 352 prop tor  39  40  49  50
 353 ben  40  39  72
 354 ben  40  41  42
 355 prop tor  40  41  42  43
 356 prop tor  40  41  42  73
 357 ben  40  41  48
 358 prop tor  40  41  48  10
 359 prop tor  40  41  48  47
 360 ben  40  49  50
 361 prop tor  40  49  50  14
 362 prop tor  40  49  50  37
 363 ben  41  40  49
 364 prop tor  41  40  49  11
 365 prop tor  41  40  49  50
 366 ben  41  42  43
 367 prop tor  41  42  43  44
 368 prop tor  41  42  43  74
 369 ben  41  42  73
 370 ben  41  48  47
 371 ben  42  41  48
 372 prop tor  42  41  48  10
 373 prop tor  42  41  48  47
 374 ben  42  43  44
 375 prop tor  42  43  44  45
 376 prop tor  42  43  44  47
 377 ben  42  43  74
 378 ben  43  42  73
 379 ben  43  44  45
 380 prop tor  43  44  45   4
 381 prop tor  43  44  45  46
 382 ben  43  44  47
 383 prop tor  43  44  47   7
 384 prop tor  43  44  47  48
 385 ben  44  43  74
 386 ben  44  45  46
 387 ben  44  47  48
 388 prop tor  44  47  48  10
 389 prop tor  44  47  48  41
 390 prop tor  45   4   5   6
 391 prop tor  45   4   5   7
 392 ben  45  44  47
 393 prop tor  45  44  47   7
 394 prop tor  45  44  47  48
 395 prop tor  47   7   8   9
 396 prop tor  47   7   8  58
 397 prop tor  47  44  45   4
 398 prop tor  47  44  45  46
 399 prop tor  48  10  11  12
 400 prop tor  48  10  11  49
 401 prop tor  48  41  42  43
 402 prop tor  48  41  42  73
 403 prop tor  49  11  12  13
 404 prop tor  49  11  12  60
 405 prop tor  49  40  41  42
 406 prop tor  49  40  41  48
 407 prop tor  50  14  15  16
 408 prop tor  50  14  15  17
 409 prop tor  50  37  38  39
 410 prop tor  50  37  38  71
 411 prop tor  51   1   2   3
 412 prop tor  51   1   2   4
 413 prop tor  51   1   2  54
 414 ben  51   1  52
 415 ben  51   1  53
 416 prop tor  52   1   2   3
 417 prop tor  52   1   2   4
 418 prop tor  52   1   2  54
 419 ben  52   1  53
 420 prop tor  53   1   2   3
 421 prop tor  53   1   2   4
 422 prop tor  53   1   2  54
 423 prop tor  54   2   3  55
 424 prop tor  54   2   3  56
 425 prop tor  54   2   3  57
 426 prop tor  54   2   4   5
 427 prop tor  54   2   4  45
 428 ben  55   3  56
 429 ben  55   3  57
 430 ben  56   3  57
 431 prop tor  58   8   9  10
 432 prop tor  58   8   9  59
 433 prop tor  59   9  10  11
 434 prop tor  59   9  10  48
 435 prop tor  60  12  13  14
 436 prop tor  60  12  13  61
 437 prop tor  61  13  14  15
 438 prop tor  61  13  14  50
 439 prop tor  62  19  20  21
 440 prop tor  62  19  20  63
 441 prop tor  63  20  21  22
 442 prop tor  63  20  21  33
 443 prop tor  64  23  24  25
 444 prop tor  64  23  24  31
 445 prop tor  65  25  26  27
 446 prop tor  65  25  26  30
 447 ben  65  25  66
 448 prop tor  66  25  26  27
 449 prop tor  66  25  26  30
 450 prop tor  67  27  28  29
 451 prop tor  67  27  28  68
 452 prop tor  68  28  29  30
 453 prop tor  69  33  34  18
 454 prop tor  69  33  34  70
 455 prop tor  71  38  39  40
 456 prop tor  71  38  39  72
 457 prop tor  72  39  40  41
 458 prop tor  72  39  40  49
 459 prop tor  73  42  43  44
 460 prop tor  73  42  43  74
 461 prop tor  74  43  44  45
 462 prop tor  74  43  44  47
 nber bend=             146
 nber lin bend=           0
 nber prop tor=         232
 nber impr tor=           0
 nber tot redund int=         462
 Reading file: 
 ./CDT-A_5_C0S2.log                                                             
                                          
  Entering Gaussian System, Link 0=g16                                          
  
 Gaussian format, type: g94, g98, g03= F F F
  #P Geom=AllCheck Guess=TCheck SCRF=Check GenChk RB3LYP TD(FC,Read)/6-3    
 energy type= TD      
 Original G94 input coords:
  6  1.833250-36.710516  4.196914
  6  0.838652-36.043928  5.152862
  6  0.351529-36.970625  6.271574
  7  1.372040-34.753675  5.695690
  6  0.677879-33.579587  5.347635
  8 -0.314104-33.610540  4.635553
  6  1.198781-32.303670  5.879874
  6  0.537779-31.112029  5.557334
  6  0.998873-29.903667  6.038671
  6  2.149147-29.820785  6.870984
  6  2.642140-28.566396  7.381032
  6  2.009875-27.327219  7.086228
  6  2.491594-26.132986  7.581087
  6  3.629870-26.109143  8.396168
  6  4.114363-24.810239  8.904715
  8  3.557824-23.759279  8.645142
  7  5.267573-24.843915  9.716265
  6  5.765491-23.584763 10.223108
  6  5.088042-22.929564 11.246951
  6  5.568278-21.723481 11.736196
  6  6.730976-21.136984 11.206137
  6  7.212173-19.854035 11.719124
  6  6.484433-18.834857 12.299823
  6  7.281664-17.734176 12.680416
  6  7.068640-16.376915 13.320043
  6  8.479151-15.824033 13.350848
  6  9.122675-14.638183 13.785098
  6 10.473425-14.675175 13.559627
 16 10.986842-16.167907 12.808772
  6  9.356606-16.741993 12.802374
  6  8.622351-17.911700 12.389723
 16  8.930963-19.440691 11.650814
  6  7.398150-21.817691 10.173965
  6  6.923336-23.028889  9.689894
  6  5.970920-26.014057 10.069867
  8  6.959946-25.965025 10.777452
  6  5.442306-27.285831  9.536184
  6  6.101512-28.478403  9.858196
  6  5.638027-29.685696  9.377910
  6  4.486866-29.765525  8.546760
  6  3.993324-31.020017  8.037297
  6  4.623788-32.260524  8.331791
  6  4.140615-33.454566  7.836627
  6  3.002754-33.476032  7.021142
  6  2.512406-34.773119  6.507769
  8  3.082445-35.818769  6.783430
  6  2.344163-32.270143  6.702303
  6  2.832729-31.026952  7.207582
  6  3.803551-28.558322  8.210627
  6  4.293225-27.314329  8.715659
  1  1.346219-37.562844  3.715298
  1  2.719217-37.066468  4.721084
  1  2.140046-36.014997  3.411456
  1 -0.026626-35.727696  4.574548
  1  1.177526-37.336185  6.880276
  1 -0.159696-37.827972  5.825240
  1 -0.364588-36.454841  6.916528
  1 -0.338419-31.166861  4.924383
  1  0.463299-29.004571  5.768758
  1  1.129190-27.307248  6.460151
  1  2.005530-25.193061  7.353205
  1  4.191214-23.369411 11.665572
  1  5.050357-21.240299 12.555618
  1  5.409015-18.882833 12.410731
  1  6.392945-15.746846 12.730823
  1  6.637343-16.459020 14.324016
  1  8.626414-13.791944 14.242168
  1 11.211961-13.921514 13.784190
  1  8.286289-21.383821  9.729678
  1  7.448278-23.540397  8.892648
  1  6.978812-28.423847 10.489865
  1  6.172036-30.585951  9.646810
  1  5.504374-32.282061  8.957997
  1  4.625285-34.395086  8.064569
 nber atoms=          74
  Total Energy, E(TD-HF/TD-DFT) =  -2822.26268730                               
  
          32          49 "  -2822.26268730"
After scan for Atom:   Atom  AN      X      Y      Z        X      Y      Z        X      Y      Z   
After scan for Atom:   Atom  AN      X      Y      Z        X      Y      Z        X      Y      Z   
After scan for Atom:   Atom  AN      X      Y      Z        X      Y      Z        X      Y      Z   
After scan for Atom:   Atom  AN      X      Y      Z        X      Y      Z        X      Y      Z   
After scan for Atom:   Atom  AN      X      Y      Z        X      Y      Z        X      Y      Z   
After scan for Atom:   Atom  AN      X      Y      Z        X      Y      Z        X      Y      Z   
After scan for Atom:   Atom  AN      X      Y      Z        X      Y      Z        X      Y      Z   
After scan for Atom:   Atom  AN      X      Y      Z        X      Y      Z        X      Y      Z   
After scan for Atom:   Atom  AN      X      Y      Z        X      Y      Z        X      Y      Z   
After scan for Atom:   Atom  AN      X      Y      Z        X      Y      Z        X      Y      Z   
After scan for Atom:   Atom  AN      X      Y      Z        X      Y      Z        X      Y      Z   
After scan for Atom:   Atom  AN      X      Y      Z        X      Y      Z        X      Y      Z   
After scan for Atom:   Atom  AN      X      Y      Z        X      Y      Z        X      Y      Z   
After scan for Atom:   Atom  AN      X      Y      Z        X      Y      Z        X      Y      Z   
After scan for Atom:   Atom  AN      X      Y      Z        X      Y      Z        X      Y      Z   
After scan for Atom:   Atom  AN      X      Y      Z        X      Y      Z        X      Y      Z   
After scan for Atom:   Atom  AN      X      Y      Z        X      Y      Z        X      Y      Z   
After scan for Atom:   Atom  AN      X      Y      Z        X      Y      Z        X      Y      Z   
After scan for Atom:   Atom  AN      X      Y      Z        X      Y      Z        X      Y      Z   
After scan for Atom:   Atom  AN      X      Y      Z        X      Y      Z        X      Y      Z   
After scan for Atom:   Atom  AN      X      Y      Z        X      Y      Z        X      Y      Z   
After scan for Atom:   Atom  AN      X      Y      Z        X      Y      Z        X      Y      Z   
After scan for Atom:   Atom  AN      X      Y      Z        X      Y      Z        X      Y      Z   
After scan for Atom:   Atom  AN      X      Y      Z        X      Y      Z        X      Y      Z   
After scan for Atom:   Atom  AN      X      Y      Z        X      Y      Z        X      Y      Z   
After scan for Atom:   Atom  AN      X      Y      Z        X      Y      Z        X      Y      Z   
After scan for Atom:   Atom  AN      X      Y      Z        X      Y      Z        X      Y      Z   
After scan for Atom:   Atom  AN      X      Y      Z        X      Y      Z        X      Y      Z   
After scan for Atom:   Atom  AN      X      Y      Z        X      Y      Z        X      Y      Z   
After scan for Atom:   Atom  AN      X      Y      Z        X      Y      Z        X      Y      Z   
After scan for Atom:   Atom  AN      X      Y      Z        X      Y      Z        X      Y      Z   
After scan for Atom:   Atom  AN      X      Y      Z        X      Y      Z        X      Y      Z   
After scan for Atom:   Atom  AN      X      Y      Z        X      Y      Z        X      Y      Z   
After scan for Atom:   Atom  AN      X      Y      Z        X      Y      Z        X      Y      Z   
After scan for Atom:   Atom  AN      X      Y      Z        X      Y      Z        X      Y      Z   
After scan for Atom:   Atom  AN      X      Y      Z        X      Y      Z        X      Y      Z   
After scan for Atom:   Atom  AN      X      Y      Z        X      Y      Z        X      Y      Z   
After scan for Atom:   Atom  AN      X      Y      Z        X      Y      Z        X      Y      Z   
After scan for Atom:   Atom  AN      X      Y      Z        X      Y      Z        X      Y      Z   
After scan for Atom:   Atom  AN      X      Y      Z        X      Y      Z        X      Y      Z   
After scan for Atom:   Atom  AN      X      Y      Z        X      Y      Z        X      Y      Z   
After scan for Atom:   Atom  AN      X      Y      Z        X      Y      Z        X      Y      Z   
After scan for Atom:   Atom  AN      X      Y      Z        X      Y      Z        X      Y      Z   
After scan for Atom:   Atom  AN      X      Y      Z        X      Y      Z        X      Y      Z   
After scan for Atom:   Atom  AN      X      Y      Z        X      Y      Z        X      Y      Z   
After scan for Atom:   Atom  AN      X      Y      Z        X      Y      Z        X      Y      Z   
After scan for Atom:   Atom  AN      X      Y      Z        X      Y      Z        X      Y      Z   
After scan for Atom:   Atom  AN      X      Y      Z        X      Y      Z        X      Y      Z   
After scan for Atom:   Atom  AN      X      Y      Z        X      Y      Z        X      Y      Z   
After scan for Atom:   Atom  AN      X      Y      Z        X      Y      Z        X      Y      Z   
After scan for Atom:   Atom  AN      X      Y      Z        X      Y      Z        X      Y      Z   
After scan for Atom:   Atom  AN      X      Y      Z        X      Y      Z        X      Y      Z   
After scan for Atom:   Atom  AN      X      Y      Z        X      Y      Z        X      Y      Z   
After scan for Atom:   Atom  AN      X      Y      Z        X      Y      Z        X      Y      Z   
After scan for Atom:   Atom  AN      X      Y      Z        X      Y      Z        X      Y      Z   
After scan for Atom:   Atom  AN      X      Y      Z        X      Y      Z        X      Y      Z   
After scan for Atom:   Atom  AN      X      Y      Z        X      Y      Z        X      Y      Z   
After scan for Atom:   Atom  AN      X      Y      Z        X      Y      Z        X      Y      Z   
After scan for Atom:   Atom  AN      X      Y      Z        X      Y      Z        X      Y      Z   
After scan for Atom:   Atom  AN      X      Y      Z        X      Y      Z        X      Y      Z   
After scan for Atom:   Atom  AN      X      Y      Z        X      Y      Z        X      Y      Z   
After scan for Atom:   Atom  AN      X      Y      Z        X      Y      Z        X      Y      Z   
After scan for Atom:   Atom  AN      X      Y      Z        X      Y      Z        X      Y      Z   
After scan for Atom:   Atom  AN      X      Y      Z        X      Y      Z        X      Y      Z   
After scan for Atom:   Atom  AN      X      Y      Z        X      Y      Z        X      Y      Z   
After scan for Atom:   Atom  AN      X      Y      Z        X      Y      Z        X      Y      Z   
After scan for Atom:   Atom  AN      X      Y      Z        X      Y      Z        X      Y      Z   
After scan for Atom:   Atom  AN      X      Y      Z        X      Y      Z        X      Y      Z   
After scan for Atom:   Atom  AN      X      Y      Z        X      Y      Z        X      Y      Z   
After scan for Atom:   Atom  AN      X      Y      Z        X      Y      Z        X      Y      Z   
After scan for Atom:   Atom  AN      X      Y      Z        X      Y      Z        X      Y      Z   
After scan for Atom:   Atom  AN      X      Y      Z        X      Y      Z        X      Y      Z   
 g94    frequencies=
     0.0    0.0    0.0    0.0    0.0    0.0    7.2    8.6   11.9   27.1
    29.5   39.6   42.4   53.7   56.7   65.1   76.9   89.6   94.2   99.5
   104.2  121.2  137.9  143.8  167.9  175.5  183.4  192.4  203.8  207.7
   213.2  228.2  234.5  235.7  253.1  256.7  263.4  282.9  290.2  302.4
   320.8  333.7  348.6  353.0  381.4  390.0  393.3  417.4  419.0  431.7
   436.7  437.9  439.4  445.8  448.6  464.3  469.5  478.0  486.2  495.5
   500.0  506.5  509.9  517.7  533.3  548.2  560.6  570.5  573.1  574.4
[...]
   -1.   -2.    0.   12.   22.   17.   51.   10.   -2.   -0.   -1.    1.    0.    0.    0.    0.    0.  -17.    8.    1.
    4.   -2.    3.   -0.    3.    2.    0.   -1.   10.    8.    1.   -0.    4.   -3.   13.   -5.    3.   -0.   -0.    0.
   -0.   -0.  -17.   14.    6.   -0.    0.   -1.    4.    1.    0.    0.    0.    0.   -0.    1.   -0.   -1.    0.    0.
   -0.    0.    2.   -1.   -1.    6.   -0.    1.   -0.    1.    5.    0.   -2.   -0.    0.   -1.   12.   33.   -1.    0.
   -6.    0.   -1.  -13.   10.   -0.   -3.   -2.   60.    1.    1.   31.   10.   -0.    1.  -28.   -1.   -1.   -0.    3.
   -0.    0.   -4.    1.   -0.    0.   -1.   -0.   -0.    0.   -0.    0.    4.    0.   -0.   -0.   -0.    0.   -2.   -1.
   -0.   -0.   -0.   -0.    0.    2.    0.   -0.   -0.   -0.   -0.    0.   -0.   -0.   -0.    0.   -0.    0.    0.    0.
   -0.    0.

 Displacement: in terms of nc of 1 THEN of nc of 2

   1     freq=    -0. Q=  0.000 lam=    -0.0     freq=    -0. Q=  0.000 lam=    -0.0
   2     freq=    -0. Q= -0.000 lam=    -0.0     freq=    -0. Q= -0.000 lam=    -0.0
   3     freq=     0. Q=  0.000 lam=     0.0     freq=    -0. Q=  0.000 lam=    -0.0
   4     freq=     0. Q=  0.000 lam=     0.0     freq=     0. Q=  0.000 lam=     0.0
   5     freq=     0. Q= -0.000 lam=     0.0     freq=     0. Q= -0.000 lam=     0.0
   6     freq=     0. Q=  0.000 lam=     0.0     freq=     0. Q=  0.000 lam=     0.0
   7     freq=     6. Q=  7.141 lam=   141.2     freq=     7. Q=  7.852 lam=   222.7
   8     freq=     9. Q= -0.126 lam=     0.1     freq=     9. Q= -1.322 lam=     7.6
   9     freq=    12. Q=  1.014 lam=     6.0     freq=    12. Q=  0.015 lam=     0.0
  10     freq=    22. Q= -6.463 lam=   460.7     freq=    27. Q= -4.407 lam=   263.2
  11     freq=    28. Q= -3.141 lam=   140.0     freq=    30. Q=-10.092 lam=  1503.3
  12     freq=    40. Q=  5.889 lam=   696.2     freq=    40. Q=  5.075 lam=   509.7
  13     freq=    43. Q=  6.277 lam=   853.2     freq=    42. Q=  4.819 lam=   492.8
  14     freq=    52. Q=-14.039 lam=  5160.5     freq=    54. Q=-12.184 lam=  3989.7
  15     freq=    56. Q=-18.879 lam=  9935.7     freq=    57. Q=-19.612 lam= 10913.1
  16     freq=    66. Q= -5.879 lam=  1138.5     freq=    65. Q= -6.901 lam=  1549.8
  17     freq=    75. Q=-12.796 lam=  6158.2     freq=    77. Q=-13.798 lam=  7316.5
  18     freq=    87. Q= 11.496 lam=  5720.9     freq=    90. Q=  7.981 lam=  2853.4
  19     freq=    96. Q= -3.459 lam=   572.1     freq=    94. Q= -5.264 lam=  1304.6
  20     freq=    99. Q=  0.052 lam=     0.1     freq=    99. Q=  0.030 lam=     0.0
  21     freq=   105. Q= -4.379 lam=  1004.1     freq=   104. Q= -5.169 lam=  1391.4
  22     freq=   122. Q= -1.300 lam=   102.7     freq=   121. Q= -0.769 lam=    35.9
  23     freq=   134. Q=  2.308 lam=   357.2     freq=   138. Q=  1.812 lam=   226.4
  24     freq=   144. Q= -0.687 lam=    34.0     freq=   144. Q= -0.630 lam=    28.5
  25     freq=   164. Q= 10.941 lam=  9788.6     freq=   168. Q= 12.131 lam= 12352.6
  26     freq=   175. Q= -6.960 lam=  4228.9     freq=   176. Q= -4.161 lam=  1519.5
  27     freq=   182. Q= -0.483 lam=    21.2     freq=   183. Q= -3.032 lam=   843.0
  28     freq=   189. Q= -5.872 lam=  3249.9     freq=   192. Q= -4.212 lam=  1706.8
  29     freq=   204. Q=  2.235 lam=   508.6     freq=   204. Q=  1.462 lam=   218.0
  30     freq=   206. Q= -2.137 lam=   471.3     freq=   208. Q= -1.158 lam=   139.4
  31     freq=   218. Q= -1.224 lam=   162.9     freq=   213. Q= -0.116 lam=     1.4
  32     freq=   228. Q= -1.241 lam=   175.7     freq=   228. Q= -0.511 lam=    29.8
  33     freq=   235. Q= 12.567 lam= 18537.7     freq=   235. Q= 15.615 lam= 28590.3
  34     freq=   237. Q=-10.137 lam= 12169.7     freq=   236. Q= -4.160 lam=  2039.4
  35     freq=   253. Q=  0.241 lam=     7.4     freq=   253. Q=  0.293 lam=    10.9
  36     freq=   264. Q=  1.202 lam=   190.6     freq=   257. Q=  2.781 lam=   992.3
  37     freq=   272. Q= -1.790 lam=   435.2     freq=   263. Q= -1.418 lam=   264.7
  38     freq=   282. Q=  0.603 lam=    51.4     freq=   283. Q=  0.212 lam=     6.3
  39     freq=   290. Q=  0.513 lam=    38.2     freq=   290. Q=  0.134 lam=     2.6
  40     freq=   315. Q=  1.065 lam=   178.5     freq=   302. Q=  1.235 lam=   230.6
  41     freq=   330. Q=  1.197 lam=   235.9     freq=   321. Q=  0.255 lam=    10.4
  42     freq=   341. Q=  0.604 lam=    62.2     freq=   334. Q=  1.765 lam=   519.8
  43     freq=   355. Q= -0.838 lam=   124.6     freq=   349. Q= -0.307 lam=    16.4
  44     freq=   359. Q=  0.688 lam=    85.0     freq=   353. Q=  0.606 lam=    64.9
  45     freq=   381. Q= -0.534 lam=    54.4     freq=   381. Q= -0.567 lam=    61.4
  46     freq=   391. Q=  0.073 lam=     1.0     freq=   390. Q=  0.092 lam=     1.7
  47     freq=   395. Q= -0.151 lam=     4.5     freq=   393. Q= -0.162 lam=     5.2
  48     freq=   420. Q=  0.333 lam=    23.3     freq=   417. Q=  0.460 lam=    44.2
  49     freq=   431. Q=  0.132 lam=     3.7     freq=   419. Q=  0.186 lam=     7.3
  50     freq=   436. Q= -0.102 lam=     2.3     freq=   432. Q= -0.315 lam=    21.4
  51     freq=   437. Q= -1.014 lam=   224.5     freq=   437. Q= -0.842 lam=   154.7
  52     freq=   439. Q=  0.552 lam=    66.8     freq=   438. Q=  1.052 lam=   242.2
  53     freq=   446. Q= -2.332 lam=  1213.0     freq=   439. Q= -0.431 lam=    40.9
  54     freq=   448. Q=  0.333 lam=    24.8     freq=   446. Q=  0.967 lam=   208.5
  55     freq=   452. Q= -0.952 lam=   204.5     freq=   449. Q= -2.424 lam=  1318.2
  56     freq=   467. Q=  0.543 lam=    68.7     freq=   464. Q=  0.455 lam=    48.0
  57     freq=   470. Q=  0.077 lam=     1.4     freq=   469. Q=  0.184 lam=     7.9
  58     freq=   480. Q=  0.154 lam=     5.7     freq=   478. Q=  0.482 lam=    55.5
  59     freq=   480. Q= -0.728 lam=   127.3     freq=   486. Q= -0.573 lam=    79.8
  60     freq=   484. Q=  1.478 lam=   528.0     freq=   495. Q=  1.324 lam=   434.4
  61     freq=   499. Q=  1.494 lam=   556.7     freq=   500. Q=  1.123 lam=   315.5
  62     freq=   512. Q= -0.536 lam=    73.7     freq=   506. Q= -0.311 lam=    24.5
  63     freq=   519. Q=  0.234 lam=    14.1     freq=   510. Q=  0.880 lam=   197.5
  64     freq=   534. Q=  0.986 lam=   259.5     freq=   518. Q=  0.050 lam=     0.6
  65     freq=   535. Q=  0.182 lam=     8.8     freq=   533. Q=  1.120 lam=   334.8
  66     freq=   552. Q=  0.777 lam=   166.3     freq=   548. Q=  0.086 lam=     2.0
  67     freq=   561. Q= -0.043 lam=     0.5     freq=   561. Q= -0.128 lam=     4.6
  68     freq=   571. Q=  0.102 lam=     3.0     freq=   571. Q=  0.118 lam=     3.9
  69     freq=   578. Q= -0.024 lam=     0.2     freq=   573. Q= -0.488 lam=    68.3
  70     freq=   585. Q=  0.296 lam=    25.7     freq=   574. Q=  0.250 lam=    17.9
  71     freq=   586. Q= -0.278 lam=    22.7     freq=   579. Q= -0.144 lam=     6.0
  72     freq=   597. Q= -0.357 lam=    38.1     freq=   585. Q= -0.216 lam=    13.7
  73     freq=   612. Q= -2.271 lam=  1577.5     freq=   605. Q= -0.100 lam=     3.0
  74     freq=   623. Q= -0.028 lam=     0.2     freq=   611. Q= -2.227 lam=  1516.2
  75     freq=   631. Q=  0.105 lam=     3.5     freq=   616. Q=  0.003 lam=     0.0
  76     freq=   633. Q= -0.161 lam=     8.2     freq=   633. Q= -0.142 lam=     6.4
  77     freq=   647. Q=  0.770 lam=   191.9     freq=   635. Q=  0.377 lam=    45.1
  78     freq=   659. Q= -0.024 lam=     0.2     freq=   649. Q= -0.698 lam=   158.2
  79     freq=   665. Q= -0.686 lam=   156.5     freq=   653. Q= -0.107 lam=     3.7
  80     freq=   667. Q= -0.011 lam=     0.0     freq=   663. Q= -0.457 lam=    69.2
  81     freq=   697. Q= -0.060 lam=     1.3     freq=   678. Q= -0.058 lam=     1.1
  82     freq=   698. Q= -0.060 lam=     1.2     freq=   695. Q= -0.230 lam=    18.3
  83     freq=   712. Q=  5.946 lam= 12580.9     freq=   697. Q=  0.019 lam=     0.1
  84     freq=   714. Q=  1.038 lam=   384.8     freq=   705. Q=  1.325 lam=   618.9
  85     freq=   717. Q= -1.882 lam=  1269.7     freq=   709. Q= -2.403 lam=  2047.2
  86     freq=   726. Q= -1.270 lam=   585.3     freq=   710. Q= -1.830 lam=  1189.2
  87     freq=   742. Q=  0.046 lam=     0.8     freq=   714. Q=  5.481 lam= 10722.3
  88     freq=   746. Q=  0.232 lam=    20.0     freq=   727. Q=  1.062 lam=   410.2
  89     freq=   751. Q= -0.049 lam=     0.9     freq=   744. Q= -0.199 lam=    14.8
  90     freq=   763. Q=  0.045 lam=     0.8     freq=   753. Q=  0.033 lam=     0.4
  91     freq=   772. Q= -0.074 lam=     2.1     freq=   760. Q= -0.072 lam=     2.0
  92     freq=   786. Q= -0.096 lam=     3.6     freq=   761. Q= -0.157 lam=     9.4
  93     freq=   800. Q= -0.034 lam=     0.5     freq=   771. Q= -0.019 lam=     0.1
  94     freq=   803. Q= -0.053 lam=     1.1     freq=   799. Q= -0.037 lam=     0.6
  95     freq=   811. Q=  0.017 lam=     0.1     freq=   807. Q=  0.057 lam=     1.3
  96     freq=   817. Q= -2.093 lam=  1788.3     freq=   812. Q= -0.041 lam=     0.7
  97     freq=   822. Q=  0.829 lam=   282.6     freq=   815. Q=  0.005 lam=     0.0
  98     freq=   834. Q=  0.517 lam=   111.2     freq=   816. Q=  2.017 lam=  1660.3
  99     freq=   836. Q= -0.311 lam=    40.4     freq=   820. Q= -0.974 lam=   388.9
 100     freq=   844. Q=  0.059 lam=     1.5     freq=   829. Q=  0.065 lam=     1.7
 101     freq=   855. Q= -0.475 lam=    96.3     freq=   831. Q= -0.445 lam=    82.4
 102     freq=   858. Q= -0.280 lam=    33.6     freq=   833. Q= -0.229 lam=    21.8
 103     freq=   865. Q= -0.004 lam=     0.0     freq=   834. Q= -0.386 lam=    62.3
 104     freq=   865. Q=  0.003 lam=     0.0     freq=   842. Q=  0.019 lam=     0.1
 105     freq=   870. Q=  0.005 lam=     0.0     freq=   854. Q=  0.370 lam=    58.3
 106     freq=   872. Q=  0.002 lam=     0.0     freq=   858. Q=  0.203 lam=    17.7
 107     freq=   877. Q=  0.050 lam=     1.1     freq=   877. Q=  0.050 lam=     1.1
 108     freq=   912. Q=  0.119 lam=     6.5     freq=   905. Q=  0.097 lam=     4.2
 109     freq=   923. Q= -1.467 lam=   993.7     freq=   922. Q= -1.166 lam=   627.2
 110     freq=   928. Q= -0.216 lam=    21.7     freq=   924. Q= -0.942 lam=   410.1
 111     freq=   937. Q= -0.022 lam=     0.2     freq=   934. Q= -0.083 lam=     3.2
 112     freq=   946. Q= -0.597 lam=   168.3     freq=   937. Q= -0.028 lam=     0.4
 113     freq=   957. Q=  0.464 lam=   103.2     freq=   945. Q=  0.506 lam=   121.2
 114     freq=   958. Q=  1.627 lam=  1267.8     freq=   957. Q=  0.408 lam=    79.6
 115     freq=   965. Q=  0.624 lam=   187.6     freq=   958. Q=  1.597 lam=  1221.5
 116     freq=   970. Q=  0.284 lam=    39.1     freq=   964. Q=  0.664 lam=   212.6
 117     freq=   980. Q=  0.128 lam=     8.1     freq=   968. Q=  0.365 lam=    64.4
 118     freq=   987. Q=  0.081 lam=     3.2     freq=   974. Q=  0.004 lam=     0.0
 119     freq=   992. Q= -0.000 lam=     0.0     freq=   976. Q= -0.011 lam=     0.1
 120     freq=   997. Q= -0.003 lam=     0.0     freq=   978. Q= -0.027 lam=     0.4
 121     freq=  1001. Q= -0.001 lam=     0.0     freq=   988. Q= -0.001 lam=     0.0
 122     freq=  1002. Q=  2.154 lam=  2324.6     freq=   988. Q=  0.005 lam=     0.0
 123     freq=  1006. Q= -0.004 lam=     0.0     freq=  1002. Q= -2.152 lam=  2318.5
 124     freq=  1029. Q= -1.757 lam=  1588.5     freq=  1029. Q= -1.752 lam=  1578.5
 125     freq=  1035. Q=  0.762 lam=   300.3     freq=  1035. Q=  0.792 lam=   324.3
 126     freq=  1063. Q=  0.009 lam=     0.0     freq=  1061. Q=  0.054 lam=     1.6
 127     freq=  1081. Q=  0.156 lam=    13.2     freq=  1083. Q=  0.056 lam=     1.7
 128     freq=  1101. Q=  0.102 lam=     5.8     freq=  1095. Q=  0.097 lam=     5.2
 129     freq=  1110. Q=  0.538 lam=   160.6     freq=  1110. Q=  0.536 lam=   159.3
 130     freq=  1134. Q=  0.102 lam=     5.9     freq=  1134. Q=  0.101 lam=     5.8
 131     freq=  1149. Q=  0.001 lam=     0.0     freq=  1136. Q=  0.017 lam=     0.2
 132     freq=  1150. Q= -0.009 lam=     0.0     freq=  1149. Q= -0.002 lam=     0.0
 133     freq=  1156. Q=  0.013 lam=     0.1     freq=  1155. Q=  0.062 lam=     2.3
 134     freq=  1160. Q= -0.010 lam=     0.1     freq=  1157. Q= -0.060 lam=     2.1
 135     freq=  1166. Q= -0.021 lam=     0.2     freq=  1163. Q= -0.005 lam=     0.0
 136     freq=  1172. Q=  0.042 lam=     1.0     freq=  1164. Q=  0.088 lam=     4.5
 137     freq=  1176. Q=  0.178 lam=    18.7     freq=  1175. Q=  0.027 lam=     0.4
 138     freq=  1194. Q=  0.039 lam=     0.9     freq=  1176. Q=  0.161 lam=    15.2
 139     freq=  1200. Q=  0.004 lam=     0.0     freq=  1186. Q=  0.008 lam=     0.0
 140     freq=  1205. Q= -0.046 lam=     1.3     freq=  1196. Q= -0.026 lam=     0.4
 141     freq=  1210. Q=  0.005 lam=     0.0     freq=  1203. Q=  0.019 lam=     0.2
 142     freq=  1212. Q=  0.349 lam=    73.6     freq=  1206. Q=  0.007 lam=     0.0
 143     freq=  1221. Q=  0.036 lam=     0.8     freq=  1212. Q=  0.334 lam=    67.8
 144     freq=  1221. Q=  0.044 lam=     1.2     freq=  1224. Q=  0.080 lam=     4.0
 145     freq=  1235. Q=  0.840 lam=   435.8     freq=  1233. Q=  0.166 lam=    17.0
 146     freq=  1241. Q= -0.121 lam=     9.0     freq=  1235. Q= -0.848 lam=   444.0
 147     freq=  1251. Q= -0.066 lam=     2.8     freq=  1242. Q= -0.040 lam=     1.0
 148     freq=  1260. Q= -0.005 lam=     0.0     freq=  1251. Q= -0.073 lam=     3.4
 149     freq=  1268. Q=  0.120 lam=     9.2     freq=  1263. Q=  0.014 lam=     0.1
 150     freq=  1269. Q=  0.079 lam=     3.9     freq=  1268. Q=  0.133 lam=    11.2
 151     freq=  1309. Q=  0.238 lam=    37.2     freq=  1299. Q=  0.677 lam=   297.5
 152     freq=  1314. Q=  0.125 lam=    10.2     freq=  1316. Q=  0.039 lam=     1.0
 153     freq=  1316. Q= -0.014 lam=     0.1     freq=  1317. Q= -0.249 lam=    40.9
 154     freq=  1326. Q= -0.632 lam=   264.8     freq=  1318. Q= -0.005 lam=     0.0
 155     freq=  1333. Q=  0.069 lam=     3.2     freq=  1334. Q=  0.040 lam=     1.1
 156     freq=  1337. Q=  0.022 lam=     0.3     freq=  1351. Q=  0.180 lam=    21.9
 157     freq=  1356. Q= -1.258 lam=  1072.1     freq=  1357. Q= -1.725 lam=  2018.9
 158     freq=  1361. Q=  5.089 lam= 17624.6     freq=  1361. Q=  4.945 lam= 16645.6
 159     freq=  1369. Q= -0.016 lam=     0.2     freq=  1366. Q= -0.079 lam=     4.2
 160     freq=  1375. Q=  0.177 lam=    21.6     freq=  1380. Q=  0.074 lam=     3.8
 161     freq=  1382. Q= -0.822 lam=   467.3     freq=  1382. Q= -0.849 lam=   498.5
 162     freq=  1385. Q=  0.648 lam=   290.5     freq=  1392. Q=  0.025 lam=     0.4
 163     freq=  1401. Q= -0.237 lam=    39.2     freq=  1400. Q= -0.223 lam=    34.8
 164     freq=  1404. Q=  2.356 lam=  3895.5     freq=  1404. Q=  1.951 lam=  2672.1
 165     freq=  1407. Q=  0.399 lam=   112.2     freq=  1404. Q=  1.462 lam=  1499.8
 166     freq=  1417. Q= -0.003 lam=     0.0     freq=  1416. Q= -0.036 lam=     0.9
 167     freq=  1421. Q= -0.324 lam=    74.7     freq=  1420. Q= -0.407 lam=   117.9
 168     freq=  1429. Q= -0.047 lam=     1.6     freq=  1430. Q= -0.376 lam=   100.9
 169     freq=  1437. Q= -0.345 lam=    85.4     freq=  1438. Q= -9.160 lam= 60328.6
 170     freq=  1438. Q= -9.141 lam= 60088.0     freq=  1439. Q= -0.102 lam=     7.5
 171     freq=  1446. Q= -4.882 lam= 17235.1     freq=  1445. Q= -0.164 lam=    19.4
 172     freq=  1455. Q=  0.246 lam=    44.1     freq=  1447. Q=  4.788 lam= 16581.7
 173     freq=  1458. Q=  1.392 lam=  1412.1     freq=  1458. Q=  1.497 lam=  1633.5
 174     freq=  1470. Q=  4.231 lam= 13155.0     freq=  1461. Q=  0.032 lam=     0.7
 175     freq=  1477. Q= -0.190 lam=    26.8     freq=  1466. Q= -0.103 lam=     7.8
 176     freq=  1485. Q= -0.143 lam=    15.2     freq=  1469. Q= -4.259 lam= 13325.1
 177     freq=  1491. Q= -0.001 lam=     0.0     freq=  1485. Q= -0.119 lam=    10.6
 178     freq=  1498. Q= -0.008 lam=     0.0     freq=  1492. Q= -0.228 lam=    38.8
 179     freq=  1505. Q= -0.393 lam=   116.2     freq=  1497. Q= -0.031 lam=     0.7
 180     freq=  1506. Q=  0.008 lam=     0.1     freq=  1505. Q=  0.402 lam=   121.7
 181     freq=  1523. Q= -0.000 lam=     0.0     freq=  1511. Q= -0.008 lam=     0.0
 182     freq=  1527. Q= -0.562 lam=   241.6     freq=  1522. Q= -0.010 lam=     0.1
 183     freq=  1535. Q=  0.181 lam=    25.2     freq=  1527. Q=  0.576 lam=   253.0
 184     freq=  1543. Q=  0.003 lam=     0.0     freq=  1534. Q=  0.183 lam=    25.6
 185     freq=  1559. Q=  0.226 lam=    39.8     freq=  1547. Q=  0.007 lam=     0.0
 186     freq=  1561. Q=  0.011 lam=     0.1     freq=  1555. Q=  0.067 lam=     3.5
 187     freq=  1604. Q=  0.499 lam=   199.3     freq=  1558. Q=  0.230 lam=    41.3
 188     freq=  1608. Q=  0.001 lam=     0.0     freq=  1570. Q=  0.008 lam=     0.1
 189     freq=  1615. Q= -0.052 lam=     2.2     freq=  1581. Q= -0.006 lam=     0.0
 190     freq=  1620. Q= -0.329 lam=    87.9     freq=  1599. Q= -0.003 lam=     0.0
 191     freq=  1631. Q= -0.002 lam=     0.0     freq=  1600. Q= -0.006 lam=     0.0
 192     freq=  1631. Q=  0.009 lam=     0.1     freq=  1607. Q=  0.007 lam=     0.0
 193     freq=  1648. Q= -0.066 lam=     3.6     freq=  1623. Q= -0.619 lam=   310.6
 194     freq=  1649. Q=  0.002 lam=     0.0     freq=  1646. Q=  0.062 lam=     3.2
 195     freq=  1713. Q=  0.065 lam=     3.6     freq=  1685. Q=  0.068 lam=     3.9
 196     freq=  1734. Q= -0.001 lam=     0.0     freq=  1705. Q= -0.001 lam=     0.0
 197     freq=  1751. Q=  0.028 lam=     0.7     freq=  1725. Q=  0.046 lam=     1.8
 198     freq=  1768. Q=  0.047 lam=     2.0     freq=  1741. Q=  0.062 lam=     3.3
 199     freq=  3028. Q=  0.471 lam=   336.3     freq=  3028. Q=  0.472 lam=   336.7
 200     freq=  3035. Q=  0.168 lam=    43.0     freq=  3034. Q=  0.170 lam=    43.6
 201     freq=  3039. Q=  0.003 lam=     0.0     freq=  3038. Q=  0.002 lam=     0.0
 202     freq=  3055. Q=  0.002 lam=     0.0     freq=  3055. Q=  0.000 lam=     0.0
 203     freq=  3093. Q= -0.010 lam=     0.2     freq=  3092. Q= -0.007 lam=     0.1
 204     freq=  3096. Q=  0.002 lam=     0.0     freq=  3095. Q=  0.001 lam=     0.0
 205     freq=  3113. Q= -0.003 lam=     0.0     freq=  3112. Q= -0.000 lam=     0.0
 206     freq=  3133. Q= -0.537 lam=   451.4     freq=  3132. Q= -0.539 lam=   455.7
 207     freq=  3144. Q= -0.011 lam=     0.2     freq=  3143. Q= -0.010 lam=     0.2
 208     freq=  3176. Q=  0.005 lam=     0.0     freq=  3176. Q=  0.006 lam=     0.0
 209     freq=  3179. Q=  0.013 lam=     0.3     freq=  3180. Q=  0.015 lam=     0.4
 210     freq=  3193. Q=  0.004 lam=     0.0     freq=  3195. Q=  0.003 lam=     0.0
 211     freq=  3194. Q= -0.000 lam=     0.0     freq=  3197. Q= -0.009 lam=     0.1
 212     freq=  3194. Q= -0.000 lam=     0.0     freq=  3198. Q= -0.000 lam=     0.0
 213     freq=  3195. Q= -0.004 lam=     0.0     freq=  3198. Q= -0.000 lam=     0.0
 214     freq=  3199. Q= -0.008 lam=     0.1     freq=  3199. Q= -0.009 lam=     0.1
 215     freq=  3201. Q=  0.004 lam=     0.0     freq=  3201. Q=  0.029 lam=     1.3
 216     freq=  3201. Q= -0.029 lam=     1.3     freq=  3205. Q= -0.001 lam=     0.0
 217     freq=  3201. Q=  0.001 lam=     0.0     freq=  3205. Q=  0.004 lam=     0.0
 218     freq=  3208. Q=  0.000 lam=     0.0     freq=  3213. Q=  0.000 lam=     0.0
 219     freq=  3208. Q=  0.001 lam=     0.0     freq=  3213. Q=  0.001 lam=     0.0
 220     freq=  3218. Q=  0.008 lam=     0.1     freq=  3224. Q=  0.003 lam=     0.0
 221     freq=  3218. Q=  0.012 lam=     0.2     freq=  3224. Q=  0.009 lam=     0.1
 222     freq=  3246. Q=  0.025 lam=     1.0     freq=  3246. Q=  0.025 lam=     1.0

 total reorg energy (cm**-1, kcal/mol)=   231365.   230257.    661.50    658.33
 Nber of molecules processed=           2
