 Enter ifcurve (0=recti, 1=orth curvi, 2=apprx curvi, -1 = skip
 And atom ordering flag, 0= never changes, 1= use the first order thenceforth,
  2= deduce it (does read on fail), 3= always read it
 Reading file: 
 ./conjugated_carbonyls_2_C0S0.log                                              
                                          
  Entering Gaussian System, Link 0=g16                                          
  
 Gaussian format, type: g94, g98, g03= F F F
  #P Geom=AllCheck Guess=TCheck SCRF=Check Test GenChk RB3LYP/6-311G(d,p    
 energy type= B3LYP   
 Original G94 input coords:
  8  1.388478 -3.252945  0.000000
  6  0.787599 -2.202256  0.000000
  6 -0.787599 -2.202256  0.000000
  8 -1.388478 -3.252945  0.000000
  6 -1.416693 -0.885435  0.000000
 16 -3.137612 -0.650581  0.000000
  6 -2.926761  1.060352  0.000000
  6 -1.609300  1.437185  0.000000
  6 -0.730531  0.319859  0.000000
  6  0.730531  0.319859  0.000000
  6  1.609300  1.437185  0.000000
  6  2.926761  1.060352  0.000000
 16  3.137612 -0.650581  0.000000
  6  1.416693 -0.885435  0.000000
  1 -3.793756  1.703919  0.000000
  1 -1.288787  2.469902  0.000000
  1  1.288787  2.469902  0.000000
  1  3.793756  1.703919  0.000000
 nber atoms=          18
  SCF Done:  E(RB3LYP) =  -1330.45420980     A.U. after    1 cycles             
  
          23          40 "  -1330.45420980"
After scan for Atom:   Atom  AN      X      Y      Z        X      Y      Z        X      Y      Z   
After scan for Atom:   Atom  AN      X      Y      Z        X      Y      Z        X      Y      Z   
After scan for Atom:   Atom  AN      X      Y      Z        X      Y      Z        X      Y      Z   
After scan for Atom:   Atom  AN      X      Y      Z        X      Y      Z        X      Y      Z   
After scan for Atom:   Atom  AN      X      Y      Z        X      Y      Z        X      Y      Z   
After scan for Atom:   Atom  AN      X      Y      Z        X      Y      Z        X      Y      Z   
After scan for Atom:   Atom  AN      X      Y      Z        X      Y      Z        X      Y      Z   
After scan for Atom:   Atom  AN      X      Y      Z        X      Y      Z        X      Y      Z   
After scan for Atom:   Atom  AN      X      Y      Z        X      Y      Z        X      Y      Z   
After scan for Atom:   Atom  AN      X      Y      Z        X      Y      Z        X      Y      Z   
After scan for Atom:   Atom  AN      X      Y      Z        X      Y      Z        X      Y      Z   
After scan for Atom:   Atom  AN      X      Y      Z        X      Y      Z        X      Y      Z   
After scan for Atom:   Atom  AN      X      Y      Z        X      Y      Z        X      Y      Z   
After scan for Atom:   Atom  AN      X      Y      Z        X      Y      Z        X      Y      Z   
After scan for Atom:   Atom  AN      X      Y      Z        X      Y      Z        X      Y      Z   
After scan for Atom:   Atom  AN      X      Y      Z        X      Y      Z        X      Y      Z   
 g94    frequencies=
     0.0    0.0    0.0    0.0    0.0    0.0   67.4   96.2  139.6  148.5
   201.9  265.4  297.1  327.0  361.2  386.7  416.9  468.7  489.9  539.7
   539.9  618.0  673.8  691.1  696.0  743.0  753.9  778.6  825.2  832.9
   855.6  877.0  891.4  891.8  895.3 1006.2 1104.7 1124.0 1197.2 1232.0
  1256.8 1301.2 1383.0 1434.1 1444.6 1454.5 1560.2 1562.1 1742.2 1765.4
  3207.7 3212.1 3240.2 3240.6
 g94    symmetries=
                                                 A      A      A      A
       A      A      A      A      A      A      A      A      A      A
       A      A      A      A      A      A      A      A      A      A
       A      A      A      A      A      A      A      A      A      A
       A      A      A      A      A      A      A      A      A      A
       A      A      A      A
 atomic masses:
 15.9949 12.0000 12.0000 15.9949 12.0000 31.9721 12.0000 12.0000 12.0000 12.0000
 12.0000 12.0000 31.9721 12.0000  1.0078  1.0078  1.0078  1.0078
 looking for force constants in 
 ./conjugated_carbonyls_2_C0S0.fchk                                             
  
 Cartesian Force Constants                  R   N=        1485                  
  
 n3=          54        1485
 g94-fc frequencies=
    -6.8   -1.3    0.0    0.0    0.0    2.9   67.4   96.2  139.7  148.5
   201.9  265.4  297.1  327.0  361.2  386.7  417.0  468.7  489.9  539.7
   539.9  618.0  673.8  691.1  696.0  743.0  753.9  778.7  825.2  832.9
   855.7  877.0  891.4  891.8  895.3 1006.2 1104.7 1124.0 1197.3 1232.0
  1256.8 1301.2 1383.1 1434.1 1444.7 1454.6 1560.2 1562.2 1742.2 1765.4
  3207.8 3212.2 3240.3 3240.7
 at 99999: n3=          54
 symm operator            1 :  F  nop=           0
 symm operator            2 :  T  nop=           1
 symm operator            3 :  F  nop=           1
 symm operator            4 :  F  nop=           1
 symm operator            5 :  T  nop=           2
 symm operator            6 :  F  nop=           2
 symm operator            7 :  T  nop=           3
 swap           2           3
   1   1.38848   0.00000  -3.25294
   2   0.78760   0.00000  -2.20226
   3  -0.78760   0.00000  -2.20226
   4  -1.38848   0.00000  -3.25294
   5  -1.41669   0.00000  -0.88543
   6  -3.13761   0.00000  -0.65058
   7  -2.92676   0.00000   1.06035
   8  -1.60930   0.00000   1.43718
   9  -0.73053   0.00000   0.31986
  10   0.73053   0.00000   0.31986
  11   1.60930   0.00000   1.43718
  12   2.92676   0.00000   1.06035
  13   3.13761   0.00000  -0.65058
  14   1.41669   0.00000  -0.88543
  15  -3.79376   0.00000   1.70392
  16  -1.28879   0.00000   2.46990
  17   1.28879   0.00000   2.46990
  18   3.79376   0.00000   1.70392
 swap           1           2
   1   0.00000   1.38848  -3.25294
   2   0.00000   0.78760  -2.20226
   3   0.00000  -0.78760  -2.20226
   4   0.00000  -1.38848  -3.25294
   5   0.00000  -1.41669  -0.88543
   6   0.00000  -3.13761  -0.65058
   7   0.00000  -2.92676   1.06035
   8   0.00000  -1.60930   1.43718
   9   0.00000  -0.73053   0.31986
  10   0.00000   0.73053   0.31986
  11   0.00000   1.60930   1.43718
  12   0.00000   2.92676   1.06035
  13   0.00000   3.13761  -0.65058
  14   0.00000   1.41669  -0.88543
  15   0.00000  -3.79376   1.70392
  16   0.00000  -1.28879   2.46990
  17   0.00000   1.28879   2.46990
  18   0.00000   3.79376   1.70392
 The point group of the molecule is C2V
 enforcing symm op           1  jsymt=          -1          -1           1
 enforcing symm op           6  jsymt=           1          -1           1
 enforcing symm op           7  jsymt=          -1           1           1
 cartesian coord symmetries:
 A1 :   18 A2 :    9 B1 :    9 B2 :   18
 Symmetry rotation matrix:
   0.00000   0.00000   1.00000
  -1.00000   0.00000   0.00000
   0.00000  -1.00000   0.00000

 Projecting out zero-frequency components
 generating redundant internal coords
         300        3600          18
 search for int coords
   1 str   2   1   1.210
   2 str   3   2   1.575
   3 str   4   3   1.210
   4 str   5   3   1.459
   5 str   6   5   1.737
   6 str   7   6   1.724
   7 str   8   7   1.370
   8 str   9   5   1.387
   9 str   9   8   1.421
  10 str  10   9   1.461
  11 str  11  10   1.421
  12 str  12  11   1.370
  13 str  13  12   1.724
  14 str  14   2   1.459
  15 str  14  10   1.387
  16 str  14  13   1.737
  17 str  15   7   1.080
  18 str  16   8   1.081
  19 str  17  11   1.081
  20 str  18  12   1.080
 nber stretches=          20
  21 ben   1   2   3
  22 prop tor   1   2   3   4
  23 prop tor   1   2   3   5
  24 ben   1   2  14
  25 prop tor   1   2  14  10
  26 prop tor   1   2  14  13
  27 ben   2   3   4
  28 ben   2   3   5
  29 prop tor   2   3   5   6
  30 prop tor   2   3   5   9
  31 ben   2  14  10
  32 ben   2  14  13
  33 ben   3   2  14
  34 prop tor   3   2  14  10
  35 prop tor   3   2  14  13
  36 ben   3   5   6
  37 prop tor   3   5   6   7
  38 ben   3   5   9
  39 prop tor   3   5   9   8
  40 prop tor   3   5   9  10
  41 ben   4   3   5
  42 prop tor   4   3   5   6
  43 prop tor   4   3   5   9
  44 ben   5   6   7
  45 prop tor   5   6   7   8
  46 prop tor   5   6   7  15
  47 ben   5   9   8
  48 ben   5   9  10
  49 prop tor   5   9  10  11
  50 prop tor   5   9  10  14
  51 ben   6   5   9
  52 prop tor   6   5   9   8
  53 prop tor   6   5   9  10
  54 ben   6   7   8
  55 prop tor   6   7   8   9
  56 prop tor   6   7   8  16
  57 ben   6   7  15
  58 ben   7   8   9
  59 prop tor   7   8   9   5
  60 prop tor   7   8   9  10
  61 ben   7   8  16
  62 ben   8   7  15
  63 ben   8   9  10
  64 prop tor   8   9  10  11
  65 prop tor   8   9  10  14
  66 prop tor   9   5   6   7
  67 ben   9   8  16
  68 ben   9  10  11
  69 prop tor   9  10  11  12
  70 prop tor   9  10  11  17
  71 ben   9  10  14
  72 prop tor   9  10  14   2
  73 prop tor   9  10  14  13
  74 ben  10  11  12
  75 prop tor  10  11  12  13
  76 prop tor  10  11  12  18
  77 ben  10  11  17
  78 ben  10  14  13
  79 ben  11  10  14
  80 prop tor  11  10  14   2
  81 prop tor  11  10  14  13
  82 ben  11  12  13
  83 prop tor  11  12  13  14
  84 ben  11  12  18
  85 ben  12  11  17
  86 ben  12  13  14
  87 prop tor  12  13  14   2
  88 prop tor  12  13  14  10
  89 ben  13  12  18
  90 prop tor  14   2   3   4
  91 prop tor  14   2   3   5
  92 prop tor  14  10  11  12
  93 prop tor  14  10  11  17
  94 prop tor  15   7   8   9
  95 prop tor  15   7   8  16
  96 prop tor  16   8   9   5
  97 prop tor  16   8   9  10
  98 prop tor  17  11  12  13
  99 prop tor  17  11  12  18
 100 prop tor  18  12  13  14
 nber bend=              32
 nber lin bend=           0
 nber prop tor=          48
 nber impr tor=           0
 nber tot redund int=         100
 Eigenvalues of G in red int coords
    Gval -0.00000000 -0.00000000 -0.00000000 -0.00000000 -0.00000000 -0.00000000 -0.00000000 -0.00000000
    Gval -0.00000000 -0.00000000 -0.00000000 -0.00000000 -0.00000000 -0.00000000 -0.00000000 -0.00000000
    Gval -0.00000000 -0.00000000 -0.00000000 -0.00000000 -0.00000000 -0.00000000 -0.00000000  0.00000000
    Gval  0.00000000  0.00000000  0.00000000  0.00000000  0.00000000  0.00000000  0.00000000  0.00000000
    Gval  0.00000000  0.00000000  0.00000000  0.00000000  0.00000000  0.00000000  0.00000000  0.00000000
    Gval  0.00000000  0.00000000  0.00000000  0.00000000  0.00000000  0.00000000  0.00000000  0.00000000
    Gval  0.00000000  0.00000000  0.00000000  0.00000000  0.00000835  0.00000986  0.00001161  0.00002159
    Gval  0.00002160  0.00002499  0.00003240  0.00004469  0.00004833  0.00004893  0.00005456  0.00006103
    Gval  0.00007133  0.00009346  0.00010349  0.00010555  0.00010557  0.00010876  0.00011007  0.00013436
    Gval  0.00017065  0.00017826  0.00025596  0.00025895  0.00031466  0.00034586  0.00034722  0.00035256
    Gval  0.00040572  0.00044681  0.00045413  0.00052845  0.00059654  0.00059693  0.00062277  0.00062710
    Gval  0.00067771  0.00108058  0.00108202  0.00118357  0.00118379  0.00118431  0.00130368  0.00187314
    Gval  0.00200791  0.00242004  0.00387947  0.00398403
  8.347996235077829E-006  8.347996235077829E-006
  9.855769377312168E-006  8.347996235077829E-006
  1.161226025952726E-005  8.347996235077829E-006
  2.158607405055654E-005  8.347996235077829E-006
  2.160069753841590E-005  8.347996235077829E-006
  2.499172676621180E-005  8.347996235077829E-006
  3.240318830192805E-005  8.347996235077829E-006
  4.469064977461957E-005  8.347996235077829E-006
  4.832975962698517E-005  8.347996235077829E-006
  4.892984031412759E-005  8.347996235077829E-006
  5.455720939154425E-005  8.347996235077829E-006
  6.102901645193504E-005  8.347996235077829E-006
  7.132848522861675E-005  8.347996235077829E-006
  9.346265152047087E-005  8.347996235077829E-006
  1.034869863756765E-004  8.347996235077829E-006
  1.055541295191989E-004  8.347996235077829E-006
  1.055748175545196E-004  8.347996235077829E-006
  1.087608507859427E-004  8.347996235077829E-006
  1.100729038544622E-004  8.347996235077829E-006
  1.343627576073804E-004  8.347996235077829E-006
  1.706518679118471E-004  8.347996235077829E-006
  1.782618433422934E-004  8.347996235077829E-006
  2.559575624785269E-004  8.347996235077829E-006
  2.589484668864469E-004  8.347996235077829E-006
  3.146557836129314E-004  8.347996235077829E-006
  3.458627433878557E-004  8.347996235077829E-006
  3.472249424236937E-004  8.347996235077829E-006
  3.525599474121134E-004  8.347996235077829E-006
  4.057197689976250E-004  8.347996235077829E-006
  4.468088438019296E-004  8.347996235077829E-006
  4.541313064704944E-004  8.347996235077829E-006
  5.284459784464437E-004  8.347996235077829E-006
  5.965362213610420E-004  8.347996235077829E-006
  5.969276931474589E-004  8.347996235077829E-006
  6.227735132246877E-004  8.347996235077829E-006
  6.270991983256970E-004  8.347996235077829E-006
  6.777128472443475E-004  8.347996235077829E-006
  1.080578142466018E-003  8.347996235077829E-006
  1.082022443221575E-003  8.347996235077829E-006
  1.183570199188544E-003  8.347996235077829E-006
  1.183788636636377E-003  8.347996235077829E-006
  1.184311861157680E-003  8.347996235077829E-006
  1.303679530314870E-003  8.347996235077829E-006
  1.873139235889150E-003  8.347996235077829E-006
  2.007905423205384E-003  8.347996235077829E-006
  2.420035913285542E-003  8.347996235077829E-006
  3.879473670982911E-003  8.347996235077829E-006
  3.984028078138240E-003  8.347996235077829E-006
 cut=1d-8, nber non-redundant internal coords=          48
 Check on Eigenvals of non-red overlap matrix:
  0.00000835  0.00000986  0.00001161  0.00002159  0.00002160  0.00002499  0.00003240  0.00004469
  0.00004833  0.00004893  0.00005456  0.00006103  0.00007133  0.00009346  0.00010349  0.00010555
  0.00010557  0.00010876  0.00011007  0.00013436  0.00017065  0.00017826  0.00025596  0.00025895
  0.00031466  0.00034586  0.00034722  0.00035256  0.00040572  0.00044681  0.00045413  0.00052845
  0.00059654  0.00059693  0.00062277  0.00062710  0.00067771  0.00108058  0.00108202  0.00118357
  0.00118379  0.00118431  0.00130368  0.00187314  0.00200791  0.00242004  0.00387947  0.00398403
 Checking for correct frequencies
 recalc frequencies=
    -0.0   -0.0    0.0    0.0    0.0    0.0   67.4   96.2  139.7  148.5
   201.9  265.4  297.1  327.0  361.2  386.7  417.0  468.7  489.9  539.7
   539.9  618.0  673.8  691.1  696.0  743.0  753.9  778.7  825.2  832.9
   855.7  877.0  891.4  891.8  895.3 1006.2 1104.7 1124.0 1197.3 1232.0
  1256.8 1301.2 1383.1 1434.1 1444.7 1454.6 1560.2 1562.2 1742.2 1765.4
  3207.8 3212.2 3240.3 3240.7
 recalc symmetries=
     B2     B1     B1     A2     A1     B2     A2     B1     A2     B1 
     A1     B2     A2     A1     A1     B2     B1     A2     A1     B2 
     B1     B1     A2     B2     A1     B1     A2     B2     A2     A1 
     B2     B2     A1     A2     B1     A1     B2     A1     B2     B2 
     A1     A1     B2     A1     A1     B2     A1     B2     A1     B2 
     B2     A1     B2     A1 
 recalc freqs check OK
 Zero-point lengths:
 10.0000 10.0000 10.0000 10.0000 10.0000 10.0000 30.1915 25.2801 20.9785 20.3451
 17.4458 15.2169 14.3821 13.7094 13.0446 12.6064 12.1410 11.4512 11.2004 10.6713
 10.6690  9.9724  9.5506  9.4303  9.3967  9.0950  9.0291  8.8842  8.6299  8.5901
  8.4751  8.3715  8.3034  8.3017  8.2853  7.8155  7.4589  7.3945  7.1648  7.0629
  6.9929  6.8727  6.6661  6.5464  6.5224  6.5002  6.2763  6.2724  5.9395  5.9003
  4.3771  4.3742  4.3551  4.3549
 highest evec of mol 1
  0.0000  0.0001  0.0000
  0.0000 -0.0000  0.0003
  0.0000  0.0000  0.0003
  0.0000 -0.0001  0.0000
  0.0000  0.0022 -0.0019
  0.0000 -0.0006 -0.0020
  0.0000 -0.1654  0.1114
  0.0000  0.0303  0.0644
  0.0000  0.0031 -0.0038
  0.0000 -0.0031 -0.0038
  0.0000 -0.0303  0.0644
  0.0000  0.1654  0.1114
  0.0000  0.0006 -0.0020
  0.0000 -0.0022 -0.0019
  0.0000  0.5173 -0.3811
  0.0000 -0.0632 -0.1957
  0.0000  0.0632 -0.1957
  0.0000 -0.5173 -0.3811
 generating redundant internal coords
         300        3600          18
 Adding extra bonds for z output only
           8           6           6           8           6          16
           6           6           6           6           6           6
          16           6           1           1           1           1
 search for int coords
   1 str   2   1   1.210
   2 str   3   2   1.575
   3 str   4   3   1.210
   4 str   5   3   1.459
   5 str   6   5   1.737
   6 str   7   6   1.724
   7 str   8   7   1.370
   8 str   9   5   1.387
   9 str   9   8   1.421
  10 str  10   9   1.461
  11 str  11  10   1.421
  12 str  12  11   1.370
  13 str  13  12   1.724
  14 str  14   2   1.459
  15 str  14  10   1.387
  16 str  14  13   1.737
  17 str  15   7   1.080
  18 str  16   8   1.081
  19 str  17  11   1.081
  20 str  18  12   1.080
 nber stretches=          20
  21 ben   1   2   3
  22 prop tor   1   2   3   4
  23 prop tor   1   2   3   5
  24 ben   1   2  14
  25 prop tor   1   2  14  10
  26 prop tor   1   2  14  13
  27 ben   2   3   4
  28 ben   2   3   5
  29 prop tor   2   3   5   6
  30 prop tor   2   3   5   9
  31 ben   2  14  10
  32 ben   2  14  13
  33 ben   3   2  14
  34 prop tor   3   2  14  10
  35 prop tor   3   2  14  13
  36 ben   3   5   6
  37 prop tor   3   5   6   7
  38 ben   3   5   9
  39 prop tor   3   5   9   8
  40 prop tor   3   5   9  10
  41 ben   4   3   5
  42 prop tor   4   3   5   6
  43 prop tor   4   3   5   9
  44 ben   5   6   7
  45 prop tor   5   6   7   8
  46 prop tor   5   6   7  15
  47 ben   5   9   8
  48 ben   5   9  10
  49 prop tor   5   9  10  11
  50 prop tor   5   9  10  14
  51 ben   6   5   9
  52 prop tor   6   5   9   8
  53 prop tor   6   5   9  10
  54 ben   6   7   8
  55 prop tor   6   7   8   9
  56 prop tor   6   7   8  16
  57 ben   6   7  15
  58 ben   7   8   9
  59 prop tor   7   8   9   5
  60 prop tor   7   8   9  10
  61 ben   7   8  16
  62 ben   8   7  15
  63 ben   8   9  10
  64 prop tor   8   9  10  11
  65 prop tor   8   9  10  14
  66 prop tor   9   5   6   7
  67 ben   9   8  16
  68 ben   9  10  11
  69 prop tor   9  10  11  12
  70 prop tor   9  10  11  17
  71 ben   9  10  14
  72 prop tor   9  10  14   2
  73 prop tor   9  10  14  13
  74 ben  10  11  12
  75 prop tor  10  11  12  13
  76 prop tor  10  11  12  18
  77 ben  10  11  17
  78 ben  10  14  13
  79 ben  11  10  14
  80 prop tor  11  10  14   2
  81 prop tor  11  10  14  13
  82 ben  11  12  13
  83 prop tor  11  12  13  14
  84 ben  11  12  18
  85 ben  12  11  17
  86 ben  12  13  14
  87 prop tor  12  13  14   2
  88 prop tor  12  13  14  10
  89 ben  13  12  18
  90 prop tor  14   2   3   4
  91 prop tor  14   2   3   5
  92 prop tor  14  10  11  12
  93 prop tor  14  10  11  17
  94 prop tor  15   7   8   9
  95 prop tor  15   7   8  16
  96 prop tor  16   8   9   5
  97 prop tor  16   8   9  10
  98 prop tor  17  11  12  13
  99 prop tor  17  11  12  18
 100 prop tor  18  12  13  14
 nber bend=              32
 nber lin bend=           0
 nber prop tor=          48
 nber impr tor=           0
 nber tot redund int=         100
 Reading file: 
 ./conjugated_carbonyls_2_C-3S0.log                                             
                                          
  Entering Gaussian System, Link 0=g16                                          
  
 Gaussian format, type: g94, g98, g03= F F F
  #P Geom=AllCheck Guess=TCheck SCRF=Check Test GenChk UB3LYP/6-311G(d,p    
 energy type= B3LYP   
 Original G94 input coords:
  8  1.411297 -3.395385 -0.000032
  6  0.757386 -2.314844 -0.000010
  6 -0.757385 -2.314846  0.000014
  8 -1.411299 -3.395394  0.000032
  6 -1.381540 -1.011843  0.000025
 16 -3.142064 -0.725624  0.000060
  6 -2.986280  1.044981  0.000047
  6 -1.645181  1.341862  0.000015
  6 -0.723446  0.224918  0.000005
  6  0.723446  0.224919 -0.000008
  6  1.645180  1.341863 -0.000003
  6  2.986280  1.044981 -0.000060
 16  3.142063 -0.725623 -0.000077
  6  1.381541 -1.011842 -0.000025
  1 -4.462691  2.464038  0.000018
  1 -1.291059  2.371903  0.000018
  1  1.291059  2.371903 -0.000010
  1  4.462693  2.464034 -0.000009
 nber atoms=          18
  SCF Done:  E(UB3LYP) =  -1330.03136115     A.U. after    1 cycles             
  
          23          40 "  -1330.03136115"
After scan for Atom:   Atom  AN      X      Y      Z        X      Y      Z        X      Y      Z   
After scan for Atom:   Atom  AN      X      Y      Z        X      Y      Z        X      Y      Z   
After scan for Atom:   Atom  AN      X      Y      Z        X      Y      Z        X      Y      Z   
After scan for Atom:   Atom  AN      X      Y      Z        X      Y      Z        X      Y      Z   
After scan for Atom:   Atom  AN      X      Y      Z        X      Y      Z        X      Y      Z   
After scan for Atom:   Atom  AN      X      Y      Z        X      Y      Z        X      Y      Z   
After scan for Atom:   Atom  AN      X      Y      Z        X      Y      Z        X      Y      Z   
After scan for Atom:   Atom  AN      X      Y      Z        X      Y      Z        X      Y      Z   
After scan for Atom:   Atom  AN      X      Y      Z        X      Y      Z        X      Y      Z   
After scan for Atom:   Atom  AN      X      Y      Z        X      Y      Z        X      Y      Z   
After scan for Atom:   Atom  AN      X      Y      Z        X      Y      Z        X      Y      Z   
After scan for Atom:   Atom  AN      X      Y      Z        X      Y      Z        X      Y      Z   
After scan for Atom:   Atom  AN      X      Y      Z        X      Y      Z        X      Y      Z   
After scan for Atom:   Atom  AN      X      Y      Z        X      Y      Z        X      Y      Z   
After scan for Atom:   Atom  AN      X      Y      Z        X      Y      Z        X      Y      Z   
After scan for Atom:   Atom  AN      X      Y      Z        X      Y      Z        X      Y      Z   
 g94    frequencies=
     0.0    0.0    0.0    0.0    0.0    0.0   85.3  105.9  120.7  124.3
   168.5  169.2  170.1  180.4  222.9  257.6  300.6  323.7  369.0  393.0
   411.2  444.0  450.7  466.0  483.2  518.3  541.8  615.5  619.6  630.4
   686.7  700.0  710.1  758.6  791.4  798.7  804.7  836.5  877.0 1003.2
  1136.3 1181.6 1207.9 1221.1 1243.7 1350.4 1395.7 1403.1 1492.1 1500.4
  1534.7 1545.5 3090.8 3101.7
 g94    symmetries=
                                                 A      A      A      A
       A      A      A      A      A      A      A      A      A      A
       A      A      A      A      A      A      A      A      A      A
       A      A      A      A      A      A      A      A      A      A
       A      A      A      A      A      A      A      A      A      A
       A      A      A      A
 atomic masses:
 15.9949 12.0000 12.0000 15.9949 12.0000 31.9721 12.0000 12.0000 12.0000 12.0000
 12.0000 12.0000 31.9721 12.0000  1.0078  1.0078  1.0078  1.0078
 looking for force constants in 
 ./conjugated_carbonyls_2_C-3S0.fchk                                            
  
 Cartesian Force Constants                  R   N=        1485                  
  
 n3=          54        1485
 g94-fc frequencies=
    -1.7   -0.6    0.0    0.0    0.0    1.5   85.3  105.9  120.7  124.3
   168.5  169.2  170.1  180.4  222.9  257.6  300.6  323.7  369.0  393.0
   411.2  444.0  450.7  466.0  483.3  518.4  541.9  615.5  619.6  630.4
   686.7  700.0  710.2  758.7  791.4  798.7  804.7  836.5  877.0 1003.2
  1136.3 1181.6 1208.0 1221.2 1243.7 1350.4 1395.7 1403.1 1492.1 1500.4
  1534.7 1545.5 3090.9 3101.8
 at 99999: n3=          54
 symm operator            1 :  F  nop=           0
 symm operator            2 :  T  nop=           1
 symm operator            3 :  F  nop=           1
 symm operator            4 :  F  nop=           1
 symm operator            5 :  T  nop=           2
 symm operator            6 :  F  nop=           2
 symm operator            7 :  F  nop=           2
 The point group of the molecule is  D2
 enforcing symm op           2  jsymt=          -1           1          -1
 enforcing symm op           5  jsymt=           1           1          -1
 cartesian coord symmetries:
 A  :    0 B1 :    9 B2 :    9 B3 :    9
 Symmetry rotation matrix:
   1.00000   0.00000   0.00000
   0.00000   1.00000   0.00000
   0.00000   0.00000   1.00000

 Projecting out zero-frequency components
 generating redundant internal coords
         300        3600          18
 unconnected atom          15           1
