 Enter ifcurve (0=recti, 1=orth curvi, 2=apprx curvi, -1 = skip
 And atom ordering flag, 0= never changes, 1= use the first order thenceforth,
  2= deduce it (does read on fail), 3= always read it
 Reading file: 
 ./IDT-A_1_C0S2.log                                                             
                                          
  Entering Gaussian System, Link 0=g16                                          
  
 Gaussian format, type: g94, g98, g03= F F F
  #P Geom=AllCheck Guess=TCheck SCRF=Check GenChk RB3LYP TD(FC,Read)/6-3    
 energy type= TD      
 Original G94 input coords:
  6  0.977641 -1.254643 -1.352395
  6  2.435668 -1.009740 -0.906683
  6  2.642535 -1.499716  0.542919
  6  3.425505 -1.657844 -1.860363
  6  3.723983 -2.969296 -2.291458
  6  4.754547 -2.988278 -3.200480
 16  5.380322 -1.394953 -3.545935
  6  4.232669 -0.695495 -2.446661
  6  3.900311  0.620329 -1.985050
  6  4.431093  1.889714 -2.289403
  6  3.884632  2.988629 -1.666970
  6  2.804218  2.840314 -0.734219
  6  2.274010  1.564890 -0.431729
  6  2.824154  0.469057 -1.057319
  6  2.471469  4.138757 -0.273257
 16  1.321639  4.829559  0.831705
  6  1.943307  6.469759  0.485189
  6  1.377697  7.614558  1.123773
  6  0.269561  7.519291  2.009177
  6 -0.254812  8.626015  2.635682
  6  0.269107  9.929213  2.421905
  6 -0.305785 11.120944  3.030528
  6 -0.400545 12.295870  2.245433
  6 -1.053730 13.424334  2.680598
  6 -1.653866 13.470832  3.961151
  6 -2.369885 14.609849  4.418906
  6 -2.930847 14.646935  5.666567
  6 -2.800643 13.545613  6.564280
  6 -3.351124 13.564827  7.860678
  6 -3.191713 12.482065  8.719946
  6 -2.480834 11.358571  8.318942
  6 -1.914191 11.289626  7.028991
  6 -1.149635 10.173652  6.586792
  6 -0.626606 10.119397  5.322017
  6 -0.829511 11.163245  4.371468
  6 -1.523607 12.334220  4.817254
  6 -2.080483 12.387487  6.132153
  6  1.360263 10.024375  1.514427
  6  1.898993  8.919598  0.899259
  6  2.998306  6.409152 -0.449668
  6  3.284570  5.115975 -0.864403
  6  4.273477  4.466190 -1.819506
  6  4.064056  4.957116 -3.268156
  6  5.731042  4.713337 -1.374274
  1  0.738137 -2.320665 -1.307245
  1  0.817157 -0.910045 -2.375951
  1  0.279896 -0.724576 -0.698489
  1  2.429465 -2.569595  0.618683
  1  1.972109 -0.973375  1.227682
  1  3.669922 -1.330398  0.871508
  1  3.218720 -3.867964 -1.962534
  1  5.191943 -3.842115 -3.694993
  1  5.248012  1.989143 -2.996325
  1  1.457038  1.464587  0.274572
  1 -0.195712  6.554848  2.181840
  1 -1.124642  8.505552  3.268080
  1 -0.008073 12.277015  1.235434
  1 -1.141485 14.285830  2.027046
  1 -2.465268 15.460940  3.752181
  1 -3.478003 15.523930  5.996284
  1 -3.901626 14.441647  8.184771
  1 -3.622792 12.518887  9.714722
  1 -2.350530 10.521664  8.996781
  1 -0.969094  9.359225  7.280944
  1 -0.016798  9.269932  5.046487
  1  1.812066 10.993000  1.337384
  1  2.753055  9.051809  0.246156
  1  3.510154  7.295061 -0.797608
  1  4.735336  4.433238 -3.954088
  1  4.273604  6.027775 -3.342016
  1  3.036666  4.786339 -3.595785
  1  5.892697  4.368203 -0.351146
  1  5.967280  5.780132 -1.417131
  1  6.429511  4.185819 -2.029592
 nber atoms=          74
  Total Energy, E(TD-HF/TD-DFT) =  -2415.30310060                               
  
          32          49 "  -2415.30310060"
After scan for Atom:   Atom  AN      X      Y      Z        X      Y      Z        X      Y      Z   
After scan for Atom:   Atom  AN      X      Y      Z        X      Y      Z        X      Y      Z   
After scan for Atom:   Atom  AN      X      Y      Z        X      Y      Z        X      Y      Z   
After scan for Atom:   Atom  AN      X      Y      Z        X      Y      Z        X      Y      Z   
After scan for Atom:   Atom  AN      X      Y      Z        X      Y      Z        X      Y      Z   
After scan for Atom:   Atom  AN      X      Y      Z        X      Y      Z        X      Y      Z   
After scan for Atom:   Atom  AN      X      Y      Z        X      Y      Z        X      Y      Z   
After scan for Atom:   Atom  AN      X      Y      Z        X      Y      Z        X      Y      Z   
After scan for Atom:   Atom  AN      X      Y      Z        X      Y      Z        X      Y      Z   
After scan for Atom:   Atom  AN      X      Y      Z        X      Y      Z        X      Y      Z   
After scan for Atom:   Atom  AN      X      Y      Z        X      Y      Z        X      Y      Z   
After scan for Atom:   Atom  AN      X      Y      Z        X      Y      Z        X      Y      Z   
After scan for Atom:   Atom  AN      X      Y      Z        X      Y      Z        X      Y      Z   
After scan for Atom:   Atom  AN      X      Y      Z        X      Y      Z        X      Y      Z   
After scan for Atom:   Atom  AN      X      Y      Z        X      Y      Z        X      Y      Z   
After scan for Atom:   Atom  AN      X      Y      Z        X      Y      Z        X      Y      Z   
After scan for Atom:   Atom  AN      X      Y      Z        X      Y      Z        X      Y      Z   
After scan for Atom:   Atom  AN      X      Y      Z        X      Y      Z        X      Y      Z   
After scan for Atom:   Atom  AN      X      Y      Z        X      Y      Z        X      Y      Z   
After scan for Atom:   Atom  AN      X      Y      Z        X      Y      Z        X      Y      Z   
After scan for Atom:   Atom  AN      X      Y      Z        X      Y      Z        X      Y      Z   
After scan for Atom:   Atom  AN      X      Y      Z        X      Y      Z        X      Y      Z   
After scan for Atom:   Atom  AN      X      Y      Z        X      Y      Z        X      Y      Z   
After scan for Atom:   Atom  AN      X      Y      Z        X      Y      Z        X      Y      Z   
After scan for Atom:   Atom  AN      X      Y      Z        X      Y      Z        X      Y      Z   
After scan for Atom:   Atom  AN      X      Y      Z        X      Y      Z        X      Y      Z   
After scan for Atom:   Atom  AN      X      Y      Z        X      Y      Z        X      Y      Z   
After scan for Atom:   Atom  AN      X      Y      Z        X      Y      Z        X      Y      Z   
After scan for Atom:   Atom  AN      X      Y      Z        X      Y      Z        X      Y      Z   
After scan for Atom:   Atom  AN      X      Y      Z        X      Y      Z        X      Y      Z   
After scan for Atom:   Atom  AN      X      Y      Z        X      Y      Z        X      Y      Z   
After scan for Atom:   Atom  AN      X      Y      Z        X      Y      Z        X      Y      Z   
After scan for Atom:   Atom  AN      X      Y      Z        X      Y      Z        X      Y      Z   
After scan for Atom:   Atom  AN      X      Y      Z        X      Y      Z        X      Y      Z   
After scan for Atom:   Atom  AN      X      Y      Z        X      Y      Z        X      Y      Z   
After scan for Atom:   Atom  AN      X      Y      Z        X      Y      Z        X      Y      Z   
After scan for Atom:   Atom  AN      X      Y      Z        X      Y      Z        X      Y      Z   
After scan for Atom:   Atom  AN      X      Y      Z        X      Y      Z        X      Y      Z   
After scan for Atom:   Atom  AN      X      Y      Z        X      Y      Z        X      Y      Z   
After scan for Atom:   Atom  AN      X      Y      Z        X      Y      Z        X      Y      Z   
After scan for Atom:   Atom  AN      X      Y      Z        X      Y      Z        X      Y      Z   
After scan for Atom:   Atom  AN      X      Y      Z        X      Y      Z        X      Y      Z   
After scan for Atom:   Atom  AN      X      Y      Z        X      Y      Z        X      Y      Z   
After scan for Atom:   Atom  AN      X      Y      Z        X      Y      Z        X      Y      Z   
After scan for Atom:   Atom  AN      X      Y      Z        X      Y      Z        X      Y      Z   
After scan for Atom:   Atom  AN      X      Y      Z        X      Y      Z        X      Y      Z   
After scan for Atom:   Atom  AN      X      Y      Z        X      Y      Z        X      Y      Z   
After scan for Atom:   Atom  AN      X      Y      Z        X      Y      Z        X      Y      Z   
After scan for Atom:   Atom  AN      X      Y      Z        X      Y      Z        X      Y      Z   
After scan for Atom:   Atom  AN      X      Y      Z        X      Y      Z        X      Y      Z   
After scan for Atom:   Atom  AN      X      Y      Z        X      Y      Z        X      Y      Z   
After scan for Atom:   Atom  AN      X      Y      Z        X      Y      Z        X      Y      Z   
After scan for Atom:   Atom  AN      X      Y      Z        X      Y      Z        X      Y      Z   
After scan for Atom:   Atom  AN      X      Y      Z        X      Y      Z        X      Y      Z   
After scan for Atom:   Atom  AN      X      Y      Z        X      Y      Z        X      Y      Z   
After scan for Atom:   Atom  AN      X      Y      Z        X      Y      Z        X      Y      Z   
After scan for Atom:   Atom  AN      X      Y      Z        X      Y      Z        X      Y      Z   
After scan for Atom:   Atom  AN      X      Y      Z        X      Y      Z        X      Y      Z   
After scan for Atom:   Atom  AN      X      Y      Z        X      Y      Z        X      Y      Z   
After scan for Atom:   Atom  AN      X      Y      Z        X      Y      Z        X      Y      Z   
After scan for Atom:   Atom  AN      X      Y      Z        X      Y      Z        X      Y      Z   
After scan for Atom:   Atom  AN      X      Y      Z        X      Y      Z        X      Y      Z   
After scan for Atom:   Atom  AN      X      Y      Z        X      Y      Z        X      Y      Z   
After scan for Atom:   Atom  AN      X      Y      Z        X      Y      Z        X      Y      Z   
After scan for Atom:   Atom  AN      X      Y      Z        X      Y      Z        X      Y      Z   
After scan for Atom:   Atom  AN      X      Y      Z        X      Y      Z        X      Y      Z   
After scan for Atom:   Atom  AN      X      Y      Z        X      Y      Z        X      Y      Z   
After scan for Atom:   Atom  AN      X      Y      Z        X      Y      Z        X      Y      Z   
After scan for Atom:   Atom  AN      X      Y      Z        X      Y      Z        X      Y      Z   
After scan for Atom:   Atom  AN      X      Y      Z        X      Y      Z        X      Y      Z   
After scan for Atom:   Atom  AN      X      Y      Z        X      Y      Z        X      Y      Z   
After scan for Atom:   Atom  AN      X      Y      Z        X      Y      Z        X      Y      Z   
 g94    frequencies=
     0.0    0.0    0.0    0.0    0.0    0.0   10.5   11.6   20.4   27.1
    45.6   52.1   66.6   73.1   88.5  104.0  104.4  110.0  120.4  128.5
   142.9  151.9  159.9  185.5  199.1  208.4  221.0  222.7  232.4  243.2
   245.5  245.8  264.6  270.8  278.6  287.0  291.7  303.1  316.0  329.6
   346.4  371.1  372.7  403.5  411.0  413.9  417.0  424.4  431.7  447.1
   450.4  465.7  479.4  487.2  494.6  503.4  504.1  515.5  522.7  541.8
   549.1  554.1  565.9  570.7  573.3  602.5  617.8  618.2  632.9  640.4
   656.6  663.9  667.8  679.1  682.3  699.9  707.9  709.5  720.9  727.5
   732.4  737.5  741.8  754.6  772.5  776.7  792.1  794.8  802.9  812.1
   824.7  828.8  830.2  834.5  840.2  850.7  852.7  864.8  878.5  882.0
   884.8  891.5  898.2  937.6  949.2  949.6  950.9  959.3  962.3  968.1
   972.4  981.8  983.2  990.4  994.2  999.8 1004.8 1016.1 1030.2 1030.9
  1068.8 1093.5 1096.1 1104.4 1127.8 1134.7 1141.9 1155.0 1156.1 1163.3
  1163.4 1170.0 1182.0 1195.0 1200.0 1211.7 1219.3 1229.4 1235.2 1237.2
  1243.0 1248.1 1253.7 1267.5 1271.5 1281.1 1288.7 1307.5 1326.9 1341.9
  1357.1 1361.9 1364.7 1370.3 1376.1 1385.1 1397.1 1398.7 1398.9 1412.8
  1420.5 1422.5 1439.6 1446.3 1448.7 1454.5 1476.5 1484.5 1484.6 1485.8
  1487.2 1488.3 1490.1 1493.8 1495.8 1502.6 1503.8 1506.3 1508.5 1511.5
  1515.1 1525.7 1528.9 1536.5 1549.1 1553.2 1598.6 1605.3 1615.4 1622.5
  1632.2 1648.7 3025.3 3025.3 3029.0 3029.2 3088.6 3088.7 3093.7 3093.8
  3105.5 3105.9 3107.1 3107.6 3151.9 3153.8 3158.5 3158.7 3163.0 3164.9
  3166.2 3169.7 3171.2 3171.9 3179.0 3180.7 3190.9 3194.3 3200.7 3204.1
  3215.5 3242.7
 g94    symmetries=
                                                 A      A      A      A
       A      A      A      A      A      A      A      A      A      A
       A      A      A      A      A      A      A      A      A      A
       A      A      A      A      A      A      A      A      A      A
       A      A      A      A      A      A      A      A      A      A
       A      A      A      A      A      A      A      A      A      A
       A      A      A      A      A      A      A      A      A      A
       A      A      A      A      A      A      A      A      A      A
       A      A      A      A      A      A      A      A      A      A
       A      A      A      A      A      A      A      A      A      A
       A      A      A      A      A      A      A      A      A      A
       A      A      A      A      A      A      A      A      A      A
       A      A      A      A      A      A      A      A      A      A
       A      A      A      A      A      A      A      A      A      A
       A      A      A      A      A      A      A      A      A      A
       A      A      A      A      A      A      A      A      A      A
       A      A      A      A      A      A      A      A      A      A
       A      A      A      A      A      A      A      A      A      A
       A      A      A      A      A      A      A      A      A      A
       A      A      A      A      A      A      A      A      A      A
       A      A      A      A      A      A      A      A      A      A
       A      A      A      A      A      A      A      A      A      A
       A      A
 atomic masses:
 12.0000 12.0000 12.0000 12.0000 12.0000 12.0000 31.9721 12.0000 12.0000 12.0000
 12.0000 12.0000 12.0000 12.0000 12.0000 31.9721 12.0000 12.0000 12.0000 12.0000
 12.0000 12.0000 12.0000 12.0000 12.0000 12.0000 12.0000 12.0000 12.0000 12.0000
 12.0000 12.0000 12.0000 12.0000 12.0000 12.0000 12.0000 12.0000 12.0000 12.0000
 12.0000 12.0000 12.0000 12.0000  1.0078  1.0078  1.0078  1.0078  1.0078  1.0078
  1.0078  1.0078  1.0078  1.0078  1.0078  1.0078  1.0078  1.0078  1.0078  1.0078
  1.0078  1.0078  1.0078  1.0078  1.0078  1.0078  1.0078  1.0078  1.0078  1.0078
  1.0078  1.0078  1.0078  1.0078
 looking for force constants in 
 ./IDT-A_1_C0S2.fchk                                                            
  
 Cartesian Force Constants                  R   N=       24753                  
  
 n3=         222       24753
 g94-fc frequencies=
    -4.0   -0.9   -0.0   -0.0    0.0    0.8   10.1   11.4   20.4   27.0
    45.1   51.9   66.5   73.1   88.2  104.0  104.2  109.9  120.4  128.4
   142.9  151.8  159.9  185.5  199.1  208.4  221.0  222.7  232.5  243.4
   245.6  246.0  264.7  271.2  278.9  287.1  291.7  303.1  316.2  329.7
   346.4  371.1  372.7  403.6  411.0  413.9  417.0  424.5  431.8  447.2
   450.4  465.7  479.4  487.1  494.6  503.4  504.1  515.5  522.7  541.8
   549.2  554.1  565.9  570.7  573.4  602.5  617.9  618.2  632.9  640.4
   656.6  663.9  667.8  679.1  682.3  699.9  707.9  709.5  720.9  727.6
   732.4  737.5  741.8  754.6  772.5  776.7  792.1  794.8  803.0  812.2
   824.7  828.8  830.3  834.5  840.3  850.6  852.7  864.8  878.7  882.0
   884.8  891.7  898.2  937.6  949.0  949.4  950.9  959.3  962.4  968.1
   972.4  981.8  983.2  990.4  994.2  999.8 1004.8 1016.2 1030.1 1030.8
  1068.8 1093.5 1096.2 1104.4 1127.8 1134.7 1141.9 1154.7 1155.8 1163.3
  1163.4 1170.0 1182.0 1195.0 1200.0 1211.7 1219.3 1229.4 1235.2 1237.3
  1243.0 1248.2 1253.8 1267.5 1271.5 1281.1 1288.7 1307.5 1327.0 1341.9
  1357.1 1361.9 1364.7 1370.4 1376.1 1385.1 1397.2 1398.7 1398.9 1412.8
  1420.6 1422.6 1439.6 1446.3 1448.7 1454.5 1476.6 1484.5 1484.6 1485.8
  1487.2 1488.3 1490.1 1493.8 1495.9 1502.6 1503.8 1506.4 1508.6 1511.6
  1515.1 1525.7 1529.0 1536.5 1549.2 1553.2 1598.6 1605.3 1615.4 1622.5
  1632.3 1648.7 3025.4 3025.4 3029.0 3029.3 3088.6 3088.8 3093.8 3093.9
  3105.5 3106.0 3107.2 3107.7 3152.0 3153.8 3158.6 3158.8 3163.0 3165.0
  3166.3 3169.8 3171.3 3171.9 3179.0 3180.9 3191.0 3194.4 3200.9 3204.2
  3215.6 3242.8
 at 99999: n3=         222
 symm operator            1 :  F  nop=           0
 symm operator            2 :  F  nop=           0
 symm operator            3 :  F  nop=           0
 symm operator            4 :  F  nop=           0
 symm operator            5 :  F  nop=           0
 symm operator            6 :  F  nop=           0
 symm operator            7 :  F  nop=           0
 The point group of the molecule is  C1
 Symmetry rotation matrix:
   1.00000   0.00000   0.00000
   0.00000   1.00000   0.00000
   0.00000   0.00000   1.00000

 Projecting out zero-frequency components
 generating redundant internal coords
         300        3600          74
 search for int coords
   1 str   2   1   1.544
   2 str   3   2   1.544
   3 str   4   2   1.520
   4 str   5   4   1.412
   5 str   6   5   1.374
   6 str   7   6   1.746
   7 str   8   4   1.386
   8 str   8   7   1.736
   9 str   9   8   1.434
  10 str  10   9   1.409
  11 str  11  10   1.376
  12 str  12  11   1.435
  13 str  13  12   1.414
  14 str  14   2   1.536
  15 str  14   9   1.429
  16 str  14  13   1.377
  17 str  15  12   1.417
  18 str  16  15   1.738
  19 str  17  16   1.788
  20 str  18  17   1.428
  21 str  19  18   1.422
  22 str  20  19   1.376
  23 str  21  20   1.421
  24 str  22  21   1.456
  25 str  23  22   1.416
  26 str  24  23   1.375
  27 str  25  24   1.415
  28 str  26  25   1.421
  29 str  27  26   1.368
  30 str  28  27   1.427
  31 str  29  28   1.409
  32 str  30  29   1.391
  33 str  31  30   1.389
  34 str  32  31   1.411
  35 str  33  32   1.423
  36 str  34  33   1.370
  37 str  35  22   1.440
  38 str  35  34   1.426
  39 str  36  25   1.429
  40 str  36  35   1.432
  41 str  37  28   1.431
  42 str  37  32   1.427
  43 str  37  36   1.429
  44 str  38  21   1.422
  45 str  39  18   1.423
  46 str  39  38   1.374
  47 str  40  17   1.411
  48 str  41  15   1.402
  49 str  41  40   1.388
  50 str  42  11   1.535
  51 str  42  41   1.521
  52 str  43  42   1.544
  53 str  44  42   1.544
  54 str  45   1   1.094
  55 str  46   1   1.092
  56 str  47   1   1.093
  57 str  48   3   1.094
  58 str  49   3   1.093
  59 str  50   3   1.092
  60 str  51   5   1.082
  61 str  52   6   1.079
  62 str  53  10   1.085
  63 str  54  13   1.085
  64 str  55  19   1.085
  65 str  56  20   1.082
  66 str  57  23   1.084
  67 str  58  24   1.085
  68 str  59  26   1.085
  69 str  60  27   1.085
  70 str  61  29   1.085
  71 str  62  30   1.085
  72 str  63  31   1.085
  73 str  64  33   1.085
  74 str  65  34   1.081
  75 str  66  38   1.083
  76 str  67  39   1.083
  77 str  68  40   1.081
  78 str  69  43   1.093
  79 str  70  43   1.093
  80 str  71  43   1.092
  81 str  72  44   1.092
  82 str  73  44   1.093
  83 str  74  44   1.093
 nber stretches=          83
  84 ben   1   2   3
  85 prop tor   1   2   3  48
  86 prop tor   1   2   3  49
  87 prop tor   1   2   3  50
  88 ben   1   2   4
  89 prop tor   1   2   4   5
  90 prop tor   1   2   4   8
  91 ben   1   2  14
  92 prop tor   1   2  14   9
  93 prop tor   1   2  14  13
  94 ben   2   1  45
  95 ben   2   1  46
  96 ben   2   1  47
  97 ben   2   3  48
  98 ben   2   3  49
  99 ben   2   3  50
 100 ben   2   4   5
 101 prop tor   2   4   5   6
 102 prop tor   2   4   5  51
 103 ben   2   4   8
 104 prop tor   2   4   8   7
 105 prop tor   2   4   8   9
 106 ben   2  14   9
 107 ben   2  14  13
 108 ben   3   2   4
 109 prop tor   3   2   4   5
 110 prop tor   3   2   4   8
 111 ben   3   2  14
 112 prop tor   3   2  14   9
 113 prop tor   3   2  14  13
 114 prop tor   4   2   3  48
 115 prop tor   4   2   3  49
 116 prop tor   4   2   3  50
 117 ben   4   2  14
 118 prop tor   4   2  14   9
 119 prop tor   4   2  14  13
 120 ben   4   5   6
 121 prop tor   4   5   6   7
 122 prop tor   4   5   6  52
 123 ben   4   5  51
 124 ben   4   8   7
 125 ben   4   8   9
 126 prop tor   4   8   9  10
 127 prop tor   4   8   9  14
 128 ben   5   4   8
 129 prop tor   5   4   8   7
 130 prop tor   5   4   8   9
 131 ben   5   6   7
 132 prop tor   5   6   7   8
 133 ben   5   6  52
 134 ben   6   5  51
 135 ben   6   7   8
 136 prop tor   6   7   8   4
 137 prop tor   6   7   8   9
 138 ben   7   6  52
 139 ben   7   8   9
 140 prop tor   7   8   9  10
 141 prop tor   7   8   9  14
 142 prop tor   8   4   5   6
 143 prop tor   8   4   5  51
 144 ben   8   9  10
 145 prop tor   8   9  10  11
 146 prop tor   8   9  10  53
 147 ben   8   9  14
 148 prop tor   8   9  14   2
 149 prop tor   8   9  14  13
 150 ben   9  10  11
 151 prop tor   9  10  11  12
 152 prop tor   9  10  11  42
 153 ben   9  10  53
 154 ben   9  14  13
 155 ben  10   9  14
 156 prop tor  10   9  14   2
 157 prop tor  10   9  14  13
 158 ben  10  11  12
 159 prop tor  10  11  12  13
 160 prop tor  10  11  12  15
 161 ben  10  11  42
 162 prop tor  10  11  42  41
 163 prop tor  10  11  42  43
 164 prop tor  10  11  42  44
 165 ben  11  10  53
 166 ben  11  12  13
 167 prop tor  11  12  13  14
 168 prop tor  11  12  13  54
 169 ben  11  12  15
 170 prop tor  11  12  15  16
 171 prop tor  11  12  15  41
 172 ben  11  42  41
 173 ben  11  42  43
 174 prop tor  11  42  43  69
 175 prop tor  11  42  43  70
 176 prop tor  11  42  43  71
 177 ben  11  42  44
 178 prop tor  11  42  44  72
 179 prop tor  11  42  44  73
 180 prop tor  11  42  44  74
 181 ben  12  11  42
 182 prop tor  12  11  42  41
 183 prop tor  12  11  42  43
 184 prop tor  12  11  42  44
 185 ben  12  13  14
 186 prop tor  12  13  14   2
 187 prop tor  12  13  14   9
 188 ben  12  13  54
 189 ben  12  15  16
 190 prop tor  12  15  16  17
 191 ben  12  15  41
 192 prop tor  12  15  41  40
 193 prop tor  12  15  41  42
 194 ben  13  12  15
 195 prop tor  13  12  15  16
 196 prop tor  13  12  15  41
 197 prop tor  14   2   3  48
 198 prop tor  14   2   3  49
 199 prop tor  14   2   3  50
 200 prop tor  14   2   4   5
 201 prop tor  14   2   4   8
 202 prop tor  14   9  10  11
 203 prop tor  14   9  10  53
 204 ben  14  13  54
 205 prop tor  15  12  13  14
 206 prop tor  15  12  13  54
 207 ben  15  16  17
 208 prop tor  15  16  17  18
 209 prop tor  15  16  17  40
 210 ben  15  41  40
 211 ben  15  41  42
 212 prop tor  15  41  42  11
 213 prop tor  15  41  42  43
 214 prop tor  15  41  42  44
 215 ben  16  15  41
 216 prop tor  16  15  41  40
 217 prop tor  16  15  41  42
 218 ben  16  17  18
 219 prop tor  16  17  18  19
 220 prop tor  16  17  18  39
 221 ben  16  17  40
 222 prop tor  16  17  40  41
 223 prop tor  16  17  40  68
 224 ben  17  18  19
 225 prop tor  17  18  19  20
 226 prop tor  17  18  19  55
 227 ben  17  18  39
 228 prop tor  17  18  39  38
 229 prop tor  17  18  39  67
 230 ben  17  40  41
 231 prop tor  17  40  41  15
 232 prop tor  17  40  41  42
 233 ben  17  40  68
 234 ben  18  17  40
 235 prop tor  18  17  40  41
 236 prop tor  18  17  40  68
 237 ben  18  19  20
 238 prop tor  18  19  20  21
 239 prop tor  18  19  20  56
 240 ben  18  19  55
 241 ben  18  39  38
 242 ben  18  39  67
 243 ben  19  18  39
 244 prop tor  19  18  39  38
 245 prop tor  19  18  39  67
 246 ben  19  20  21
 247 prop tor  19  20  21  22
 248 prop tor  19  20  21  38
 249 ben  19  20  56
 250 ben  20  19  55
 251 ben  20  21  22
 252 prop tor  20  21  22  23
 253 prop tor  20  21  22  35
 254 ben  20  21  38
 255 prop tor  20  21  38  39
 256 prop tor  20  21  38  66
 257 ben  21  20  56
 258 ben  21  22  23
 259 prop tor  21  22  23  24
 260 prop tor  21  22  23  57
 261 ben  21  22  35
 262 prop tor  21  22  35  34
 263 prop tor  21  22  35  36
 264 ben  21  38  39
 265 prop tor  21  38  39  18
 266 prop tor  21  38  39  67
 267 ben  21  38  66
 268 ben  22  21  38
 269 prop tor  22  21  38  39
 270 prop tor  22  21  38  66
 271 ben  22  23  24
 272 prop tor  22  23  24  25
 273 prop tor  22  23  24  58
 274 ben  22  23  57
 275 ben  22  35  34
 276 ben  22  35  36
 277 prop tor  22  35  36  25
 278 prop tor  22  35  36  37
 279 ben  23  22  35
 280 prop tor  23  22  35  34
 281 prop tor  23  22  35  36
 282 ben  23  24  25
 283 prop tor  23  24  25  26
 284 prop tor  23  24  25  36
 285 ben  23  24  58
 286 ben  24  23  57
 287 ben  24  25  26
 288 prop tor  24  25  26  27
 289 prop tor  24  25  26  59
 290 ben  24  25  36
 291 prop tor  24  25  36  35
 292 prop tor  24  25  36  37
 293 ben  25  24  58
 294 ben  25  26  27
 295 prop tor  25  26  27  28
 296 prop tor  25  26  27  60
 297 ben  25  26  59
 298 ben  25  36  35
 299 ben  25  36  37
 300 prop tor  25  36  37  28
 301 prop tor  25  36  37  32
 302 ben  26  25  36
 303 prop tor  26  25  36  35
 304 prop tor  26  25  36  37
 305 ben  26  27  28
 306 prop tor  26  27  28  29
 307 prop tor  26  27  28  37
 308 ben  26  27  60
 309 ben  27  26  59
 310 ben  27  28  29
 311 prop tor  27  28  29  30
 312 prop tor  27  28  29  61
 313 ben  27  28  37
 314 prop tor  27  28  37  32
 315 prop tor  27  28  37  36
 316 ben  28  27  60
 317 ben  28  29  30
 318 prop tor  28  29  30  31
 319 prop tor  28  29  30  62
 320 ben  28  29  61
 321 ben  28  37  32
 322 ben  28  37  36
 323 ben  29  28  37
 324 prop tor  29  28  37  32
 325 prop tor  29  28  37  36
 326 ben  29  30  31
 327 prop tor  29  30  31  32
 328 prop tor  29  30  31  63
 329 ben  29  30  62
 330 ben  30  29  61
 331 ben  30  31  32
 332 prop tor  30  31  32  33
 333 prop tor  30  31  32  37
 334 ben  30  31  63
 335 ben  31  30  62
 336 ben  31  32  33
 337 prop tor  31  32  33  34
 338 prop tor  31  32  33  64
 339 ben  31  32  37
 340 prop tor  31  32  37  28
 341 prop tor  31  32  37  36
 342 ben  32  31  63
 343 ben  32  33  34
 344 prop tor  32  33  34  35
 345 prop tor  32  33  34  65
 346 ben  32  33  64
 347 ben  32  37  36
 348 ben  33  32  37
 349 prop tor  33  32  37  28
 350 prop tor  33  32  37  36
 351 ben  33  34  35
 352 prop tor  33  34  35  22
 353 prop tor  33  34  35  36
 354 ben  33  34  65
 355 ben  34  33  64
 356 ben  34  35  36
 357 prop tor  34  35  36  25
 358 prop tor  34  35  36  37
 359 prop tor  35  22  23  24
 360 prop tor  35  22  23  57
 361 ben  35  34  65
 362 ben  35  36  37
 363 prop tor  35  36  37  28
 364 prop tor  35  36  37  32
 365 prop tor  36  25  26  27
 366 prop tor  36  25  26  59
 367 prop tor  37  28  29  30
 368 prop tor  37  28  29  61
 369 prop tor  37  32  33  34
 370 prop tor  37  32  33  64
 371 prop tor  38  21  22  23
 372 prop tor  38  21  22  35
 373 ben  38  39  67
 374 prop tor  39  18  19  20
 375 prop tor  39  18  19  55
 376 ben  39  38  66
 377 prop tor  40  17  18  19
 378 prop tor  40  17  18  39
 379 ben  40  41  42
 380 prop tor  40  41  42  11
 381 prop tor  40  41  42  43
 382 prop tor  40  41  42  44
 383 prop tor  41  15  16  17
 384 ben  41  40  68
 385 ben  41  42  43
 386 prop tor  41  42  43  69
 387 prop tor  41  42  43  70
 388 prop tor  41  42  43  71
 389 ben  41  42  44
 390 prop tor  41  42  44  72
 391 prop tor  41  42  44  73
 392 prop tor  41  42  44  74
 393 prop tor  42  11  12  13
 394 prop tor  42  11  12  15
 395 ben  42  43  69
 396 ben  42  43  70
 397 ben  42  43  71
 398 ben  42  44  72
 399 ben  42  44  73
 400 ben  42  44  74
 401 ben  43  42  44
 402 prop tor  43  42  44  72
 403 prop tor  43  42  44  73
 404 prop tor  43  42  44  74
 405 prop tor  44  42  43  69
 406 prop tor  44  42  43  70
 407 prop tor  44  42  43  71
 408 prop tor  45   1   2   3
 409 prop tor  45   1   2   4
 410 prop tor  45   1   2  14
 411 ben  45   1  46
 412 ben  45   1  47
 413 prop tor  46   1   2   3
 414 prop tor  46   1   2   4
 415 prop tor  46   1   2  14
 416 ben  46   1  47
 417 prop tor  47   1   2   3
 418 prop tor  47   1   2   4
 419 prop tor  47   1   2  14
 420 ben  48   3  49
 421 ben  48   3  50
 422 ben  49   3  50
 423 prop tor  51   5   6   7
 424 prop tor  51   5   6  52
 425 prop tor  52   6   7   8
 426 prop tor  53  10  11  12
 427 prop tor  53  10  11  42
 428 prop tor  54  13  14   2
 429 prop tor  54  13  14   9
 430 prop tor  55  19  20  21
 431 prop tor  55  19  20  56
 432 prop tor  56  20  21  22
 433 prop tor  56  20  21  38
 434 prop tor  57  23  24  25
 435 prop tor  57  23  24  58
 436 prop tor  58  24  25  26
 437 prop tor  58  24  25  36
 438 prop tor  59  26  27  28
 439 prop tor  59  26  27  60
 440 prop tor  60  27  28  29
 441 prop tor  60  27  28  37
 442 prop tor  61  29  30  31
 443 prop tor  61  29  30  62
 444 prop tor  62  30  31  32
 445 prop tor  62  30  31  63
 446 prop tor  63  31  32  33
 447 prop tor  63  31  32  37
 448 prop tor  64  33  34  35
 449 prop tor  64  33  34  65
 450 prop tor  65  34  35  22
 451 prop tor  65  34  35  36
 452 prop tor  66  38  39  18
 453 prop tor  66  38  39  67
 454 prop tor  68  40  41  15
 455 prop tor  68  40  41  42
 456 ben  69  43  70
 457 ben  69  43  71
 458 ben  70  43  71
 459 ben  72  44  73
 460 ben  72  44  74
 461 ben  73  44  74
 nber bend=             146
 nber lin bend=           0
 nber prop tor=         232
 nber impr tor=           0
 nber tot redund int=         461
 Eigenvalues of G in red int coords
    Gval -0.00000000 -0.00000000 -0.00000000 -0.00000000 -0.00000000 -0.00000000 -0.00000000 -0.00000000
    Gval -0.00000000 -0.00000000 -0.00000000 -0.00000000 -0.00000000 -0.00000000 -0.00000000 -0.00000000
    Gval -0.00000000 -0.00000000 -0.00000000 -0.00000000 -0.00000000 -0.00000000 -0.00000000 -0.00000000
    Gval -0.00000000 -0.00000000 -0.00000000 -0.00000000 -0.00000000 -0.00000000 -0.00000000 -0.00000000
    Gval -0.00000000 -0.00000000 -0.00000000 -0.00000000 -0.00000000 -0.00000000 -0.00000000 -0.00000000
    Gval -0.00000000 -0.00000000 -0.00000000 -0.00000000 -0.00000000 -0.00000000 -0.00000000 -0.00000000
    Gval -0.00000000 -0.00000000 -0.00000000 -0.00000000 -0.00000000 -0.00000000 -0.00000000 -0.00000000
    Gval -0.00000000 -0.00000000 -0.00000000 -0.00000000 -0.00000000 -0.00000000 -0.00000000 -0.00000000
    Gval -0.00000000 -0.00000000 -0.00000000 -0.00000000 -0.00000000 -0.00000000 -0.00000000 -0.00000000
    Gval -0.00000000 -0.00000000 -0.00000000 -0.00000000 -0.00000000 -0.00000000 -0.00000000 -0.00000000
    Gval -0.00000000 -0.00000000 -0.00000000 -0.00000000 -0.00000000 -0.00000000 -0.00000000 -0.00000000
    Gval -0.00000000 -0.00000000 -0.00000000 -0.00000000 -0.00000000 -0.00000000 -0.00000000 -0.00000000
    Gval -0.00000000 -0.00000000 -0.00000000 -0.00000000 -0.00000000 -0.00000000 -0.00000000 -0.00000000
    Gval -0.00000000 -0.00000000 -0.00000000 -0.00000000 -0.00000000 -0.00000000 -0.00000000 -0.00000000
    Gval -0.00000000 -0.00000000 -0.00000000 -0.00000000 -0.00000000 -0.00000000 -0.00000000 -0.00000000
    Gval -0.00000000 -0.00000000  0.00000000  0.00000000  0.00000000  0.00000000  0.00000000  0.00000000
    Gval  0.00000000  0.00000000  0.00000000  0.00000000  0.00000000  0.00000000  0.00000000  0.00000000
    Gval  0.00000000  0.00000000  0.00000000  0.00000000  0.00000000  0.00000000  0.00000000  0.00000000
    Gval  0.00000000  0.00000000  0.00000000  0.00000000  0.00000000  0.00000000  0.00000000  0.00000000
    Gval  0.00000000  0.00000000  0.00000000  0.00000000  0.00000000  0.00000000  0.00000000  0.00000000
    Gval  0.00000000  0.00000000  0.00000000  0.00000000  0.00000000  0.00000000  0.00000000  0.00000000
    Gval  0.00000000  0.00000000  0.00000000  0.00000000  0.00000000  0.00000000  0.00000000  0.00000000
    Gval  0.00000000  0.00000000  0.00000000  0.00000000  0.00000000  0.00000000  0.00000000  0.00000000
    Gval  0.00000000  0.00000000  0.00000000  0.00000000  0.00000000  0.00000000  0.00000000  0.00000000
    Gval  0.00000000  0.00000000  0.00000000  0.00000000  0.00000000  0.00000000  0.00000000  0.00000000
    Gval  0.00000000  0.00000000  0.00000000  0.00000000  0.00000000  0.00000000  0.00000000  0.00000000
    Gval  0.00000000  0.00000000  0.00000000  0.00000000  0.00000000  0.00000000  0.00000000  0.00000000
    Gval  0.00000000  0.00000000  0.00000000  0.00000000  0.00000000  0.00000000  0.00000000  0.00000000
    Gval  0.00000000  0.00000000  0.00000000  0.00000000  0.00000000  0.00000000  0.00000000  0.00000000
    Gval  0.00000000  0.00000000  0.00000000  0.00000000  0.00000000  0.00000000  0.00000000  0.00000000
    Gval  0.00000000  0.00000000  0.00000000  0.00000000  0.00000000  0.00000011  0.00000048  0.00000086
    Gval  0.00000108  0.00000158  0.00000264  0.00000386  0.00000475  0.00000723  0.00000864  0.00001106
    Gval  0.00001356  0.00001408  0.00001470  0.00001629  0.00001792  0.00002049  0.00002345  0.00002394
    Gval  0.00002451  0.00002825  0.00002958  0.00002994  0.00003013  0.00003156  0.00003561  0.00003845
    Gval  0.00003868  0.00004086  0.00004199  0.00004259  0.00004385  0.00004754  0.00004855  0.00005024
    Gval  0.00005194  0.00005227  0.00005466  0.00005818  0.00005855  0.00006241  0.00006510  0.00006797
    Gval  0.00006892  0.00007125  0.00007213  0.00007319  0.00007668  0.00007872  0.00007956  0.00008760
    Gval  0.00009115  0.00009535  0.00009676  0.00010100  0.00010562  0.00011603  0.00011882  0.00012029
    Gval  0.00012662  0.00013120  0.00013243  0.00013478  0.00014026  0.00014335  0.00014386  0.00014787
    Gval  0.00015940  0.00016647  0.00017510  0.00017867  0.00017962  0.00019205  0.00020799  0.00021378
    Gval  0.00022929  0.00024008  0.00025017  0.00025061  0.00026089  0.00027175  0.00028916  0.00029822
    Gval  0.00030227  0.00030881  0.00032275  0.00033613  0.00036101  0.00036854  0.00037558  0.00038101
    Gval  0.00039414  0.00040216  0.00041136  0.00041864  0.00042058  0.00042969  0.00043373  0.00043855
    Gval  0.00044781  0.00044991  0.00045884  0.00046104  0.00047409  0.00050666  0.00051046  0.00052231
    Gval  0.00053464  0.00053473  0.00053547  0.00055614  0.00055616  0.00055617  0.00055619  0.00057840
    Gval  0.00057843  0.00058458  0.00058649  0.00059388  0.00059440  0.00059611  0.00059657  0.00059745
    Gval  0.00059860  0.00059886  0.00059962  0.00060005  0.00060818  0.00061501  0.00062468  0.00062555
    Gval  0.00062840  0.00063367  0.00063622  0.00063760  0.00064112  0.00064271  0.00064963  0.00065552
    Gval  0.00066103  0.00067573  0.00067616  0.00073860  0.00076577  0.00080033  0.00083806  0.00085929
    Gval  0.00098593  0.00099044  0.00099739  0.00106416  0.00107421  0.00107952  0.00108289  0.00109069
    Gval  0.00109383  0.00109508  0.00109887  0.00110484  0.00110715  0.00112042  0.00113370  0.00113455
    Gval  0.00113889  0.00114883  0.00115203  0.00115937  0.00116077  0.00116206  0.00116428  0.00116741
    Gval  0.00116929  0.00117883  0.00117937  0.00117961  0.00117970  0.00118483  0.00127609  0.00150429
    Gval  0.00158533  0.00161022  0.00166930  0.00166948  0.00170199  0.00173393  0.00184546  0.00192244
    Gval  0.00192788  0.00203835  0.00215349  0.00221760  0.00232613  0.00234273  0.00240536  0.00250659
    Gval  0.00256163  0.00263463  0.00302643  0.00302906  0.00303326  0.00303461  0.00304603  0.00304641
    Gval  0.00309380  0.00309429  0.00310837  0.00341501  0.00341973  0.00356637  0.00359481  0.00366581
    Gval  0.00368557  0.00370764  0.00374052  0.00392302  0.00403342
  1.114002143516231E-007  1.114002143516231E-007
  4.834612043490434E-007  1.114002143516231E-007
  8.559071504268431E-007  1.114002143516231E-007
  1.082114997400707E-006  1.114002143516231E-007
  1.582309396262691E-006  1.114002143516231E-007
  2.635423510787736E-006  1.114002143516231E-007
  3.856814042386313E-006  1.114002143516231E-007
  4.751619042832434E-006  1.114002143516231E-007
  7.225145047304119E-006  1.114002143516231E-007
  8.643009679955541E-006  1.114002143516231E-007
  1.105857118342889E-005  1.114002143516231E-007
  1.356036504466776E-005  1.114002143516231E-007
  1.407572278605909E-005  1.114002143516231E-007
  1.470240247086013E-005  1.114002143516231E-007
  1.629247645291584E-005  1.114002143516231E-007
  1.792211973477366E-005  1.114002143516231E-007
  2.049390637564538E-005  1.114002143516231E-007
  2.345376980747742E-005  1.114002143516231E-007
  2.394041452016708E-005  1.114002143516231E-007
  2.451454083917946E-005  1.114002143516231E-007
  2.825178238962266E-005  1.114002143516231E-007
  2.958331935884881E-005  1.114002143516231E-007
  2.993717963500706E-005  1.114002143516231E-007
  3.012667800217682E-005  1.114002143516231E-007
  3.155545068290775E-005  1.114002143516231E-007
  3.561173374512805E-005  1.114002143516231E-007
  3.844619640275446E-005  1.114002143516231E-007
  3.867910112114675E-005  1.114002143516231E-007
  4.085889306405221E-005  1.114002143516231E-007
  4.198539848397623E-005  1.114002143516231E-007
  4.258534877239517E-005  1.114002143516231E-007
  4.384832395537024E-005  1.114002143516231E-007
  4.754396222168142E-005  1.114002143516231E-007
  4.855408115184192E-005  1.114002143516231E-007
  5.024399567555418E-005  1.114002143516231E-007
  5.194399712618726E-005  1.114002143516231E-007
  5.226743290104740E-005  1.114002143516231E-007
  5.465846762868170E-005  1.114002143516231E-007
  5.817789036851195E-005  1.114002143516231E-007
  5.854659988734485E-005  1.114002143516231E-007
  6.240522968231433E-005  1.114002143516231E-007
  6.510386774144831E-005  1.114002143516231E-007
  6.796900187409654E-005  1.114002143516231E-007
  6.891640135420497E-005  1.114002143516231E-007
  7.125464651609856E-005  1.114002143516231E-007
  7.212897187696992E-005  1.114002143516231E-007
  7.318550450189058E-005  1.114002143516231E-007
  7.668380824352766E-005  1.114002143516231E-007
  7.872180216404121E-005  1.114002143516231E-007
  7.955723167946780E-005  1.114002143516231E-007
  8.759679916894370E-005  1.114002143516231E-007
  9.115287681998547E-005  1.114002143516231E-007
  9.535329327291564E-005  1.114002143516231E-007
  9.676227672115317E-005  1.114002143516231E-007
  1.010042045906318E-004  1.114002143516231E-007
  1.056173593626672E-004  1.114002143516231E-007
  1.160337724535258E-004  1.114002143516231E-007
  1.188243196649409E-004  1.114002143516231E-007
  1.202930548509079E-004  1.114002143516231E-007
  1.266170164157815E-004  1.114002143516231E-007
  1.311956661067658E-004  1.114002143516231E-007
  1.324318618092096E-004  1.114002143516231E-007
  1.347799846675984E-004  1.114002143516231E-007
  1.402566881836441E-004  1.114002143516231E-007
  1.433502590162060E-004  1.114002143516231E-007
  1.438616011895266E-004  1.114002143516231E-007
  1.478715161180912E-004  1.114002143516231E-007
  1.593965792940119E-004  1.114002143516231E-007
  1.664744297019752E-004  1.114002143516231E-007
  1.750990929909611E-004  1.114002143516231E-007
  1.786683739928566E-004  1.114002143516231E-007
  1.796188076752187E-004  1.114002143516231E-007
  1.920457090082011E-004  1.114002143516231E-007
  2.079873387682591E-004  1.114002143516231E-007
  2.137795193682948E-004  1.114002143516231E-007
  2.292932964799407E-004  1.114002143516231E-007
  2.400842525540291E-004  1.114002143516231E-007
  2.501672810256397E-004  1.114002143516231E-007
  2.506147920538104E-004  1.114002143516231E-007
  2.608925301630136E-004  1.114002143516231E-007
  2.717466413611507E-004  1.114002143516231E-007
  2.891599089238804E-004  1.114002143516231E-007
  2.982201325960563E-004  1.114002143516231E-007
  3.022725789604421E-004  1.114002143516231E-007
  3.088071116506210E-004  1.114002143516231E-007
  3.227549636622967E-004  1.114002143516231E-007
  3.361309268066305E-004  1.114002143516231E-007
  3.610074471946221E-004  1.114002143516231E-007
  3.685398636770165E-004  1.114002143516231E-007
  3.755845719400424E-004  1.114002143516231E-007
  3.810050880085291E-004  1.114002143516231E-007
  3.941432273712922E-004  1.114002143516231E-007
  4.021578607179172E-004  1.114002143516231E-007
  4.113608360648450E-004  1.114002143516231E-007
  4.186366370184563E-004  1.114002143516231E-007
  4.205803519209816E-004  1.114002143516231E-007
  4.296851469894272E-004  1.114002143516231E-007
  4.337336575929975E-004  1.114002143516231E-007
  4.385527138561523E-004  1.114002143516231E-007
  4.478089769116995E-004  1.114002143516231E-007
  4.499149467961046E-004  1.114002143516231E-007
  4.588448098365529E-004  1.114002143516231E-007
  4.610387574584510E-004  1.114002143516231E-007
  4.740872806548464E-004  1.114002143516231E-007
  5.066648296422630E-004  1.114002143516231E-007
  5.104632773814465E-004  1.114002143516231E-007
  5.223109909822732E-004  1.114002143516231E-007
  5.346402981796460E-004  1.114002143516231E-007
  5.347345842143675E-004  1.114002143516231E-007
  5.354738621373103E-004  1.114002143516231E-007
  5.561406526151927E-004  1.114002143516231E-007
  5.561615369057564E-004  1.114002143516231E-007
  5.561693550905854E-004  1.114002143516231E-007
  5.561870923323869E-004  1.114002143516231E-007
  5.783974517862903E-004  1.114002143516231E-007
  5.784286791932503E-004  1.114002143516231E-007
  5.845780724200054E-004  1.114002143516231E-007
  5.864934589098045E-004  1.114002143516231E-007
  5.938776277998860E-004  1.114002143516231E-007
  5.944020868362953E-004  1.114002143516231E-007
  5.961060696054162E-004  1.114002143516231E-007
  5.965728952251182E-004  1.114002143516231E-007
  5.974511616485138E-004  1.114002143516231E-007
  5.986016714590019E-004  1.114002143516231E-007
  5.988563313420344E-004  1.114002143516231E-007
  5.996193449383374E-004  1.114002143516231E-007
  6.000493502427746E-004  1.114002143516231E-007
  6.081805294101943E-004  1.114002143516231E-007
  6.150052891495311E-004  1.114002143516231E-007
  6.246771736622439E-004  1.114002143516231E-007
  6.255468844914808E-004  1.114002143516231E-007
  6.284017119797837E-004  1.114002143516231E-007
  6.336746976686074E-004  1.114002143516231E-007
  6.362174811295323E-004  1.114002143516231E-007
  6.376027376500731E-004  1.114002143516231E-007
  6.411221557008663E-004  1.114002143516231E-007
  6.427118301957103E-004  1.114002143516231E-007
  6.496274894464007E-004  1.114002143516231E-007
  6.555227043891091E-004  1.114002143516231E-007
  6.610275766506928E-004  1.114002143516231E-007
  6.757305937058198E-004  1.114002143516231E-007
  6.761556463561330E-004  1.114002143516231E-007
  7.386012366816481E-004  1.114002143516231E-007
  7.657703910730233E-004  1.114002143516231E-007
  8.003347135951543E-004  1.114002143516231E-007
  8.380564272891910E-004  1.114002143516231E-007
  8.592915177480225E-004  1.114002143516231E-007
  9.859349897671970E-004  1.114002143516231E-007
  9.904443478594186E-004  1.114002143516231E-007
  9.973928646933199E-004  1.114002143516231E-007
  1.064159603402063E-003  1.114002143516231E-007
  1.074208147087561E-003  1.114002143516231E-007
  1.079521299459466E-003  1.114002143516231E-007
  1.082891325193099E-003  1.114002143516231E-007
  1.090693500405711E-003  1.114002143516231E-007
  1.093827903465311E-003  1.114002143516231E-007
  1.095075649228346E-003  1.114002143516231E-007
  1.098872955739472E-003  1.114002143516231E-007
  1.104844597267732E-003  1.114002143516231E-007
  1.107153544158857E-003  1.114002143516231E-007
  1.120417981018230E-003  1.114002143516231E-007
  1.133697960033035E-003  1.114002143516231E-007
  1.134548239869301E-003  1.114002143516231E-007
  1.138888216893639E-003  1.114002143516231E-007
  1.148828162288272E-003  1.114002143516231E-007
  1.152033588967055E-003  1.114002143516231E-007
  1.159366297570179E-003  1.114002143516231E-007
  1.160765958186062E-003  1.114002143516231E-007
  1.162063147393304E-003  1.114002143516231E-007
  1.164275092355560E-003  1.114002143516231E-007
  1.167410061346724E-003  1.114002143516231E-007
  1.169294581509552E-003  1.114002143516231E-007
  1.178828853262425E-003  1.114002143516231E-007
  1.179373516087583E-003  1.114002143516231E-007
  1.179605406673733E-003  1.114002143516231E-007
  1.179700579438166E-003  1.114002143516231E-007
  1.184831540093605E-003  1.114002143516231E-007
  1.276094362813501E-003  1.114002143516231E-007
  1.504288699669640E-003  1.114002143516231E-007
  1.585329918179842E-003  1.114002143516231E-007
  1.610221678521496E-003  1.114002143516231E-007
  1.669302964666917E-003  1.114002143516231E-007
  1.669482306703390E-003  1.114002143516231E-007
  1.701991490881637E-003  1.114002143516231E-007
  1.733928689246849E-003  1.114002143516231E-007
  1.845462700739220E-003  1.114002143516231E-007
  1.922441742118986E-003  1.114002143516231E-007
  1.927877752696219E-003  1.114002143516231E-007
  2.038345103421981E-003  1.114002143516231E-007
  2.153494676341764E-003  1.114002143516231E-007
  2.217601965616102E-003  1.114002143516231E-007
  2.326133296499295E-003  1.114002143516231E-007
  2.342733868954138E-003  1.114002143516231E-007
  2.405357808563864E-003  1.114002143516231E-007
  2.506591252358531E-003  1.114002143516231E-007
  2.561626175033127E-003  1.114002143516231E-007
  2.634625511214636E-003  1.114002143516231E-007
  3.026430617077263E-003  1.114002143516231E-007
  3.029058809946477E-003  1.114002143516231E-007
  3.033256609251611E-003  1.114002143516231E-007
  3.034610782980824E-003  1.114002143516231E-007
  3.046033366788568E-003  1.114002143516231E-007
  3.046409523219318E-003  1.114002143516231E-007
  3.093802729761577E-003  1.114002143516231E-007
  3.094285418340641E-003  1.114002143516231E-007
  3.108369548315340E-003  1.114002143516231E-007
  3.415008552496216E-003  1.114002143516231E-007
  3.419734473157881E-003  1.114002143516231E-007
  3.566370042983769E-003  1.114002143516231E-007
  3.594807132455626E-003  1.114002143516231E-007
  3.665810560366874E-003  1.114002143516231E-007
  3.685571199853293E-003  1.114002143516231E-007
  3.707639692238391E-003  1.114002143516231E-007
  3.740518328794941E-003  1.114002143516231E-007
  3.923023717016262E-003  1.114002143516231E-007
  4.033416688615221E-003  1.114002143516231E-007
 cut=1d-8, nber non-redundant internal coords=         216
 Check on Eigenvals of non-red overlap matrix:
  0.00000011  0.00000048  0.00000086  0.00000108  0.00000158  0.00000264  0.00000386  0.00000475
  0.00000723  0.00000864  0.00001106  0.00001356  0.00001408  0.00001470  0.00001629  0.00001792
  0.00002049  0.00002345  0.00002394  0.00002451  0.00002825  0.00002958  0.00002994  0.00003013
  0.00003156  0.00003561  0.00003845  0.00003868  0.00004086  0.00004199  0.00004259  0.00004385
  0.00004754  0.00004855  0.00005024  0.00005194  0.00005227  0.00005466  0.00005818  0.00005855
  0.00006241  0.00006510  0.00006797  0.00006892  0.00007125  0.00007213  0.00007319  0.00007668
  0.00007872  0.00007956  0.00008760  0.00009115  0.00009535  0.00009676  0.00010100  0.00010562
  0.00011603  0.00011882  0.00012029  0.00012662  0.00013120  0.00013243  0.00013478  0.00014026
  0.00014335  0.00014386  0.00014787  0.00015940  0.00016647  0.00017510  0.00017867  0.00017962
  0.00019205  0.00020799  0.00021378  0.00022929  0.00024008  0.00025017  0.00025061  0.00026089
  0.00027175  0.00028916  0.00029822  0.00030227  0.00030881  0.00032275  0.00033613  0.00036101
  0.00036854  0.00037558  0.00038101  0.00039414  0.00040216  0.00041136  0.00041864  0.00042058
  0.00042969  0.00043373  0.00043855  0.00044781  0.00044991  0.00045884  0.00046104  0.00047409
  0.00050666  0.00051046  0.00052231  0.00053464  0.00053473  0.00053547  0.00055614  0.00055616
  0.00055617  0.00055619  0.00057840  0.00057843  0.00058458  0.00058649  0.00059388  0.00059440
  0.00059611  0.00059657  0.00059745  0.00059860  0.00059886  0.00059962  0.00060005  0.00060818
  0.00061501  0.00062468  0.00062555  0.00062840  0.00063367  0.00063622  0.00063760  0.00064112
  0.00064271  0.00064963  0.00065552  0.00066103  0.00067573  0.00067616  0.00073860  0.00076577
  0.00080033  0.00083806  0.00085929  0.00098593  0.00099044  0.00099739  0.00106416  0.00107421
  0.00107952  0.00108289  0.00109069  0.00109383  0.00109508  0.00109887  0.00110484  0.00110715
  0.00112042  0.00113370  0.00113455  0.00113889  0.00114883  0.00115203  0.00115937  0.00116077
  0.00116206  0.00116428  0.00116741  0.00116929  0.00117883  0.00117937  0.00117961  0.00117970
  0.00118483  0.00127609  0.00150429  0.00158533  0.00161022  0.00166930  0.00166948  0.00170199
  0.00173393  0.00184546  0.00192244  0.00192788  0.00203835  0.00215349  0.00221760  0.00232613
  0.00234273  0.00240536  0.00250659  0.00256163  0.00263463  0.00302643  0.00302906  0.00303326
  0.00303461  0.00304603  0.00304641  0.00309380  0.00309429  0.00310837  0.00341501  0.00341973
  0.00356637  0.00359481  0.00366581  0.00368557  0.00370764  0.00374052  0.00392302  0.00403342
 Checking for correct frequencies
 recalc frequencies=
    -0.0   -0.0   -0.0    0.0    0.0    0.0   10.1   11.4   20.4   27.0
    45.1   51.9   66.5   73.1   88.2  104.0  104.2  109.9  120.4  128.4
   142.9  151.8  159.9  185.5  199.1  208.4  221.0  222.7  232.5  243.4
   245.6  246.0  264.7  271.2  278.9  287.1  291.7  303.1  316.2  329.7
   346.4  371.1  372.7  403.6  411.0  413.9  417.0  424.5  431.8  447.2
   450.4  465.7  479.4  487.1  494.6  503.4  504.1  515.5  522.7  541.8
   549.2  554.1  565.9  570.7  573.4  602.5  617.9  618.2  632.9  640.4
   656.6  663.9  667.8  679.1  682.3  699.9  707.9  709.5  720.9  727.6
   732.4  737.5  741.8  754.6  772.5  776.7  792.1  794.8  803.0  812.2
   824.7  828.8  830.3  834.5  840.3  850.6  852.7  864.8  878.7  882.0
   884.8  891.7  898.2  937.6  949.0  949.4  950.9  959.3  962.4  968.1
   972.4  981.8  983.2  990.4  994.2  999.8 1004.8 1016.2 1030.1 1030.8
  1068.8 1093.5 1096.2 1104.4 1127.8 1134.7 1141.9 1154.7 1155.8 1163.3
  1163.4 1170.0 1182.0 1195.0 1200.0 1211.7 1219.3 1229.4 1235.2 1237.3
  1243.0 1248.2 1253.8 1267.5 1271.5 1281.1 1288.7 1307.5 1327.0 1341.9
  1357.1 1361.9 1364.7 1370.4 1376.1 1385.1 1397.2 1398.7 1398.9 1412.8
  1420.6 1422.6 1439.6 1446.3 1448.7 1454.5 1476.6 1484.5 1484.6 1485.8
  1487.2 1488.3 1490.1 1493.8 1495.9 1502.6 1503.8 1506.4 1508.6 1511.6
  1515.1 1525.7 1529.0 1536.5 1549.2 1553.2 1598.6 1605.3 1615.4 1622.5
  1632.3 1648.7 3025.4 3025.4 3029.0 3029.3 3088.6 3088.8 3093.8 3093.9
  3105.5 3106.0 3107.2 3107.7 3152.0 3153.8 3158.6 3158.8 3163.0 3165.0
  3166.3 3169.8 3171.3 3171.9 3179.0 3180.9 3191.0 3194.4 3200.9 3204.2
  3215.6 3242.8
 recalc symmetries=
                                                                       
                                                                       
                                                                       
                                                                       
                                                                       
                                                                       
                                                                       
                                                                       
                                                                       
                                                                       
                                                                       
                                                                       
                                                                       
                                                                       
                                                                       
                                                                       
                                                                       
                                                                       
                                                                       
                                                                       
                                                                       
                                                                       
               
 recalc freqs check OK
 Zero-point lengths:
 10.0000 10.0000 10.0000 10.0000 10.0000 10.0000 78.1941 73.4511 54.9038 47.7018
 36.9088 34.4184 30.3970 28.9876 26.3917 24.3095 24.2889 23.6446 22.5912 21.8767
 20.7370 20.1222 19.6054 18.2028 17.5707 17.1721 16.6757 16.6131 16.2600 15.8900
 15.8192 15.8051 15.2373 15.0551 14.8453 14.6322 14.5153 14.2401 13.9413 13.6533
 13.3203 12.8694 12.8419 12.3408 12.2289 12.1853 12.1396 12.0324 11.9309 11.7234
 11.6819 11.4881 11.3228 11.2322 11.1470 11.0494 11.0417 10.9188 10.8436 10.6503
 10.5788 10.5319 10.4212 10.3771 10.3533 10.1001  9.9735  9.9707  9.8542  9.7966
  9.6745  9.6214  9.5933  9.5134  9.4907  9.3708  9.3175  9.3069  9.2333  9.1906
  9.1603  9.1288  9.1021  9.0246  8.9197  8.8952  8.8085  8.7934  8.7486  8.6991
  8.6325  8.6111  8.6038  8.5817  8.5524  8.5002  8.4897  8.4301  8.3632  8.3475
  8.3346  8.3019  8.2719  8.0964  8.0476  8.0460  8.0395  8.0041  7.9914  7.9677
  7.9500  7.9121  7.9064  7.8774  7.8624  7.8403  7.8209  7.7771  7.7242  7.7217
  7.5830  7.4969  7.4877  7.4598  7.3821  7.3597  7.3363  7.2955  7.2922  7.2686
  7.2682  7.2477  7.2108  7.1715  7.1564  7.1219  7.0997  7.0705  7.0538  7.0479
  7.0317  7.0171  7.0014  6.9634  6.9524  6.9264  6.9060  6.8561  6.8056  6.7675
  6.7295  6.7178  6.7108  6.6970  6.6830  6.6612  6.6324  6.6288  6.6283  6.5956
  6.5775  6.5728  6.5339  6.5187  6.5133  6.5003  6.4516  6.4344  6.4341  6.4315
  6.4285  6.4261  6.4222  6.4143  6.4099  6.3954  6.3929  6.3874  6.3827  6.3764
  6.3690  6.3468  6.3400  6.3245  6.2987  6.2905  6.2005  6.1875  6.1681  6.1547
  6.1362  6.1055  4.5072  4.5072  4.5045  4.5043  4.4608  4.4607  4.4571  4.4570
  4.4486  4.4483  4.4474  4.4471  4.4158  4.4144  4.4111  4.4110  4.4080  4.4067
  4.4057  4.4033  4.4023  4.4018  4.3969  4.3957  4.3887  4.3863  4.3819  4.3796
  4.3719  4.3535
 highest evec of mol 1
  0.0001  0.0002 -0.0000
  0.0002  0.0002 -0.0001
  0.0000  0.0002 -0.0001
  0.0006 -0.0065 -0.0013
  0.0403  0.0529 -0.0305
 -0.1252  0.2191  0.1388
 -0.0010 -0.0019  0.0007
  0.0015 -0.0026 -0.0017
  0.0002 -0.0001 -0.0002
  0.0004  0.0003 -0.0003
  0.0000 -0.0000 -0.0000
 -0.0001 -0.0000  0.0000
  0.0001  0.0001 -0.0001
 -0.0003  0.0001  0.0002
 -0.0000 -0.0000  0.0000
 -0.0000 -0.0000 -0.0000
 -0.0001  0.0001  0.0001
  0.0001 -0.0001 -0.0001
 -0.0001 -0.0002  0.0001
  0.0001  0.0000 -0.0001
  0.0000 -0.0000  0.0000
 -0.0000 -0.0000  0.0000
  0.0001  0.0000 -0.0003
 -0.0000  0.0000  0.0000
  0.0000 -0.0001 -0.0000
 -0.0000  0.0001 -0.0000
 -0.0000  0.0001 -0.0000
  0.0000 -0.0000  0.0000
 -0.0000  0.0001 -0.0000
 -0.0001  0.0000  0.0002
  0.0000 -0.0001 -0.0000
 -0.0000  0.0001  0.0000
  0.0000 -0.0001  0.0000
  0.0001 -0.0002 -0.0000
 -0.0000  0.0001 -0.0000
 -0.0000  0.0000  0.0000
  0.0000  0.0000 -0.0000
 -0.0000 -0.0001  0.0000
  0.0002  0.0001 -0.0001
 -0.0002 -0.0005  0.0001
  0.0000  0.0002 -0.0000
  0.0000 -0.0000 -0.0000
  0.0000 -0.0001 -0.0000
  0.0000 -0.0001 -0.0000
 -0.0001 -0.0007  0.0000
  0.0000 -0.0000 -0.0001
 -0.0005  0.0003  0.0003
 -0.0001 -0.0007  0.0000
 -0.0003  0.0002  0.0005
  0.0000 -0.0000 -0.0000
 -0.0916 -0.1641  0.0641
  0.3829 -0.7342 -0.4319
 -0.0012 -0.0003  0.0011
 -0.0003 -0.0001  0.0002
  0.0003  0.0006 -0.0001
 -0.0004 -0.0001  0.0002
 -0.0003  0.0000  0.0009
  0.0000 -0.0001  0.0001
  0.0000 -0.0003  0.0003
  0.0002 -0.0003 -0.0001
  0.0001 -0.0002 -0.0001
  0.0003 -0.0000 -0.0007
 -0.0000  0.0002 -0.0002
 -0.0001  0.0003 -0.0003
 -0.0004  0.0005  0.0002
  0.0001  0.0002 -0.0001
 -0.0005 -0.0001  0.0004
  0.0007  0.0012 -0.0005
 -0.0001  0.0001  0.0001
  0.0000  0.0002 -0.0000
 -0.0000 -0.0000 -0.0000
  0.0000 -0.0000  0.0000
  0.0001  0.0002 -0.0000
 -0.0001  0.0001  0.0001
 generating redundant internal coords
         300        3600          74
 Adding extra bonds for z output only
           6           6           6           6           6           6
          16           6           6           6           6           6
           6           6           6          16           6           6
           6           6           6           6           6           6
           6           6           6           6           6           6
           6           6           6           6           6           6
           6           6           6           6           6           6
           6           6           1           1           1           1
           1           1           1           1           1           1
           1           1           1           1           1           1
           1           1           1           1           1           1
           1           1           1           1           1           1
           1           1
 search for int coords
   1 str   2   1   1.544
   2 str   3   2   1.544
   3 str   4   2   1.520
   4 str   5   4   1.412
   5 str   6   5   1.374
   6 str   7   6   1.746
   7 str   8   4   1.386
   8 str   8   7   1.736
   9 str   9   8   1.434
  10 str  10   9   1.409
  11 str  11  10   1.376
  12 str  12  11   1.435
  13 str  13  12   1.414
  14 str  14   2   1.536
  15 str  14   9   1.429
  16 str  14  13   1.377
  17 str  15  12   1.417
  18 str  16  15   1.738
  19 str  17  16   1.788
  20 str  18  17   1.428
  21 str  19  18   1.422
  22 str  20  19   1.376
  23 str  21  20   1.421
  24 str  22  21   1.456
  25 str  23  22   1.416
  26 str  24  23   1.375
  27 str  25  24   1.415
  28 str  26  25   1.421
  29 str  27  26   1.368
  30 str  28  27   1.427
  31 str  29  28   1.409
  32 str  30  29   1.391
  33 str  31  30   1.389
  34 str  32  31   1.411
  35 str  33  32   1.423
  36 str  34  33   1.370
  37 str  35  22   1.440
  38 str  35  34   1.426
  39 str  36  25   1.429
  40 str  36  35   1.432
  41 str  37  28   1.431
  42 str  37  32   1.427
  43 str  37  36   1.429
  44 str  38  21   1.422
  45 str  39  18   1.423
  46 str  39  38   1.374
  47 str  40  17   1.411
  48 str  41  15   1.402
  49 str  41  40   1.388
  50 str  42  11   1.535
  51 str  42  41   1.521
  52 str  43  42   1.544
  53 str  44  42   1.544
  54 str  45   1   1.094
  55 str  46   1   1.092
  56 str  47   1   1.093
  57 str  48   3   1.094
  58 str  49   3   1.093
  59 str  50   3   1.092
  60 str  51   5   1.082
  61 str  52   6   1.079
  62 str  53  10   1.085
  63 str  54  13   1.085
  64 str  55  19   1.085
  65 str  56  20   1.082
  66 str  57  23   1.084
  67 str  58  24   1.085
  68 str  59  26   1.085
  69 str  60  27   1.085
  70 str  61  29   1.085
  71 str  62  30   1.085
  72 str  63  31   1.085
  73 str  64  33   1.085
  74 str  65  34   1.081
  75 str  66  38   1.083
  76 str  67  39   1.083
  77 str  68  40   1.081
  78 str  69  43   1.093
  79 str  70  43   1.093
  80 str  71  43   1.092
  81 str  72  44   1.092
  82 str  73  44   1.093
  83 str  74  44   1.093
 nber stretches=          83
  84 ben   1   2   3
  85 prop tor   1   2   3  48
  86 prop tor   1   2   3  49
  87 prop tor   1   2   3  50
  88 ben   1   2   4
  89 prop tor   1   2   4   5
  90 prop tor   1   2   4   8
  91 ben   1   2  14
  92 prop tor   1   2  14   9
  93 prop tor   1   2  14  13
  94 ben   2   1  45
  95 ben   2   1  46
  96 ben   2   1  47
  97 ben   2   3  48
  98 ben   2   3  49
  99 ben   2   3  50
 100 ben   2   4   5
 101 prop tor   2   4   5   6
 102 prop tor   2   4   5  51
 103 ben   2   4   8
 104 prop tor   2   4   8   7
 105 prop tor   2   4   8   9
 106 ben   2  14   9
 107 ben   2  14  13
 108 ben   3   2   4
 109 prop tor   3   2   4   5
 110 prop tor   3   2   4   8
 111 ben   3   2  14
 112 prop tor   3   2  14   9
 113 prop tor   3   2  14  13
 114 prop tor   4   2   3  48
 115 prop tor   4   2   3  49
 116 prop tor   4   2   3  50
 117 ben   4   2  14
 118 prop tor   4   2  14   9
 119 prop tor   4   2  14  13
 120 ben   4   5   6
 121 prop tor   4   5   6   7
 122 prop tor   4   5   6  52
 123 ben   4   5  51
 124 ben   4   8   7
 125 ben   4   8   9
 126 prop tor   4   8   9  10
 127 prop tor   4   8   9  14
 128 ben   5   4   8
 129 prop tor   5   4   8   7
 130 prop tor   5   4   8   9
 131 ben   5   6   7
 132 prop tor   5   6   7   8
 133 ben   5   6  52
 134 ben   6   5  51
 135 ben   6   7   8
 136 prop tor   6   7   8   4
 137 prop tor   6   7   8   9
 138 ben   7   6  52
 139 ben   7   8   9
 140 prop tor   7   8   9  10
 141 prop tor   7   8   9  14
 142 prop tor   8   4   5   6
 143 prop tor   8   4   5  51
 144 ben   8   9  10
 145 prop tor   8   9  10  11
 146 prop tor   8   9  10  53
 147 ben   8   9  14
 148 prop tor   8   9  14   2
 149 prop tor   8   9  14  13
 150 ben   9  10  11
 151 prop tor   9  10  11  12
 152 prop tor   9  10  11  42
 153 ben   9  10  53
 154 ben   9  14  13
 155 ben  10   9  14
 156 prop tor  10   9  14   2
 157 prop tor  10   9  14  13
 158 ben  10  11  12
 159 prop tor  10  11  12  13
 160 prop tor  10  11  12  15
 161 ben  10  11  42
 162 prop tor  10  11  42  41
 163 prop tor  10  11  42  43
 164 prop tor  10  11  42  44
 165 ben  11  10  53
 166 ben  11  12  13
 167 prop tor  11  12  13  14
 168 prop tor  11  12  13  54
 169 ben  11  12  15
 170 prop tor  11  12  15  16
 171 prop tor  11  12  15  41
 172 ben  11  42  41
 173 ben  11  42  43
 174 prop tor  11  42  43  69
 175 prop tor  11  42  43  70
 176 prop tor  11  42  43  71
 177 ben  11  42  44
 178 prop tor  11  42  44  72
 179 prop tor  11  42  44  73
 180 prop tor  11  42  44  74
 181 ben  12  11  42
 182 prop tor  12  11  42  41
 183 prop tor  12  11  42  43
 184 prop tor  12  11  42  44
 185 ben  12  13  14
 186 prop tor  12  13  14   2
 187 prop tor  12  13  14   9
 188 ben  12  13  54
 189 ben  12  15  16
 190 prop tor  12  15  16  17
 191 ben  12  15  41
 192 prop tor  12  15  41  40
 193 prop tor  12  15  41  42
 194 ben  13  12  15
 195 prop tor  13  12  15  16
 196 prop tor  13  12  15  41
 197 prop tor  14   2   3  48
 198 prop tor  14   2   3  49
 199 prop tor  14   2   3  50
 200 prop tor  14   2   4   5
 201 prop tor  14   2   4   8
 202 prop tor  14   9  10  11
 203 prop tor  14   9  10  53
 204 ben  14  13  54
 205 prop tor  15  12  13  14
 206 prop tor  15  12  13  54
 207 ben  15  16  17
 208 prop tor  15  16  17  18
 209 prop tor  15  16  17  40
 210 ben  15  41  40
 211 ben  15  41  42
 212 prop tor  15  41  42  11
 213 prop tor  15  41  42  43
 214 prop tor  15  41  42  44
 215 ben  16  15  41
 216 prop tor  16  15  41  40
 217 prop tor  16  15  41  42
 218 ben  16  17  18
 219 prop tor  16  17  18  19
 220 prop tor  16  17  18  39
 221 ben  16  17  40
 222 prop tor  16  17  40  41
 223 prop tor  16  17  40  68
 224 ben  17  18  19
 225 prop tor  17  18  19  20
 226 prop tor  17  18  19  55
 227 ben  17  18  39
 228 prop tor  17  18  39  38
 229 prop tor  17  18  39  67
 230 ben  17  40  41
 231 prop tor  17  40  41  15
 232 prop tor  17  40  41  42
 233 ben  17  40  68
 234 ben  18  17  40
 235 prop tor  18  17  40  41
 236 prop tor  18  17  40  68
 237 ben  18  19  20
 238 prop tor  18  19  20  21
 239 prop tor  18  19  20  56
 240 ben  18  19  55
 241 ben  18  39  38
 242 ben  18  39  67
 243 ben  19  18  39
 244 prop tor  19  18  39  38
 245 prop tor  19  18  39  67
 246 ben  19  20  21
 247 prop tor  19  20  21  22
 248 prop tor  19  20  21  38
 249 ben  19  20  56
 250 ben  20  19  55
 251 ben  20  21  22
 252 prop tor  20  21  22  23
 253 prop tor  20  21  22  35
 254 ben  20  21  38
 255 prop tor  20  21  38  39
 256 prop tor  20  21  38  66
 257 ben  21  20  56
 258 ben  21  22  23
 259 prop tor  21  22  23  24
 260 prop tor  21  22  23  57
 261 ben  21  22  35
 262 prop tor  21  22  35  34
 263 prop tor  21  22  35  36
 264 ben  21  38  39
 265 prop tor  21  38  39  18
 266 prop tor  21  38  39  67
 267 ben  21  38  66
 268 ben  22  21  38
 269 prop tor  22  21  38  39
 270 prop tor  22  21  38  66
 271 ben  22  23  24
 272 prop tor  22  23  24  25
 273 prop tor  22  23  24  58
 274 ben  22  23  57
 275 ben  22  35  34
 276 ben  22  35  36
 277 prop tor  22  35  36  25
 278 prop tor  22  35  36  37
 279 ben  23  22  35
 280 prop tor  23  22  35  34
 281 prop tor  23  22  35  36
 282 ben  23  24  25
 283 prop tor  23  24  25  26
 284 prop tor  23  24  25  36
 285 ben  23  24  58
 286 ben  24  23  57
 287 ben  24  25  26
 288 prop tor  24  25  26  27
 289 prop tor  24  25  26  59
 290 ben  24  25  36
 291 prop tor  24  25  36  35
 292 prop tor  24  25  36  37
 293 ben  25  24  58
 294 ben  25  26  27
 295 prop tor  25  26  27  28
 296 prop tor  25  26  27  60
 297 ben  25  26  59
 298 ben  25  36  35
 299 ben  25  36  37
 300 prop tor  25  36  37  28
 301 prop tor  25  36  37  32
 302 ben  26  25  36
 303 prop tor  26  25  36  35
 304 prop tor  26  25  36  37
 305 ben  26  27  28
 306 prop tor  26  27  28  29
 307 prop tor  26  27  28  37
 308 ben  26  27  60
 309 ben  27  26  59
 310 ben  27  28  29
 311 prop tor  27  28  29  30
 312 prop tor  27  28  29  61
 313 ben  27  28  37
 314 prop tor  27  28  37  32
 315 prop tor  27  28  37  36
 316 ben  28  27  60
 317 ben  28  29  30
 318 prop tor  28  29  30  31
 319 prop tor  28  29  30  62
 320 ben  28  29  61
 321 ben  28  37  32
 322 ben  28  37  36
 323 ben  29  28  37
 324 prop tor  29  28  37  32
 325 prop tor  29  28  37  36
 326 ben  29  30  31
 327 prop tor  29  30  31  32
 328 prop tor  29  30  31  63
 329 ben  29  30  62
 330 ben  30  29  61
 331 ben  30  31  32
 332 prop tor  30  31  32  33
 333 prop tor  30  31  32  37
 334 ben  30  31  63
 335 ben  31  30  62
 336 ben  31  32  33
 337 prop tor  31  32  33  34
 338 prop tor  31  32  33  64
 339 ben  31  32  37
 340 prop tor  31  32  37  28
 341 prop tor  31  32  37  36
 342 ben  32  31  63
 343 ben  32  33  34
 344 prop tor  32  33  34  35
 345 prop tor  32  33  34  65
 346 ben  32  33  64
 347 ben  32  37  36
 348 ben  33  32  37
 349 prop tor  33  32  37  28
 350 prop tor  33  32  37  36
 351 ben  33  34  35
 352 prop tor  33  34  35  22
 353 prop tor  33  34  35  36
 354 ben  33  34  65
 355 ben  34  33  64
 356 ben  34  35  36
 357 prop tor  34  35  36  25
 358 prop tor  34  35  36  37
 359 prop tor  35  22  23  24
 360 prop tor  35  22  23  57
 361 ben  35  34  65
 362 ben  35  36  37
 363 prop tor  35  36  37  28
 364 prop tor  35  36  37  32
 365 prop tor  36  25  26  27
 366 prop tor  36  25  26  59
 367 prop tor  37  28  29  30
 368 prop tor  37  28  29  61
 369 prop tor  37  32  33  34
 370 prop tor  37  32  33  64
 371 prop tor  38  21  22  23
 372 prop tor  38  21  22  35
 373 ben  38  39  67
 374 prop tor  39  18  19  20
 375 prop tor  39  18  19  55
 376 ben  39  38  66
 377 prop tor  40  17  18  19
 378 prop tor  40  17  18  39
 379 ben  40  41  42
 380 prop tor  40  41  42  11
 381 prop tor  40  41  42  43
 382 prop tor  40  41  42  44
 383 prop tor  41  15  16  17
 384 ben  41  40  68
 385 ben  41  42  43
 386 prop tor  41  42  43  69
 387 prop tor  41  42  43  70
 388 prop tor  41  42  43  71
 389 ben  41  42  44
 390 prop tor  41  42  44  72
 391 prop tor  41  42  44  73
 392 prop tor  41  42  44  74
 393 prop tor  42  11  12  13
 394 prop tor  42  11  12  15
 395 ben  42  43  69
 396 ben  42  43  70
 397 ben  42  43  71
 398 ben  42  44  72
 399 ben  42  44  73
 400 ben  42  44  74
 401 ben  43  42  44
 402 prop tor  43  42  44  72
 403 prop tor  43  42  44  73
 404 prop tor  43  42  44  74
 405 prop tor  44  42  43  69
 406 prop tor  44  42  43  70
 407 prop tor  44  42  43  71
 408 prop tor  45   1   2   3
 409 prop tor  45   1   2   4
 410 prop tor  45   1   2  14
 411 ben  45   1  46
 412 ben  45   1  47
 413 prop tor  46   1   2   3
 414 prop tor  46   1   2   4
 415 prop tor  46   1   2  14
 416 ben  46   1  47
 417 prop tor  47   1   2   3
 418 prop tor  47   1   2   4
 419 prop tor  47   1   2  14
 420 ben  48   3  49
 421 ben  48   3  50
 422 ben  49   3  50
 423 prop tor  51   5   6   7
 424 prop tor  51   5   6  52
 425 prop tor  52   6   7   8
 426 prop tor  53  10  11  12
 427 prop tor  53  10  11  42
 428 prop tor  54  13  14   2
 429 prop tor  54  13  14   9
 430 prop tor  55  19  20  21
 431 prop tor  55  19  20  56
 432 prop tor  56  20  21  22
 433 prop tor  56  20  21  38
 434 prop tor  57  23  24  25
 435 prop tor  57  23  24  58
 436 prop tor  58  24  25  26
 437 prop tor  58  24  25  36
 438 prop tor  59  26  27  28
 439 prop tor  59  26  27  60
 440 prop tor  60  27  28  29
 441 prop tor  60  27  28  37
 442 prop tor  61  29  30  31
 443 prop tor  61  29  30  62
 444 prop tor  62  30  31  32
 445 prop tor  62  30  31  63
 446 prop tor  63  31  32  33
 447 prop tor  63  31  32  37
 448 prop tor  64  33  34  35
 449 prop tor  64  33  34  65
 450 prop tor  65  34  35  22
 451 prop tor  65  34  35  36
 452 prop tor  66  38  39  18
 453 prop tor  66  38  39  67
 454 prop tor  68  40  41  15
 455 prop tor  68  40  41  42
 456 ben  69  43  70
 457 ben  69  43  71
 458 ben  70  43  71
 459 ben  72  44  73
 460 ben  72  44  74
 461 ben  73  44  74
 nber bend=             146
 nber lin bend=           0
 nber prop tor=         232
 nber impr tor=           0
 nber tot redund int=         461
 Reading file: 
 ./IDT-A_1_C0S0.log                                                             
                                          
  Entering Gaussian System, Link 0=g16                                          
  
 Gaussian format, type: g94, g98, g03= F F F
  #P Geom=AllCheck Guess=TCheck SCRF=Check GenChk RB3LYP/6-311G(d,p) Fre    
 energy type= B3LYP   
 Original G94 input coords:
  6  1.305300 -1.268610 -1.174537
  6  2.775859 -0.963538 -0.817039
  6  3.080064 -1.416542  0.627197
  6  3.734370 -1.597927 -1.813127
  6  4.052942 -2.915495 -2.235727
  6  5.028686 -2.921163 -3.196593
 16  5.575875 -1.312430 -3.602186
  6  4.469401 -0.631100 -2.456626
  6  4.110912  0.697580 -1.994019
  6  4.573489  1.970883 -2.344401
  6  4.016042  3.067374 -1.705502
  6  3.006932  2.894010 -0.726450
  6  2.544022  1.620239 -0.376336
  6  3.101790  0.524149 -1.015470
  6  2.649025  4.220947 -0.264557
 16  1.543135  4.900490  0.879745
  6  2.078934  6.535797  0.473256
  6  1.495861  7.702173  1.137181
  6  0.189530  7.686752  1.654237
  6 -0.350698  8.802998  2.278325
  6  0.382675  9.991620  2.405001
  6 -0.203228 11.211889  3.021397
  6 -0.230964 12.391435  2.265761
  6 -0.798487 13.559681  2.751210
  6 -1.368061 13.601833  4.029778
  6 -1.981718 14.788513  4.553514
  6 -2.524013 14.813054  5.798025
  6 -2.498093 13.652554  6.642182
  6 -3.045303 13.656863  7.933188
  6 -2.997990 12.518588  8.731488
  6 -2.403190 11.352352  8.262531
  6 -1.844854 11.299567  6.977161
  6 -1.207656 10.122747  6.463798
  6 -0.680982 10.086863  5.211918
  6 -0.739963 11.224305  4.333170
  6 -1.333531 12.425234  4.834850
  6 -1.892155 12.458187  6.148277
  6  1.683165 10.011099  1.879971
  6  2.232470  8.891728  1.270500
  6  3.065555  6.501537 -0.491505
  6  3.385735  5.188894 -0.906308
  6  4.341580  4.554876 -1.905251
  6  4.033042  5.007527 -3.348661
  6  5.812981  4.860425 -1.551816
  1  1.107032 -2.341520 -1.097752
  1  1.076698 -0.950043 -2.193648
  1  0.625100 -0.751103 -0.492360
  1  2.912307 -2.492015  0.734833
  1  2.430018 -0.901568  1.339999
  1  4.117384 -1.203275  0.893292
  1  3.595277 -3.821606 -1.860262
  1  5.468841 -3.768184 -3.699898
  1  5.346749  2.090761 -3.096220
  1  1.770263  1.500388  0.374943
  1 -0.421080  6.798052  1.540914
  1 -1.369602  8.764265  2.646115
  1  0.177395 12.374565  1.261592
  1 -0.817353 14.450124  2.131745
  1 -2.003528 15.674162  3.927075
  1 -2.986012 15.717814  6.178963
  1 -3.508000 14.564257  8.306626
  1 -3.425831 12.541900  9.727486
  1 -2.364562 10.469317  8.891514
  1 -1.142268  9.250332  7.105732
  1 -0.189350  9.188002  4.864453
  1  2.281518 10.909879  1.980348
  1  3.256173  8.928905  0.917089
  1  3.508831  7.402598 -0.895067
  1  4.681102  4.492210 -4.062963
  1  4.200379  6.082954 -3.457322
  1  2.995004  4.794130 -3.611777
  1  6.044474  4.542721 -0.533083
  1  6.011007  5.933280 -1.630184
  1  6.491290  4.342338 -2.235364
 nber atoms=          74
  SCF Done:  E(RB3LYP) =  -2415.39777043     A.U. after    1 cycles             
  
          23          40 "  -2415.39777043"
After scan for Atom:   Atom  AN      X      Y      Z        X      Y      Z        X      Y      Z   
After scan for Atom:   Atom  AN      X      Y      Z        X      Y      Z        X      Y      Z   
After scan for Atom:   Atom  AN      X      Y      Z        X      Y      Z        X      Y      Z   
After scan for Atom:   Atom  AN      X      Y      Z        X      Y      Z        X      Y      Z   
After scan for Atom:   Atom  AN      X      Y      Z        X      Y      Z        X      Y      Z   
After scan for Atom:   Atom  AN      X      Y      Z        X      Y      Z        X      Y      Z   
After scan for Atom:   Atom  AN      X      Y      Z        X      Y      Z        X      Y      Z   
After scan for Atom:   Atom  AN      X      Y      Z        X      Y      Z        X      Y      Z   
After scan for Atom:   Atom  AN      X      Y      Z        X      Y      Z        X      Y      Z   
After scan for Atom:   Atom  AN      X      Y      Z        X      Y      Z        X      Y      Z   
After scan for Atom:   Atom  AN      X      Y      Z        X      Y      Z        X      Y      Z   
After scan for Atom:   Atom  AN      X      Y      Z        X      Y      Z        X      Y      Z   
After scan for Atom:   Atom  AN      X      Y      Z        X      Y      Z        X      Y      Z   
After scan for Atom:   Atom  AN      X      Y      Z        X      Y      Z        X      Y      Z   
After scan for Atom:   Atom  AN      X      Y      Z        X      Y      Z        X      Y      Z   
After scan for Atom:   Atom  AN      X      Y      Z        X      Y      Z        X      Y      Z   
After scan for Atom:   Atom  AN      X      Y      Z        X      Y      Z        X      Y      Z   
After scan for Atom:   Atom  AN      X      Y      Z        X      Y      Z        X      Y      Z   
After scan for Atom:   Atom  AN      X      Y      Z        X      Y      Z        X      Y      Z   
After scan for Atom:   Atom  AN      X      Y      Z        X      Y      Z        X      Y      Z   
After scan for Atom:   Atom  AN      X      Y      Z        X      Y      Z        X      Y      Z   
After scan for Atom:   Atom  AN      X      Y      Z        X      Y      Z        X      Y      Z   
After scan for Atom:   Atom  AN      X      Y      Z        X      Y      Z        X      Y      Z   
After scan for Atom:   Atom  AN      X      Y      Z        X      Y      Z        X      Y      Z   
After scan for Atom:   Atom  AN      X      Y      Z        X      Y      Z        X      Y      Z   
After scan for Atom:   Atom  AN      X      Y      Z        X      Y      Z        X      Y      Z   
After scan for Atom:   Atom  AN      X      Y      Z        X      Y      Z        X      Y      Z   
After scan for Atom:   Atom  AN      X      Y      Z        X      Y      Z        X      Y      Z   
After scan for Atom:   Atom  AN      X      Y      Z        X      Y      Z        X      Y      Z   
After scan for Atom:   Atom  AN      X      Y      Z        X      Y      Z        X      Y      Z   
After scan for Atom:   Atom  AN      X      Y      Z        X      Y      Z        X      Y      Z   
After scan for Atom:   Atom  AN      X      Y      Z        X      Y      Z        X      Y      Z   
After scan for Atom:   Atom  AN      X      Y      Z        X      Y      Z        X      Y      Z   
After scan for Atom:   Atom  AN      X      Y      Z        X      Y      Z        X      Y      Z   
After scan for Atom:   Atom  AN      X      Y      Z        X      Y      Z        X      Y      Z   
After scan for Atom:   Atom  AN      X      Y      Z        X      Y      Z        X      Y      Z   
After scan for Atom:   Atom  AN      X      Y      Z        X      Y      Z        X      Y      Z   
After scan for Atom:   Atom  AN      X      Y      Z        X      Y      Z        X      Y      Z   
After scan for Atom:   Atom  AN      X      Y      Z        X      Y      Z        X      Y      Z   
After scan for Atom:   Atom  AN      X      Y      Z        X      Y      Z        X      Y      Z   
After scan for Atom:   Atom  AN      X      Y      Z        X      Y      Z        X      Y      Z   
After scan for Atom:   Atom  AN      X      Y      Z        X      Y      Z        X      Y      Z   
After scan for Atom:   Atom  AN      X      Y      Z        X      Y      Z        X      Y      Z   
After scan for Atom:   Atom  AN      X      Y      Z        X      Y      Z        X      Y      Z   
After scan for Atom:   Atom  AN      X      Y      Z        X      Y      Z        X      Y      Z   
After scan for Atom:   Atom  AN      X      Y      Z        X      Y      Z        X      Y      Z   
After scan for Atom:   Atom  AN      X      Y      Z        X      Y      Z        X      Y      Z   
After scan for Atom:   Atom  AN      X      Y      Z        X      Y      Z        X      Y      Z   
After scan for Atom:   Atom  AN      X      Y      Z        X      Y      Z        X      Y      Z   
After scan for Atom:   Atom  AN      X      Y      Z        X      Y      Z        X      Y      Z   
After scan for Atom:   Atom  AN      X      Y      Z        X      Y      Z        X      Y      Z   
After scan for Atom:   Atom  AN      X      Y      Z        X      Y      Z        X      Y      Z   
After scan for Atom:   Atom  AN      X      Y      Z        X      Y      Z        X      Y      Z   
After scan for Atom:   Atom  AN      X      Y      Z        X      Y      Z        X      Y      Z   
After scan for Atom:   Atom  AN      X      Y      Z        X      Y      Z        X      Y      Z   
After scan for Atom:   Atom  AN      X      Y      Z        X      Y      Z        X      Y      Z   
After scan for Atom:   Atom  AN      X      Y      Z        X      Y      Z        X      Y      Z   
After scan for Atom:   Atom  AN      X      Y      Z        X      Y      Z        X      Y      Z   
After scan for Atom:   Atom  AN      X      Y      Z        X      Y      Z        X      Y      Z   
After scan for Atom:   Atom  AN      X      Y      Z        X      Y      Z        X      Y      Z   
After scan for Atom:   Atom  AN      X      Y      Z        X      Y      Z        X      Y      Z   
After scan for Atom:   Atom  AN      X      Y      Z        X      Y      Z        X      Y      Z   
After scan for Atom:   Atom  AN      X      Y      Z        X      Y      Z        X      Y      Z   
After scan for Atom:   Atom  AN      X      Y      Z        X      Y      Z        X      Y      Z   
After scan for Atom:   Atom  AN      X      Y      Z        X      Y      Z        X      Y      Z   
After scan for Atom:   Atom  AN      X      Y      Z        X      Y      Z        X      Y      Z   
After scan for Atom:   Atom  AN      X      Y      Z        X      Y      Z        X      Y      Z   
After scan for Atom:   Atom  AN      X      Y      Z        X      Y      Z        X      Y      Z   
After scan for Atom:   Atom  AN      X      Y      Z        X      Y      Z        X      Y      Z   
After scan for Atom:   Atom  AN      X      Y      Z        X      Y      Z        X      Y      Z   
After scan for Atom:   Atom  AN      X      Y      Z        X      Y      Z        X      Y      Z   
After scan for Atom:   Atom  AN      X      Y      Z        X      Y      Z        X      Y      Z   
 g94    frequencies=
     0.0    0.0    0.0    0.0    0.0    0.0   11.2   11.9   18.4   29.2
    48.5   53.0   54.5   68.8   94.9   98.8  105.5  107.8  115.9  121.3
   144.4  151.6  163.6  180.0  206.9  209.4  220.3  223.7  241.1  248.4
   248.7  250.1  263.7  273.0  283.4  290.0  294.5  316.7  321.7  334.9
   355.8  373.7  377.8  402.1  416.0  418.5  420.6  430.8  433.3  451.5
   453.4  468.7  480.8  498.5  500.5  509.1  514.3  520.7  522.2  552.3
   554.3  556.5  575.5  576.2  582.9  603.8  622.6  630.5  636.3  652.3
   658.3  660.0  674.8  691.6  694.0  705.0  717.2  723.3  730.7  735.2
[...]
    0.    0.    0.    0.    0.    0.    0.    0.    0.    0.    0.    0.    0.    0.    0.    0.    0.    0.    0.    0.
    0.    0.    0.    0.    0.    0.    0.    0.    0.    0.    0.    0.    0.    0.    0.    0.    0.    0.    0.    0.
    0.    0.    0.    0.    0.    0.    0.    0.    0.    0.    0.    0.    0.    0.    0.    0.    0.    0.    0.    0.
    0.    0.    0.    0.    0.    0.    0.    0.    0.    0.    0.    0.    0.    0.    0.    0.    0.    0.    0.    0.
    0.    0.    0.    0.    0.    0.    0.    0.    0.    0.    0.    0.    0.    0.    0.    0.    0.    0.    0.    0.
    0.    0.    0.    0.    0.    0.    0.    0.    0.    0.    0.    0.    0.    0.    0.    0.    0.    0.    0.    0.
    0.    0.    0.    0.    0.    0.    0.    0.    0.    0.    0.    0.    0.    0.    0.    0.    0.    0.    0.    0.
    0.    0.

 Displacement: in terms of nc of 1 THEN of nc of 2

   1     freq=    -0. Q= -0.000 lam=    -0.0     freq=     0. Q= -0.000 lam=     0.0
   2     freq=    -0. Q= -0.000 lam=    -0.0     freq=     0. Q= -0.000 lam=     0.0
   3     freq=    -0. Q=  0.000 lam=    -0.0     freq=     0. Q=  0.000 lam=     0.0
   4     freq=     0. Q= -0.000 lam=     0.0     freq=     0. Q=  0.000 lam=     0.0
   5     freq=     0. Q= -0.000 lam=     0.0     freq=     0. Q=  0.000 lam=     0.0
   6     freq=     0. Q=  0.000 lam=     0.0     freq=     0. Q=  0.000 lam=     0.0
   7     freq=    11. Q= -0.562 lam=     1.7     freq=     0. Q= -0.000 lam=     0.0
   8     freq=    12. Q=  1.714 lam=    17.0     freq=     0. Q=  0.000 lam=     0.0
   9     freq=    20. Q=  1.355 lam=    18.7     freq=     0. Q=  0.000 lam=     0.0
  10     freq=    27. Q= -1.174 lam=    18.7     freq=     0. Q= -0.000 lam=     0.0
  11     freq=    46. Q=  1.082 lam=    26.7     freq=     0. Q=  0.000 lam=     0.0
  12     freq=    52. Q=  0.564 lam=     8.3     freq=     0. Q=  0.000 lam=     0.0
  13     freq=    67. Q=  1.771 lam=   104.5     freq=     0. Q=  0.000 lam=     0.0
  14     freq=    73. Q=  2.793 lam=   285.3     freq=     0. Q=  0.000 lam=     0.0
  15     freq=    88. Q=  0.733 lam=    23.8     freq=     0. Q=  0.000 lam=     0.0
  16     freq=   104. Q=  0.255 lam=     3.4     freq=     0. Q=  0.000 lam=     0.0
  17     freq=   104. Q=  0.184 lam=     1.8     freq=     0. Q=  0.000 lam=     0.0
  18     freq=   110. Q= -0.043 lam=     0.1     freq=     0. Q= -0.000 lam=     0.0
  19     freq=   120. Q= -2.600 lam=   407.0     freq=     0. Q= -0.000 lam=     0.0
  20     freq=   128. Q= -0.401 lam=    10.3     freq=     0. Q= -0.000 lam=     0.0
  21     freq=   143. Q= -0.082 lam=     0.5     freq=     0. Q= -0.000 lam=     0.0
  22     freq=   152. Q= -0.145 lam=     1.6     freq=     0. Q= -0.000 lam=     0.0
  23     freq=   160. Q=  0.118 lam=     1.1     freq=     0. Q=  0.000 lam=     0.0
  24     freq=   186. Q=  0.019 lam=     0.0     freq=     0. Q=  0.000 lam=     0.0
  25     freq=   199. Q= -0.069 lam=     0.5     freq=     0. Q= -0.000 lam=     0.0
  26     freq=   208. Q=  0.025 lam=     0.1     freq=     0. Q=  0.000 lam=     0.0
  27     freq=   221. Q=  0.150 lam=     2.5     freq=     0. Q=  0.000 lam=     0.0
  28     freq=   223. Q=  0.101 lam=     1.1     freq=     0. Q=  0.000 lam=     0.0
  29     freq=   232. Q= -0.080 lam=     0.7     freq=     0. Q= -0.000 lam=     0.0
  30     freq=   243. Q=  0.013 lam=     0.0     freq=     0. Q=  0.000 lam=     0.0
  31     freq=   245. Q= -0.081 lam=     0.8     freq=     0. Q= -0.000 lam=     0.0
  32     freq=   246. Q= -0.041 lam=     0.2     freq=     0. Q= -0.000 lam=     0.0
  33     freq=   265. Q= -0.511 lam=    34.5     freq=     0. Q= -0.000 lam=     0.0
  34     freq=   271. Q=  0.167 lam=     3.8     freq=     0. Q=  0.000 lam=     0.0
  35     freq=   279. Q= -0.109 lam=     1.7     freq=     0. Q= -0.000 lam=     0.0
  36     freq=   287. Q= -0.000 lam=     0.0     freq=     0. Q= -0.000 lam=     0.0
  37     freq=   292. Q=  0.096 lam=     1.3     freq=     0. Q=  0.000 lam=     0.0
  38     freq=   303. Q= -0.076 lam=     0.9     freq=     0. Q= -0.000 lam=     0.0
  39     freq=   316. Q=  0.083 lam=     1.1     freq=     0. Q=  0.000 lam=     0.0
  40     freq=   330. Q=  0.249 lam=    10.2     freq=     0. Q=  0.000 lam=     0.0
  41     freq=   346. Q= -0.137 lam=     3.2     freq=     0. Q= -0.000 lam=     0.0
  42     freq=   371. Q= -0.040 lam=     0.3     freq=     0. Q= -0.000 lam=     0.0
  43     freq=   373. Q= -0.069 lam=     0.9     freq=     0. Q= -0.000 lam=     0.0
  44     freq=   404. Q= -0.044 lam=     0.4     freq=     0. Q= -0.000 lam=     0.0
  45     freq=   411. Q=  0.067 lam=     0.9     freq=     0. Q=  0.000 lam=     0.0
  46     freq=   414. Q= -0.293 lam=    17.8     freq=     0. Q= -0.000 lam=     0.0
  47     freq=   417. Q= -0.003 lam=     0.0     freq=     0. Q= -0.000 lam=     0.0
  48     freq=   424. Q= -0.255 lam=    13.8     freq=     0. Q= -0.000 lam=     0.0
  49     freq=   432. Q= -0.114 lam=     2.8     freq=     0. Q= -0.000 lam=     0.0
  50     freq=   447. Q=  0.035 lam=     0.3     freq=     0. Q=  0.000 lam=     0.0
  51     freq=   450. Q= -0.243 lam=    13.3     freq=     0. Q= -0.000 lam=     0.0
  52     freq=   466. Q=  0.075 lam=     1.3     freq=     0. Q=  0.000 lam=     0.0
  53     freq=   479. Q=  0.041 lam=     0.4     freq=     0. Q=  0.000 lam=     0.0
  54     freq=   487. Q= -0.075 lam=     1.4     freq=     0. Q= -0.000 lam=     0.0
  55     freq=   495. Q=  0.205 lam=    10.4     freq=     0. Q=  0.000 lam=     0.0
  56     freq=   503. Q= -0.055 lam=     0.8     freq=     0. Q= -0.000 lam=     0.0
  57     freq=   504. Q=  0.091 lam=     2.1     freq=     0. Q=  0.000 lam=     0.0
  58     freq=   515. Q= -0.088 lam=     2.0     freq=     0. Q= -0.000 lam=     0.0
  59     freq=   523. Q=  0.031 lam=     0.2     freq=     0. Q=  0.000 lam=     0.0
  60     freq=   542. Q=  0.031 lam=     0.3     freq=     0. Q=  0.000 lam=     0.0
  61     freq=   549. Q=  0.151 lam=     6.2     freq=     0. Q=  0.000 lam=     0.0
  62     freq=   554. Q=  0.084 lam=     2.0     freq=     0. Q=  0.000 lam=     0.0
  63     freq=   566. Q=  0.098 lam=     2.7     freq=     0. Q=  0.000 lam=     0.0
  64     freq=   571. Q=  0.150 lam=     6.4     freq=     0. Q=  0.000 lam=     0.0
  65     freq=   573. Q= -0.044 lam=     0.6     freq=     0. Q= -0.000 lam=     0.0
  66     freq=   602. Q= -0.019 lam=     0.1     freq=     0. Q= -0.000 lam=     0.0
  67     freq=   618. Q=  0.049 lam=     0.8     freq=     0. Q=  0.000 lam=     0.0
  68     freq=   618. Q=  0.035 lam=     0.4     freq=     0. Q=  0.000 lam=     0.0
  69     freq=   633. Q=  0.358 lam=    40.5     freq=     0. Q=  0.000 lam=     0.0
  70     freq=   640. Q=  0.014 lam=     0.1     freq=     0. Q=  0.000 lam=     0.0
  71     freq=   657. Q= -0.152 lam=     7.6     freq=     0. Q= -0.000 lam=     0.0
  72     freq=   664. Q=  0.006 lam=     0.0     freq=     0. Q=  0.000 lam=     0.0
  73     freq=   668. Q=  0.164 lam=     8.9     freq=     0. Q=  0.000 lam=     0.0
  74     freq=   679. Q=  0.103 lam=     3.6     freq=     0. Q=  0.000 lam=     0.0
  75     freq=   682. Q=  0.116 lam=     4.6     freq=     0. Q=  0.000 lam=     0.0
  76     freq=   700. Q= -0.158 lam=     8.8     freq=     0. Q= -0.000 lam=     0.0
  77     freq=   708. Q=  0.306 lam=    33.2     freq=     0. Q=  0.000 lam=     0.0
  78     freq=   710. Q=  0.040 lam=     0.6     freq=     0. Q=  0.000 lam=     0.0
  79     freq=   721. Q= -0.099 lam=     3.5     freq=     0. Q= -0.000 lam=     0.0
  80     freq=   728. Q=  0.016 lam=     0.1     freq=     0. Q=  0.000 lam=     0.0
  81     freq=   732. Q=  0.016 lam=     0.1     freq=     0. Q=  0.000 lam=     0.0
  82     freq=   738. Q= -0.003 lam=     0.0     freq=     0. Q= -0.000 lam=     0.0
  83     freq=   742. Q= -0.011 lam=     0.0     freq=     0. Q= -0.000 lam=     0.0
  84     freq=   755. Q= -0.007 lam=     0.0     freq=     0. Q= -0.000 lam=     0.0
  85     freq=   772. Q=  0.114 lam=     5.0     freq=     0. Q=  0.000 lam=     0.0
  86     freq=   777. Q= -0.003 lam=     0.0     freq=     0. Q= -0.000 lam=     0.0
  87     freq=   792. Q= -0.082 lam=     2.6     freq=     0. Q= -0.000 lam=     0.0
  88     freq=   795. Q= -0.149 lam=     8.8     freq=     0. Q= -0.000 lam=     0.0
  89     freq=   803. Q=  0.310 lam=    38.5     freq=     0. Q=  0.000 lam=     0.0
  90     freq=   812. Q=  0.055 lam=     1.2     freq=     0. Q=  0.000 lam=     0.0
  91     freq=   825. Q= -0.069 lam=     2.0     freq=     0. Q= -0.000 lam=     0.0
  92     freq=   829. Q=  0.049 lam=     1.0     freq=     0. Q=  0.000 lam=     0.0
  93     freq=   830. Q= -0.115 lam=     5.5     freq=     0. Q= -0.000 lam=     0.0
  94     freq=   834. Q= -0.022 lam=     0.2     freq=     0. Q= -0.000 lam=     0.0
  95     freq=   840. Q= -0.078 lam=     2.5     freq=     0. Q= -0.000 lam=     0.0
  96     freq=   851. Q=  0.013 lam=     0.1     freq=     0. Q=  0.000 lam=     0.0
  97     freq=   853. Q=  0.059 lam=     1.5     freq=     0. Q=  0.000 lam=     0.0
  98     freq=   865. Q=  0.283 lam=    34.6     freq=     0. Q=  0.000 lam=     0.0
  99     freq=   879. Q=  0.002 lam=     0.0     freq=     0. Q=  0.000 lam=     0.0
 100     freq=   882. Q=  0.010 lam=     0.0     freq=     0. Q=  0.000 lam=     0.0
 101     freq=   885. Q= -0.000 lam=     0.0     freq=     0. Q= -0.000 lam=     0.0
 102     freq=   892. Q= -0.004 lam=     0.0     freq=     0. Q= -0.000 lam=     0.0
 103     freq=   898. Q=  0.108 lam=     5.2     freq=     0. Q=  0.000 lam=     0.0
 104     freq=   938. Q=  0.067 lam=     2.1     freq=     0. Q=  0.000 lam=     0.0
 105     freq=   949. Q= -0.001 lam=     0.0     freq=     0. Q= -0.000 lam=     0.0
 106     freq=   950. Q=  0.001 lam=     0.0     freq=     0. Q=  0.000 lam=     0.0
 107     freq=   951. Q=  0.014 lam=     0.1     freq=     0. Q=  0.000 lam=     0.0
 108     freq=   959. Q= -0.008 lam=     0.0     freq=     0. Q= -0.000 lam=     0.0
 109     freq=   962. Q= -0.031 lam=     0.5     freq=     0. Q= -0.000 lam=     0.0
 110     freq=   968. Q=  0.005 lam=     0.0     freq=     0. Q=  0.000 lam=     0.0
 111     freq=   972. Q=  0.021 lam=     0.2     freq=     0. Q=  0.000 lam=     0.0
 112     freq=   982. Q= -0.047 lam=     1.1     freq=     0. Q= -0.000 lam=     0.0
 113     freq=   983. Q=  0.092 lam=     4.1     freq=     0. Q=  0.000 lam=     0.0
 114     freq=   990. Q=  0.053 lam=     1.4     freq=     0. Q=  0.000 lam=     0.0
 115     freq=   994. Q= -0.138 lam=     9.4     freq=     0. Q= -0.000 lam=     0.0
 116     freq=  1000. Q= -0.126 lam=     7.9     freq=     0. Q= -0.000 lam=     0.0
 117     freq=  1005. Q=  0.127 lam=     8.1     freq=     0. Q=  0.000 lam=     0.0
 118     freq=  1016. Q= -0.014 lam=     0.1     freq=     0. Q= -0.000 lam=     0.0
 119     freq=  1030. Q=  0.006 lam=     0.0     freq=     0. Q=  0.000 lam=     0.0
 120     freq=  1031. Q=  0.002 lam=     0.0     freq=     0. Q=  0.000 lam=     0.0
 121     freq=  1069. Q=  0.120 lam=     7.7     freq=     0. Q=  0.000 lam=     0.0
 122     freq=  1094. Q= -0.016 lam=     0.1     freq=     0. Q= -0.000 lam=     0.0
 123     freq=  1096. Q=  0.054 lam=     1.6     freq=     0. Q=  0.000 lam=     0.0
 124     freq=  1104. Q=  0.042 lam=     1.0     freq=     0. Q=  0.000 lam=     0.0
 125     freq=  1128. Q= -0.021 lam=     0.2     freq=     0. Q= -0.000 lam=     0.0
 126     freq=  1135. Q=  0.007 lam=     0.0     freq=     0. Q=  0.000 lam=     0.0
 127     freq=  1142. Q=  0.085 lam=     4.1     freq=     0. Q=  0.000 lam=     0.0
 128     freq=  1155. Q=  0.002 lam=     0.0     freq=     0. Q=  0.000 lam=     0.0
 129     freq=  1156. Q= -0.005 lam=     0.0     freq=     0. Q= -0.000 lam=     0.0
 130     freq=  1163. Q= -0.030 lam=     0.5     freq=     0. Q= -0.000 lam=     0.0
 131     freq=  1163. Q=  0.031 lam=     0.6     freq=     0. Q=  0.000 lam=     0.0
 132     freq=  1170. Q=  0.054 lam=     1.7     freq=     0. Q=  0.000 lam=     0.0
 133     freq=  1182. Q=  0.050 lam=     1.5     freq=     0. Q=  0.000 lam=     0.0
 134     freq=  1195. Q=  0.076 lam=     3.4     freq=     0. Q=  0.000 lam=     0.0
 135     freq=  1200. Q= -0.015 lam=     0.1     freq=     0. Q= -0.000 lam=     0.0
 136     freq=  1212. Q=  0.140 lam=    12.0     freq=     0. Q=  0.000 lam=     0.0
 137     freq=  1219. Q=  0.295 lam=    53.2     freq=     0. Q=  0.000 lam=     0.0
 138     freq=  1229. Q= -0.143 lam=    12.6     freq=     0. Q= -0.000 lam=     0.0
 139     freq=  1235. Q=  0.142 lam=    12.5     freq=     0. Q=  0.000 lam=     0.0
 140     freq=  1237. Q= -0.093 lam=     5.3     freq=     0. Q= -0.000 lam=     0.0
 141     freq=  1243. Q=  0.060 lam=     2.2     freq=     0. Q=  0.000 lam=     0.0
 142     freq=  1248. Q=  0.204 lam=    26.0     freq=     0. Q=  0.000 lam=     0.0
 143     freq=  1254. Q= -0.069 lam=     3.0     freq=     0. Q= -0.000 lam=     0.0
 144     freq=  1267. Q=  0.002 lam=     0.0     freq=     0. Q=  0.000 lam=     0.0
 145     freq=  1271. Q=  0.018 lam=     0.2     freq=     0. Q=  0.000 lam=     0.0
 146     freq=  1281. Q=  0.008 lam=     0.0     freq=     0. Q=  0.000 lam=     0.0
 147     freq=  1289. Q= -0.049 lam=     1.5     freq=     0. Q= -0.000 lam=     0.0
 148     freq=  1307. Q=  0.066 lam=     2.8     freq=     0. Q=  0.000 lam=     0.0
 149     freq=  1327. Q= -0.002 lam=     0.0     freq=     0. Q= -0.000 lam=     0.0
 150     freq=  1342. Q=  0.059 lam=     2.3     freq=     0. Q=  0.000 lam=     0.0
 151     freq=  1357. Q=  0.030 lam=     0.6     freq=     0. Q=  0.000 lam=     0.0
 152     freq=  1362. Q=  0.129 lam=    11.3     freq=     0. Q=  0.000 lam=     0.0
 153     freq=  1365. Q=  0.028 lam=     0.5     freq=     0. Q=  0.000 lam=     0.0
 154     freq=  1370. Q=  0.161 lam=    17.8     freq=     0. Q=  0.000 lam=     0.0
 155     freq=  1376. Q=  0.121 lam=    10.1     freq=     0. Q=  0.000 lam=     0.0
 156     freq=  1385. Q= -0.238 lam=    39.1     freq=     0. Q= -0.000 lam=     0.0
 157     freq=  1397. Q=  0.486 lam=   165.2     freq=     0. Q=  0.000 lam=     0.0
 158     freq=  1399. Q= -0.004 lam=     0.0     freq=     0. Q= -0.000 lam=     0.0
 159     freq=  1399. Q= -0.000 lam=     0.0     freq=     0. Q= -0.000 lam=     0.0
 160     freq=  1413. Q=  0.163 lam=    18.7     freq=     0. Q=  0.000 lam=     0.0
 161     freq=  1421. Q=  0.008 lam=     0.0     freq=     0. Q=  0.000 lam=     0.0
 162     freq=  1423. Q= -0.217 lam=    33.6     freq=     0. Q= -0.000 lam=     0.0
 163     freq=  1440. Q= -0.048 lam=     1.7     freq=     0. Q= -0.000 lam=     0.0
 164     freq=  1446. Q=  0.094 lam=     6.4     freq=     0. Q=  0.000 lam=     0.0
 165     freq=  1449. Q=  0.162 lam=    19.0     freq=     0. Q=  0.000 lam=     0.0
 166     freq=  1454. Q= -0.240 lam=    41.7     freq=     0. Q= -0.000 lam=     0.0
 167     freq=  1477. Q=  0.006 lam=     0.0     freq=     0. Q=  0.000 lam=     0.0
 168     freq=  1485. Q= -0.004 lam=     0.0     freq=     0. Q= -0.000 lam=     0.0
 169     freq=  1485. Q= -0.002 lam=     0.0     freq=     0. Q= -0.000 lam=     0.0
 170     freq=  1486. Q=  0.092 lam=     6.3     freq=     0. Q=  0.000 lam=     0.0
 171     freq=  1487. Q=  0.001 lam=     0.0     freq=     0. Q=  0.000 lam=     0.0
 172     freq=  1488. Q=  0.002 lam=     0.0     freq=     0. Q=  0.000 lam=     0.0
 173     freq=  1490. Q= -0.326 lam=    79.2     freq=     0. Q= -0.000 lam=     0.0
 174     freq=  1494. Q= -0.065 lam=     3.2     freq=     0. Q= -0.000 lam=     0.0
 175     freq=  1496. Q=  0.125 lam=    11.7     freq=     0. Q=  0.000 lam=     0.0
 176     freq=  1503. Q=  0.010 lam=     0.1     freq=     0. Q=  0.000 lam=     0.0
 177     freq=  1504. Q=  0.031 lam=     0.7     freq=     0. Q=  0.000 lam=     0.0
 178     freq=  1506. Q= -0.056 lam=     2.4     freq=     0. Q= -0.000 lam=     0.0
 179     freq=  1509. Q=  0.019 lam=     0.3     freq=     0. Q=  0.000 lam=     0.0
 180     freq=  1512. Q= -0.064 lam=     3.1     freq=     0. Q= -0.000 lam=     0.0
 181     freq=  1515. Q= -0.044 lam=     1.5     freq=     0. Q= -0.000 lam=     0.0
 182     freq=  1526. Q=  0.163 lam=    20.3     freq=     0. Q=  0.000 lam=     0.0
 183     freq=  1529. Q= -0.102 lam=     7.9     freq=     0. Q= -0.000 lam=     0.0
 184     freq=  1537. Q= -0.238 lam=    43.5     freq=     0. Q= -0.000 lam=     0.0
 185     freq=  1549. Q=  0.065 lam=     3.3     freq=     0. Q=  0.000 lam=     0.0
 186     freq=  1553. Q= -0.060 lam=     2.8     freq=     0. Q= -0.000 lam=     0.0
 187     freq=  1599. Q= -0.018 lam=     0.3     freq=     0. Q= -0.000 lam=     0.0
 188     freq=  1605. Q= -0.215 lam=    37.1     freq=     0. Q= -0.000 lam=     0.0
 189     freq=  1615. Q=  0.047 lam=     1.8     freq=     0. Q=  0.000 lam=     0.0
 190     freq=  1622. Q=  0.057 lam=     2.6     freq=     0. Q=  0.000 lam=     0.0
 191     freq=  1632. Q= -0.113 lam=    10.4     freq=     0. Q= -0.000 lam=     0.0
 192     freq=  1649. Q= -0.625 lam=   322.1     freq=     0. Q= -0.000 lam=     0.0
 193     freq=  3025. Q= -0.001 lam=     0.0     freq=     0. Q= -0.000 lam=     0.0
 194     freq=  3025. Q= -0.001 lam=     0.0     freq=     0. Q= -0.000 lam=     0.0
 195     freq=  3029. Q= -0.031 lam=     1.4     freq=     0. Q= -0.000 lam=     0.0
 196     freq=  3029. Q=  0.008 lam=     0.1     freq=     0. Q=  0.000 lam=     0.0
 197     freq=  3089. Q= -0.000 lam=     0.0     freq=     0. Q= -0.000 lam=     0.0
 198     freq=  3089. Q= -0.000 lam=     0.0     freq=     0. Q= -0.000 lam=     0.0
 199     freq=  3094. Q= -0.000 lam=     0.0     freq=     0. Q= -0.000 lam=     0.0
 200     freq=  3094. Q= -0.009 lam=     0.1     freq=     0. Q= -0.000 lam=     0.0
 201     freq=  3105. Q= -0.000 lam=     0.0     freq=     0. Q= -0.000 lam=     0.0
 202     freq=  3106. Q= -0.000 lam=     0.0     freq=     0. Q= -0.000 lam=     0.0
 203     freq=  3107. Q=  0.008 lam=     0.1     freq=     0. Q=  0.000 lam=     0.0
 204     freq=  3108. Q= -0.008 lam=     0.1     freq=     0. Q= -0.000 lam=     0.0
 205     freq=  3152. Q= -0.010 lam=     0.1     freq=     0. Q= -0.000 lam=     0.0
 206     freq=  3154. Q= -0.005 lam=     0.0     freq=     0. Q= -0.000 lam=     0.0
 207     freq=  3158. Q= -0.003 lam=     0.0     freq=     0. Q= -0.000 lam=     0.0
 208     freq=  3159. Q=  0.012 lam=     0.2     freq=     0. Q=  0.000 lam=     0.0
 209     freq=  3163. Q= -0.035 lam=     1.9     freq=     0. Q= -0.000 lam=     0.0
 210     freq=  3165. Q=  0.017 lam=     0.4     freq=     0. Q=  0.000 lam=     0.0
 211     freq=  3166. Q= -0.012 lam=     0.2     freq=     0. Q= -0.000 lam=     0.0
 212     freq=  3170. Q= -0.022 lam=     0.8     freq=     0. Q= -0.000 lam=     0.0
 213     freq=  3171. Q= -0.003 lam=     0.0     freq=     0. Q= -0.000 lam=     0.0
 214     freq=  3172. Q= -0.010 lam=     0.2     freq=     0. Q= -0.000 lam=     0.0
 215     freq=  3179. Q= -0.014 lam=     0.3     freq=     0. Q= -0.000 lam=     0.0
 216     freq=  3181. Q=  0.004 lam=     0.0     freq=     0. Q=  0.000 lam=     0.0
 217     freq=  3191. Q= -0.056 lam=     5.1     freq=     0. Q= -0.000 lam=     0.0
 218     freq=  3194. Q=  0.045 lam=     3.2     freq=     0. Q=  0.000 lam=     0.0
 219     freq=  3201. Q= -0.013 lam=     0.3     freq=     0. Q= -0.000 lam=     0.0
 220     freq=  3204. Q= -0.046 lam=     3.3     freq=     0. Q= -0.000 lam=     0.0
 221     freq=  3216. Q=  0.022 lam=     0.8     freq=     0. Q=  0.000 lam=     0.0
 222     freq=  3243. Q=  0.001 lam=     0.0     freq=     0. Q=  0.000 lam=     0.0

 total reorg energy (cm**-1, kcal/mol)=     2438.        0.      6.97      0.00
 Nber of molecules processed=           2
