 Enter ifcurve (0=recti, 1=orth curvi, 2=apprx curvi, -1 = skip
 And atom ordering flag, 0= never changes, 1= use the first order thenceforth,
  2= deduce it (does read on fail), 3= always read it
 Reading file: 
 ./thiophene-donors_0_C0S1.log                                                  
                                          
  Entering Gaussian System, Link 0=g16                                          
  
 Gaussian format, type: g94, g98, g03= F F F
  #P Geom=AllCheck Guess=TCheck SCRF=Check GenChk RB3LYP TD(FC,Read)/6-3    
 energy type= TD      
 Original G94 input coords:
  6 -1.411548 -1.118685 -0.001440
  6 -2.308498 -0.015775 -0.000775
 16 -1.512116  1.537631  0.000353
  6  0.089690  0.713120 -0.000054
  6 -0.095130 -0.706280 -0.001037
 16  1.506676 -1.530791 -0.001440
  6  2.303058  0.022615 -0.000300
  6  1.406108  1.125525  0.000360
  1 -1.757965 -2.142695 -0.002167
  1 -3.386541 -0.057695 -0.000908
  1  3.381101  0.064535 -0.000158
  1  1.752525  2.149535  0.001096
 nber atoms=          12
  Total Energy, E(TD-HF/TD-DFT) =  -1027.34166865                               
  
          32          49 "  -1027.34166865"
After scan for Atom:   Atom  AN      X      Y      Z        X      Y      Z        X      Y      Z   
After scan for Atom:   Atom  AN      X      Y      Z        X      Y      Z        X      Y      Z   
After scan for Atom:   Atom  AN      X      Y      Z        X      Y      Z        X      Y      Z   
After scan for Atom:   Atom  AN      X      Y      Z        X      Y      Z        X      Y      Z   
After scan for Atom:   Atom  AN      X      Y      Z        X      Y      Z        X      Y      Z   
After scan for Atom:   Atom  AN      X      Y      Z        X      Y      Z        X      Y      Z   
After scan for Atom:   Atom  AN      X      Y      Z        X      Y      Z        X      Y      Z   
After scan for Atom:   Atom  AN      X      Y      Z        X      Y      Z        X      Y      Z   
After scan for Atom:   Atom  AN      X      Y      Z        X      Y      Z        X      Y      Z   
After scan for Atom:   Atom  AN      X      Y      Z        X      Y      Z        X      Y      Z   
 g94    frequencies=
     0.0    0.0    0.0    0.0    0.0    0.0  -71.4  -68.7  100.1  329.3
   352.0  355.4  404.1  467.5  551.6  557.7  576.9  690.5  744.7  786.6
   792.9  826.6  866.7 1027.9 1050.2 1113.6 1230.1 1298.0 1298.5 1327.5
  1453.1 1549.3 3214.3 3214.5 3244.3 3245.1
 g94    symmetries=
                                                 A      A      A      A
       A      A      A      A      A      A      A      A      A      A
       A      A      A      A      A      A      A      A      A      A
       A      A      A      A      A      A
 atomic masses:
 12.0000 12.0000 31.9721 12.0000 12.0000 31.9721 12.0000 12.0000  1.0078  1.0078
  1.0078  1.0078
 looking for force constants in 
 ./thiophene-donors_0_C0S1.fchk                                                 
  
 Cartesian Force Constants                  R   N=         666                  
  
 n3=          36         666
 g94-fc frequencies=
   -71.4  -68.7   -0.0    0.0    0.0    5.5    7.7   11.5  100.1  329.3
   352.0  355.4  404.1  467.5  551.6  557.7  576.9  690.5  744.8  786.6
   792.9  826.6  866.7 1028.0 1050.2 1113.6 1230.1 1298.0 1298.5 1327.6
  1453.1 1549.4 3214.3 3214.5 3244.3 3245.2
 at 99999: n3=          36
 symm operator            1 :  F  nop=           0
 symm operator            2 :  F  nop=           0
 symm operator            3 :  F  nop=           0
 symm operator            4 :  F  nop=           0
 symm operator            5 :  F  nop=           0
 symm operator            6 :  F  nop=           0
 symm operator            7 :  F  nop=           0
 The point group of the molecule is  C1
 Symmetry rotation matrix:
   1.00000   0.00000   0.00000
   0.00000   1.00000   0.00000
   0.00000   0.00000   1.00000

 Projecting out zero-frequency components
 generating redundant internal coords
         300        3600          12
 search for int coords
   1 str   2   1   1.422
   2 str   3   2   1.746
   3 str   4   3   1.802
   4 str   5   1   1.380
   5 str   5   4   1.431
   6 str   6   5   1.802
   7 str   7   6   1.746
   8 str   8   4   1.380
   9 str   8   7   1.422
  10 str   9   1   1.081
  11 str  10   2   1.079
  12 str  11   7   1.079
  13 str  12   8   1.081
 nber stretches=          13
  14 ben   1   2   3
  15 prop tor   1   2   3   4
  16 ben   1   2  10
  17 ben   1   5   4
  18 ben   1   5   6
  19 prop tor   1   5   6   7
  20 ben   2   1   5
  21 prop tor   2   1   5   4
  22 prop tor   2   1   5   6
  23 ben   2   1   9
  24 ben   2   3   4
  25 prop tor   2   3   4   5
  26 prop tor   2   3   4   8
  27 ben   3   2  10
  28 ben   3   4   5
  29 prop tor   3   4   5   1
  30 prop tor   3   4   5   6
  31 ben   3   4   8
  32 prop tor   3   4   8   7
  33 prop tor   3   4   8  12
  34 ben   4   5   6
  35 prop tor   4   5   6   7
  36 ben   4   8   7
  37 ben   4   8  12
  38 prop tor   5   1   2   3
  39 prop tor   5   1   2  10
  40 ben   5   1   9
  41 ben   5   4   8
  42 prop tor   5   4   8   7
  43 prop tor   5   4   8  12
  44 ben   5   6   7
  45 prop tor   5   6   7   8
  46 prop tor   5   6   7  11
  47 ben   6   7   8
  48 prop tor   6   7   8   4
  49 prop tor   6   7   8  12
  50 ben   6   7  11
  51 ben   7   8  12
  52 prop tor   8   4   5   1
  53 prop tor   8   4   5   6
  54 ben   8   7  11
  55 prop tor   9   1   2   3
  56 prop tor   9   1   2  10
  57 prop tor   9   1   5   4
  58 prop tor   9   1   5   6
  59 prop tor  10   2   3   4
  60 prop tor  11   7   8   4
  61 prop tor  11   7   8  12
 nber bend=              20
 nber lin bend=           0
 nber prop tor=          28
 nber impr tor=           0
 nber tot redund int=          61
 Eigenvalues of G in red int coords
    Gval -0.00000000 -0.00000000 -0.00000000 -0.00000000 -0.00000000 -0.00000000 -0.00000000 -0.00000000
    Gval -0.00000000 -0.00000000 -0.00000000 -0.00000000 -0.00000000 -0.00000000 -0.00000000 -0.00000000
    Gval  0.00000000  0.00000000  0.00000000  0.00000000  0.00000000  0.00000000  0.00000000  0.00000000
    Gval  0.00000000  0.00000000  0.00000000  0.00000000  0.00000000  0.00000000  0.00000000  0.00001793
    Gval  0.00002682  0.00003466  0.00004575  0.00005183  0.00007871  0.00009640  0.00010714  0.00011027
    Gval  0.00014940  0.00015883  0.00022363  0.00029095  0.00029770  0.00035849  0.00038266  0.00059643
    Gval  0.00059659  0.00062048  0.00062518  0.00062855  0.00108356  0.00108513  0.00117634  0.00117899
    Gval  0.00126022  0.00202933  0.00215037  0.00390381  0.00391558
  1.792538227174121E-005  1.792538227174121E-005
  2.682266331773453E-005  1.792538227174121E-005
  3.466184635761265E-005  1.792538227174121E-005
  4.575076208082384E-005  1.792538227174121E-005
  5.182659372120048E-005  1.792538227174121E-005
  7.871134303671569E-005  1.792538227174121E-005
  9.639735279223093E-005  1.792538227174121E-005
  1.071445844706812E-004  1.792538227174121E-005
  1.102722721974872E-004  1.792538227174121E-005
  1.493997307644799E-004  1.792538227174121E-005
  1.588298816540938E-004  1.792538227174121E-005
  2.236289455370935E-004  1.792538227174121E-005
  2.909456918528891E-004  1.792538227174121E-005
  2.976975405322665E-004  1.792538227174121E-005
  3.584881129613986E-004  1.792538227174121E-005
  3.826558036627843E-004  1.792538227174121E-005
  5.964284110083234E-004  1.792538227174121E-005
  5.965900000272425E-004  1.792538227174121E-005
  6.204810910201755E-004  1.792538227174121E-005
  6.251802685416961E-004  1.792538227174121E-005
  6.285527057027355E-004  1.792538227174121E-005
  1.083556116865429E-003  1.792538227174121E-005
  1.085130763897810E-003  1.792538227174121E-005
  1.176343414663251E-003  1.792538227174121E-005
  1.178990748817316E-003  1.792538227174121E-005
  1.260215334522352E-003  1.792538227174121E-005
  2.029326865238399E-003  1.792538227174121E-005
  2.150366667226651E-003  1.792538227174121E-005
  3.903807673668050E-003  1.792538227174121E-005
  3.915581351887425E-003  1.792538227174121E-005
 cut=1d-8, nber non-redundant internal coords=          30
 Check on Eigenvals of non-red overlap matrix:
  0.00001793  0.00002682  0.00003466  0.00004575  0.00005183  0.00007871  0.00009640  0.00010714
  0.00011027  0.00014940  0.00015883  0.00022363  0.00029095  0.00029770  0.00035849  0.00038266
  0.00059643  0.00059659  0.00062048  0.00062518  0.00062855  0.00108356  0.00108513  0.00117634
  0.00117899  0.00126022  0.00202933  0.00215037  0.00390381  0.00391558
 Checking for correct frequencies
 recalc frequencies=
   -71.4  -68.7   -0.0   -0.0    0.0    0.0    0.0    0.0  100.1  329.3
   352.0  355.4  404.1  467.5  551.6  557.7  576.9  690.5  744.8  786.6
   792.9  826.6  866.7 1028.0 1050.2 1113.6 1230.1 1298.0 1298.5 1327.6
  1453.1 1549.4 3214.3 3214.5 3244.3 3245.2
 recalc symmetries=
                                                                       
                                                                       
                                                                       
                                           
 recalc freqs check OK
 Zero-point lengths:
 29.3446 29.9090 10.0000 10.0000 10.0000 10.0000 10.0000 10.0000 24.7735 13.6614
 13.2137 13.1497 12.3330 11.4657 10.5551 10.4981 10.3212  9.4344  9.0843  8.8395
  8.8041  8.6225  8.4210  7.7322  7.6500  7.4289  7.0684  6.8811  6.8798  6.8040
  6.5034  6.2982  4.3727  4.3726  4.3525  4.3519
 highest evec of mol 1
  0.0116  0.0465  0.0000
  0.2002  0.0027  0.0000
 -0.0007 -0.0009 -0.0000
 -0.0066 -0.0022 -0.0000
 -0.0066 -0.0022 -0.0000
 -0.0007 -0.0009 -0.0000
  0.2002  0.0027  0.0000
  0.0116  0.0465  0.0000
 -0.0433 -0.1338 -0.0001
 -0.6612 -0.0233 -0.0001
 -0.6612 -0.0233 -0.0001
 -0.0433 -0.1338 -0.0001
 generating redundant internal coords
         300        3600          12
 Adding extra bonds for z output only
           6           6          16           6           6          16
           6           6           1           1           1           1
 search for int coords
   1 str   2   1   1.422
   2 str   3   2   1.746
   3 str   4   3   1.802
   4 str   5   1   1.380
   5 str   5   4   1.431
   6 str   6   5   1.802
   7 str   7   6   1.746
   8 str   8   4   1.380
   9 str   8   7   1.422
  10 str   9   1   1.081
  11 str  10   2   1.079
  12 str  11   7   1.079
  13 str  12   8   1.081
 nber stretches=          13
  14 ben   1   2   3
  15 prop tor   1   2   3   4
  16 ben   1   2  10
  17 ben   1   5   4
  18 ben   1   5   6
  19 prop tor   1   5   6   7
  20 ben   2   1   5
  21 prop tor   2   1   5   4
  22 prop tor   2   1   5   6
  23 ben   2   1   9
  24 ben   2   3   4
  25 prop tor   2   3   4   5
  26 prop tor   2   3   4   8
  27 ben   3   2  10
  28 ben   3   4   5
  29 prop tor   3   4   5   1
  30 prop tor   3   4   5   6
  31 ben   3   4   8
  32 prop tor   3   4   8   7
  33 prop tor   3   4   8  12
  34 ben   4   5   6
  35 prop tor   4   5   6   7
  36 ben   4   8   7
  37 ben   4   8  12
  38 prop tor   5   1   2   3
  39 prop tor   5   1   2  10
  40 ben   5   1   9
  41 ben   5   4   8
  42 prop tor   5   4   8   7
  43 prop tor   5   4   8  12
  44 ben   5   6   7
  45 prop tor   5   6   7   8
  46 prop tor   5   6   7  11
  47 ben   6   7   8
  48 prop tor   6   7   8   4
  49 prop tor   6   7   8  12
  50 ben   6   7  11
  51 ben   7   8  12
  52 prop tor   8   4   5   1
  53 prop tor   8   4   5   6
  54 ben   8   7  11
  55 prop tor   9   1   2   3
  56 prop tor   9   1   2  10
  57 prop tor   9   1   5   4
  58 prop tor   9   1   5   6
  59 prop tor  10   2   3   4
  60 prop tor  11   7   8   4
  61 prop tor  11   7   8  12
 nber bend=              20
 nber lin bend=           0
 nber prop tor=          28
 nber impr tor=           0
 nber tot redund int=          61
 Reading file: 
 ./thiophene-donors_0_C1S0.log                                                  
                                          
  Entering Gaussian System, Link 0=g16                                          
  
 Gaussian format, type: g94, g98, g03= F F F
  #P Geom=AllCheck Guess=TCheck SCRF=Check GenChk UB3LYP/6-311G(d,p) Fre    
 energy type= B3LYP   
 Original G94 input coords:
  6 -1.401082 -1.120714 -0.001441
  6 -2.268149 -0.010377 -0.000778
 16 -1.489328  1.515317  0.000351
  6  0.077399  0.709307 -0.000046
  6 -0.082839 -0.702467 -0.001022
 16  1.483888 -1.508477 -0.001401
  6  2.262709  0.017217 -0.000320
  6  1.395642  1.127554  0.000368
  1 -1.753903 -2.142709 -0.002171
  1 -3.349501 -0.051523 -0.000916
  1  3.344061  0.058363 -0.000193
  1  1.748463  2.149549  0.001097
 nber atoms=          12
  SCF Done:  E(UB3LYP) =  -1027.22028272     A.U. after    1 cycles             
  
          23          40 "  -1027.22028272"
After scan for Atom:   Atom  AN      X      Y      Z        X      Y      Z        X      Y      Z   
After scan for Atom:   Atom  AN      X      Y      Z        X      Y      Z        X      Y      Z   
After scan for Atom:   Atom  AN      X      Y      Z        X      Y      Z        X      Y      Z   
After scan for Atom:   Atom  AN      X      Y      Z        X      Y      Z        X      Y      Z   
After scan for Atom:   Atom  AN      X      Y      Z        X      Y      Z        X      Y      Z   
After scan for Atom:   Atom  AN      X      Y      Z        X      Y      Z        X      Y      Z   
After scan for Atom:   Atom  AN      X      Y      Z        X      Y      Z        X      Y      Z   
After scan for Atom:   Atom  AN      X      Y      Z        X      Y      Z        X      Y      Z   
After scan for Atom:   Atom  AN      X      Y      Z        X      Y      Z        X      Y      Z   
After scan for Atom:   Atom  AN      X      Y      Z        X      Y      Z        X      Y      Z   
 g94    frequencies=
     0.0    0.0    0.0    0.0    0.0    0.0  187.6  213.6  353.9  421.9
   443.5  461.4  519.6  631.6  646.7  762.8  763.6  770.9  784.2  862.2
   906.9  909.0  921.8 1085.4 1093.0 1175.1 1262.6 1338.0 1358.1 1378.1
  1471.5 1531.2 3222.0 3222.4 3233.9 3234.4
 g94    symmetries=
                                                 A      A      A      A
       A      A      A      A      A      A      A      A      A      A
       A      A      A      A      A      A      A      A      A      A
       A      A      A      A      A      A
 atomic masses:
 12.0000 12.0000 31.9721 12.0000 12.0000 31.9721 12.0000 12.0000  1.0078  1.0078
  1.0078  1.0078
 looking for force constants in 
 ./thiophene-donors_0_C1S0.fchk                                                 
  
 Cartesian Force Constants                  R   N=         666                  
  
 n3=          36         666
 g94-fc frequencies=
    -0.0   -0.0    0.0    4.4    6.2    8.9  187.7  213.6  353.9  421.9
   443.5  461.4  519.7  631.6  646.7  762.8  763.7  770.9  784.2  862.2
   906.9  909.0  921.8 1085.4 1093.1 1175.1 1262.7 1338.0 1358.1 1378.1
  1471.5 1531.3 3222.0 3222.4 3233.9 3234.5
 at 99999: n3=          36
 symm operator            1 :  F  nop=           0
 symm operator            2 :  F  nop=           0
 symm operator            3 :  F  nop=           0
 symm operator            4 :  F  nop=           0
 symm operator            5 :  F  nop=           0
 symm operator            6 :  F  nop=           0
 symm operator            7 :  F  nop=           0
 The point group of the molecule is  C1
 Symmetry rotation matrix:
   1.00000   0.00000   0.00000
   0.00000   1.00000   0.00000
   0.00000   0.00000   1.00000

 Projecting out zero-frequency components
 generating redundant internal coords
         300        3600          12
 search for int coords
   1 str   2   1   1.409
   2 str   3   2   1.713
   3 str   4   3   1.762
   4 str   5   1   1.383
   5 str   5   4   1.421
   6 str   6   5   1.762
   7 str   7   6   1.713
   8 str   8   4   1.383
   9 str   8   7   1.409
  10 str   9   1   1.081
  11 str  10   2   1.082
  12 str  11   7   1.082
  13 str  12   8   1.081
 nber stretches=          13
  14 ben   1   2   3
  15 prop tor   1   2   3   4
  16 ben   1   2  10
  17 ben   1   5   4
  18 ben   1   5   6
  19 prop tor   1   5   6   7
  20 ben   2   1   5
  21 prop tor   2   1   5   4
  22 prop tor   2   1   5   6
  23 ben   2   1   9
  24 ben   2   3   4
  25 prop tor   2   3   4   5
  26 prop tor   2   3   4   8
  27 ben   3   2  10
  28 ben   3   4   5
  29 prop tor   3   4   5   1
  30 prop tor   3   4   5   6
  31 ben   3   4   8
  32 prop tor   3   4   8   7
  33 prop tor   3   4   8  12
  34 ben   4   5   6
  35 prop tor   4   5   6   7
  36 ben   4   8   7
  37 ben   4   8  12
  38 prop tor   5   1   2   3
  39 prop tor   5   1   2  10
  40 ben   5   1   9
  41 ben   5   4   8
  42 prop tor   5   4   8   7
  43 prop tor   5   4   8  12
  44 ben   5   6   7
  45 prop tor   5   6   7   8
  46 prop tor   5   6   7  11
  47 ben   6   7   8
  48 prop tor   6   7   8   4
  49 prop tor   6   7   8  12
  50 ben   6   7  11
  51 ben   7   8  12
  52 prop tor   8   4   5   1
  53 prop tor   8   4   5   6
  54 ben   8   7  11
  55 prop tor   9   1   2   3
  56 prop tor   9   1   2  10
  57 prop tor   9   1   5   4
  58 prop tor   9   1   5   6
  59 prop tor  10   2   3   4
  60 prop tor  11   7   8   4
  61 prop tor  11   7   8  12
 nber bend=              20
 nber lin bend=           0
 nber prop tor=          28
 nber impr tor=           0
 nber tot redund int=          61
 Eigenvalues of G in red int coords
    Gval -0.00000000 -0.00000000 -0.00000000 -0.00000000 -0.00000000 -0.00000000 -0.00000000 -0.00000000
    Gval -0.00000000 -0.00000000 -0.00000000 -0.00000000 -0.00000000 -0.00000000 -0.00000000  0.00000000
    Gval  0.00000000  0.00000000  0.00000000  0.00000000  0.00000000  0.00000000  0.00000000  0.00000000
    Gval  0.00000000  0.00000000  0.00000000  0.00000000  0.00000000  0.00000000  0.00000000  0.00001796
    Gval  0.00002731  0.00003502  0.00004583  0.00005210  0.00007913  0.00009975  0.00010837  0.00011106
    Gval  0.00015231  0.00016165  0.00022899  0.00029178  0.00030331  0.00036891  0.00038270  0.00059646
    Gval  0.00059665  0.00062090  0.00062560  0.00062921  0.00107981  0.00108108  0.00117608  0.00117889
    Gval  0.00126456  0.00200212  0.00212258  0.00392335  0.00393770
  1.795541798184543E-005  1.795541798184543E-005
  2.731153235106858E-005  1.795541798184543E-005
  3.501697927672725E-005  1.795541798184543E-005
  4.583450035993604E-005  1.795541798184543E-005
  5.209663208650437E-005  1.795541798184543E-005
  7.913163029468934E-005  1.795541798184543E-005
  9.974964955961146E-005  1.795541798184543E-005
  1.083682941532516E-004  1.795541798184543E-005
  1.110553153504743E-004  1.795541798184543E-005
  1.523077268970218E-004  1.795541798184543E-005
  1.616494495183864E-004  1.795541798184543E-005
  2.289867246364933E-004  1.795541798184543E-005
  2.917796249428150E-004  1.795541798184543E-005
  3.033117354372963E-004  1.795541798184543E-005
  3.689114288989859E-004  1.795541798184543E-005
  3.826999644255798E-004  1.795541798184543E-005
  5.964607527318359E-004  1.795541798184543E-005
  5.966455458748938E-004  1.795541798184543E-005
  6.208994954863659E-004  1.795541798184543E-005
  6.256010680783703E-004  1.795541798184543E-005
  6.292132310760345E-004  1.795541798184543E-005
  1.079811049526713E-003  1.795541798184543E-005
  1.081083442648083E-003  1.795541798184543E-005
  1.176079524577223E-003  1.795541798184543E-005
  1.178886045929630E-003  1.795541798184543E-005
  1.264556714212591E-003  1.795541798184543E-005
  2.002118793506718E-003  1.795541798184543E-005
  2.122581865222213E-003  1.795541798184543E-005
  3.923349205787572E-003  1.795541798184543E-005
  3.937704278925713E-003  1.795541798184543E-005
 cut=1d-8, nber non-redundant internal coords=          30
 Check on Eigenvals of non-red overlap matrix:
  0.00001796  0.00002731  0.00003502  0.00004583  0.00005210  0.00007913  0.00009975  0.00010837
  0.00011106  0.00015231  0.00016165  0.00022899  0.00029178  0.00030331  0.00036891  0.00038270
  0.00059646  0.00059665  0.00062090  0.00062560  0.00062921  0.00107981  0.00108108  0.00117608
  0.00117889  0.00126456  0.00200212  0.00212258  0.00392335  0.00393770
 Checking for correct frequencies
 recalc frequencies=
    -0.0   -0.0   -0.0   -0.0    0.0    0.0  187.7  213.6  353.9  421.9
   443.5  461.4  519.7  631.6  646.7  762.8  763.7  770.9  784.2  862.2
   906.9  909.0  921.8 1085.4 1093.1 1175.1 1262.7 1338.0 1358.1 1378.1
  1471.5 1531.3 3222.0 3222.4 3233.9 3234.5
 recalc symmetries=
                                                                       
                                                                       
                                                                       
                                           
 recalc freqs check OK
 Zero-point lengths:
 10.0000 10.0000 10.0000 10.0000 10.0000 10.0000 18.0976 16.9629 13.1782 12.0695
 11.7721 11.5414 10.8753  9.8644  9.7483  8.9759  8.9711  8.9288  8.8528  8.4430
  8.2323  8.2227  8.1654  7.5248  7.4985  7.2319  6.9768  6.7775  6.7270  6.6781
  6.4627  6.3354  4.3675  4.3672  4.3594  4.3591
 highest evec of mol 2
  0.0519  0.1591  0.0001
  0.1326 -0.0028  0.0000
 -0.0005 -0.0019 -0.0000
 -0.0123 -0.0049 -0.0000
 -0.0123 -0.0049 -0.0000
 -0.0005 -0.0019 -0.0000
  0.1325 -0.0028  0.0000
  0.0519  0.1591  0.0001
 -0.1711 -0.4981 -0.0004
 -0.4203 -0.0136 -0.0001
 -0.4203 -0.0136 -0.0000
 -0.1711 -0.4981 -0.0004
 Enter nber and list of atoms to keep of mol #2
 keep list:          12           1           2           3           4
           5           6           7           8           9          10
          11          12
 reordering atoms
           1 -0.744383528219967     
           2  -2.01781011280192     
           3  -2.00732442428075     
           4 -0.245501903946703     
           5  0.245501904440823     
           6   2.00732442088700     
           7   2.01781011977583     
           8  0.744383529794053     
           9 -0.600527443671994     
          10  -2.96544234936565     
          11   2.96544235871549     
          12  0.600527445462074     
           1           1
           2           2
           3           3
           4           4
           5           5
           6           6
           7           7
           8           8
           9           9
          10          10
          11          11
          12          12
 initial cartes coords mol 1
   6   0.00000   1.63484  -0.75578
   6   0.00000   1.05147  -2.05217
  16  -0.00000  -0.69412  -2.03722
   6  -0.00000  -0.67574  -0.23576
   6  -0.00000   0.67574   0.23576
  16  -0.00000   0.69412   2.03722
   6   0.00000  -1.05147   2.05217
   6   0.00000  -1.63484   0.75578
   1   0.00001   2.70544  -0.60605
   1   0.00001   1.57252  -2.99686
   1   0.00001  -1.57252   2.99686
   1   0.00001  -2.70544   0.60605
 initial cartes coords mol 2
   6  -0.00001   1.63248  -0.74438
   6  -0.00001   1.02995  -2.01781
  16   0.00001  -0.68300  -2.00732
   6   0.00000  -0.66665  -0.24550
   6  -0.00000   0.66665   0.24550
  16   0.00001   0.68300   2.00732
   6  -0.00002  -1.02995   2.01781
   6   0.00000  -1.63248   0.74438
   1  -0.00001   2.70405  -0.60053
   1  -0.00001   1.55245  -2.96544
   1  -0.00003  -1.55245   2.96544
   1   0.00000  -2.70405   0.60053
 loop 1 0
 mod cartes coords mol 2
   6  -0.00001   1.63248  -0.74438
   6  -0.00001   1.02995  -2.01781
  16   0.00001  -0.68300  -2.00732
   6   0.00000  -0.66665  -0.24550
   6  -0.00000   0.66665   0.24550
  16   0.00001   0.68300   2.00732
   6  -0.00002  -1.02995   2.01781
   6   0.00000  -1.63248   0.74438
   1  -0.00001   2.70405  -0.60053
   1  -0.00001   1.55245  -2.96544
   1  -0.00003  -1.55245   2.96544
   1   0.00000  -2.70405   0.60053
 read in order, maxerr=  0.04 for atom   7
 final axis swaps:           1           1           1
 final xyz swap pattern=           1
 reorder list:
   1   2   3   4   5   6   7   8   9  10  11  12
 axis signs=           1           1           1
  6    -0.000008  1.632479 -0.744384     0.000003  1.634841 -0.755785
  6    -0.000011  1.029952 -2.017810     0.000005  1.051470 -2.052167
 16     0.000006 -0.682997 -2.007324    -0.000001 -0.694116 -2.037224
  6     0.000000 -0.666652 -0.245502    -0.000003 -0.675744 -0.235763
  6    -0.000003  0.666652  0.245502    -0.000003  0.675744  0.235763
 16     0.000009  0.682997  2.007324    -0.000001  0.694116  2.037224
  6    -0.000021 -1.029952  2.017810     0.000005 -1.051470  2.052167
  6     0.000000 -1.632479  0.744384     0.000002 -1.634841  0.755785
  1    -0.000010  2.704049 -0.600527     0.000006  2.705440 -0.606048
  1    -0.000014  1.552454 -2.965442     0.000005  1.572519 -2.996859
  1    -0.000029 -1.552454  2.965442     0.000013 -1.572519  2.996859
  1     0.000002 -2.704049  0.600527     0.000008 -2.705440  0.606048
 generating redundant internal coords
         300        3600          12
 Adding extra bonds for z output only
           6           6          16           6           6          16
           6           6           1           1           1           1
 search for int coords
   1 str   2   1   1.409
   2 str   3   2   1.713
   3 str   4   3   1.762
   4 str   5   1   1.383
   5 str   5   4   1.421
   6 str   6   5   1.762
   7 str   7   6   1.713
   8 str   8   4   1.383
   9 str   8   7   1.409
  10 str   9   1   1.081
  11 str  10   2   1.082
  12 str  11   7   1.082
  13 str  12   8   1.081
 nber stretches=          13
  14 ben   1   2   3
  15 prop tor   1   2   3   4
  16 ben   1   2  10
  17 ben   1   5   4
  18 ben   1   5   6
  19 prop tor   1   5   6   7
  20 ben   2   1   5
  21 prop tor   2   1   5   4
  22 prop tor   2   1   5   6
  23 ben   2   1   9
  24 ben   2   3   4
  25 prop tor   2   3   4   5
  26 prop tor   2   3   4   8
  27 ben   3   2  10
  28 ben   3   4   5
  29 prop tor   3   4   5   1
  30 prop tor   3   4   5   6
  31 ben   3   4   8
  32 prop tor   3   4   8   7
  33 prop tor   3   4   8  12
  34 ben   4   5   6
  35 prop tor   4   5   6   7
  36 ben   4   8   7
  37 ben   4   8  12
  38 prop tor   5   1   2   3
  39 prop tor   5   1   2  10
  40 ben   5   1   9
  41 ben   5   4   8
  42 prop tor   5   4   8   7
  43 prop tor   5   4   8  12
  44 ben   5   6   7
  45 prop tor   5   6   7   8
  46 prop tor   5   6   7  11
  47 ben   6   7   8
  48 prop tor   6   7   8   4
  49 prop tor   6   7   8  12
  50 ben   6   7  11
  51 ben   7   8  12
  52 prop tor   8   4   5   1
  53 prop tor   8   4   5   6
  54 ben   8   7  11
  55 prop tor   9   1   2   3
  56 prop tor   9   1   2  10
  57 prop tor   9   1   5   4
  58 prop tor   9   1   5   6
  59 prop tor  10   2   3   4
  60 prop tor  11   7   8   4
  61 prop tor  11   7   8  12
 nber bend=              20
 nber lin bend=           0
 nber prop tor=          28
 nber impr tor=           0
 nber tot redund int=          61
 generating redundant internal coords
         300        3600          12
 search for int coords
   1 str   2   1   1.422
   2 str   3   2   1.746
   3 str   4   3   1.802
   4 str   5   1   1.380
   5 str   5   4   1.431
   6 str   6   5   1.802
   7 str   7   6   1.746
   8 str   8   4   1.380
   9 str   8   7   1.422
  10 str   9   1   1.081
  11 str  10   2   1.079
  12 str  11   7   1.079
  13 str  12   8   1.081
 nber stretches=          13
  14 ben   1   2   3
  15 prop tor   1   2   3   4
  16 ben   1   2  10
  17 ben   1   5   4
  18 ben   1   5   6
  19 prop tor   1   5   6   7
  20 ben   2   1   5
  21 prop tor   2   1   5   4
  22 prop tor   2   1   5   6
  23 ben   2   1   9
  24 ben   2   3   4
  25 prop tor   2   3   4   5
  26 prop tor   2   3   4   8
  27 ben   3   2  10
  28 ben   3   4   5
  29 prop tor   3   4   5   1
  30 prop tor   3   4   5   6
  31 ben   3   4   8
  32 prop tor   3   4   8   7
  33 prop tor   3   4   8  12
  34 ben   4   5   6
  35 prop tor   4   5   6   7
  36 ben   4   8   7
  37 ben   4   8  12
  38 prop tor   5   1   2   3
  39 prop tor   5   1   2  10
  40 ben   5   1   9
  41 ben   5   4   8
  42 prop tor   5   4   8   7
  43 prop tor   5   4   8  12
  44 ben   5   6   7
  45 prop tor   5   6   7   8
  46 prop tor   5   6   7  11
  47 ben   6   7   8
  48 prop tor   6   7   8   4
  49 prop tor   6   7   8  12
  50 ben   6   7  11
  51 ben   7   8  12
  52 prop tor   8   4   5   1
  53 prop tor   8   4   5   6
  54 ben   8   7  11
  55 prop tor   9   1   2   3
  56 prop tor   9   1   2  10
  57 prop tor   9   1   5   4
  58 prop tor   9   1   5   6
  59 prop tor  10   2   3   4
  60 prop tor  11   7   8   4
  61 prop tor  11   7   8  12
 nber bend=              20
 nber lin bend=           0
 nber prop tor=          28
 nber impr tor=           0
 nber tot redund int=          61
 Eigenvalues of G in red int coords
    Gval -0.00000000 -0.00000000 -0.00000000 -0.00000000 -0.00000000 -0.00000000 -0.00000000 -0.00000000
    Gval -0.00000000 -0.00000000 -0.00000000 -0.00000000 -0.00000000 -0.00000000 -0.00000000 -0.00000000
    Gval  0.00000000  0.00000000  0.00000000  0.00000000  0.00000000  0.00000000  0.00000000  0.00000000
    Gval  0.00000000  0.00000000  0.00000000  0.00000000  0.00000000  0.00000000  0.00000000  0.00001793
    Gval  0.00002682  0.00003466  0.00004575  0.00005183  0.00007871  0.00009640  0.00010714  0.00011027
    Gval  0.00014940  0.00015883  0.00022363  0.00029095  0.00029770  0.00035849  0.00038266  0.00059643
    Gval  0.00059659  0.00062048  0.00062518  0.00062855  0.00108356  0.00108513  0.00117634  0.00117899
    Gval  0.00126022  0.00202933  0.00215037  0.00390381  0.00391558
  1.792538227174125E-005  1.792538227174125E-005
  2.682266331773447E-005  1.792538227174125E-005
  3.466184635761268E-005  1.792538227174125E-005
  4.575076208082390E-005  1.792538227174125E-005
  5.182659372120051E-005  1.792538227174125E-005
  7.871134303671570E-005  1.792538227174125E-005
  9.639735279223038E-005  1.792538227174125E-005
  1.071445844706811E-004  1.792538227174125E-005
  1.102722721974873E-004  1.792538227174125E-005
  1.493997307644799E-004  1.792538227174125E-005
  1.588298816540938E-004  1.792538227174125E-005
  2.236289455370937E-004  1.792538227174125E-005
  2.909456918528890E-004  1.792538227174125E-005
  2.976975405322662E-004  1.792538227174125E-005
  3.584881129613987E-004  1.792538227174125E-005
  3.826558036627841E-004  1.792538227174125E-005
  5.964284110083234E-004  1.792538227174125E-005
  5.965900000272433E-004  1.792538227174125E-005
  6.204810910201753E-004  1.792538227174125E-005
  6.251802685416957E-004  1.792538227174125E-005
  6.285527057027350E-004  1.792538227174125E-005
  1.083556116865429E-003  1.792538227174125E-005
  1.085130763897811E-003  1.792538227174125E-005
  1.176343414663254E-003  1.792538227174125E-005
  1.178990748817319E-003  1.792538227174125E-005
  1.260215334522349E-003  1.792538227174125E-005
  2.029326865238396E-003  1.792538227174125E-005
  2.150366667226648E-003  1.792538227174125E-005
  3.903807673668049E-003  1.792538227174125E-005
  3.915581351887424E-003  1.792538227174125E-005
 cut=1d-8, nber non-redundant internal coords=          30
 Check on Eigenvals of non-red overlap matrix:
  0.00001793  0.00002682  0.00003466  0.00004575  0.00005183  0.00007871  0.00009640  0.00010714
  0.00011027  0.00014940  0.00015883  0.00022363  0.00029095  0.00029770  0.00035849  0.00038266
  0.00059643  0.00059659  0.00062048  0.00062518  0.00062855  0.00108356  0.00108513  0.00117634
  0.00117899  0.00126022  0.00202933  0.00215037  0.00390381  0.00391558
 generating redundant internal coords
         300        3600          12
 search for int coords
   1 str   2   1   1.409
   2 str   3   2   1.713
   3 str   4   3   1.762
   4 str   5   1   1.383
   5 str   5   4   1.421
   6 str   6   5   1.762
   7 str   7   6   1.713
   8 str   8   4   1.383
   9 str   8   7   1.409
  10 str   9   1   1.081
  11 str  10   2   1.082
  12 str  11   7   1.082
  13 str  12   8   1.081
 nber stretches=          13
  14 ben   1   2   3
  15 prop tor   1   2   3   4
  16 ben   1   2  10
  17 ben   1   5   4
  18 ben   1   5   6
  19 prop tor   1   5   6   7
  20 ben   2   1   5
  21 prop tor   2   1   5   4
  22 prop tor   2   1   5   6
  23 ben   2   1   9
  24 ben   2   3   4
  25 prop tor   2   3   4   5
  26 prop tor   2   3   4   8
  27 ben   3   2  10
  28 ben   3   4   5
  29 prop tor   3   4   5   1
  30 prop tor   3   4   5   6
  31 ben   3   4   8
  32 prop tor   3   4   8   7
  33 prop tor   3   4   8  12
  34 ben   4   5   6
  35 prop tor   4   5   6   7
  36 ben   4   8   7
  37 ben   4   8  12
  38 prop tor   5   1   2   3
  39 prop tor   5   1   2  10
  40 ben   5   1   9
  41 ben   5   4   8
  42 prop tor   5   4   8   7
  43 prop tor   5   4   8  12
  44 ben   5   6   7
  45 prop tor   5   6   7   8
  46 prop tor   5   6   7  11
  47 ben   6   7   8
  48 prop tor   6   7   8   4
  49 prop tor   6   7   8  12
  50 ben   6   7  11
  51 ben   7   8  12
  52 prop tor   8   4   5   1
  53 prop tor   8   4   5   6
  54 ben   8   7  11
  55 prop tor   9   1   2   3
  56 prop tor   9   1   2  10
  57 prop tor   9   1   5   4
  58 prop tor   9   1   5   6
  59 prop tor  10   2   3   4
  60 prop tor  11   7   8   4
  61 prop tor  11   7   8  12
 nber bend=              20
 nber lin bend=           0
 nber prop tor=          28
 nber impr tor=           0
 nber tot redund int=          61
 Eigenvalues of G in red int coords
    Gval -0.00000000 -0.00000000 -0.00000000 -0.00000000 -0.00000000 -0.00000000 -0.00000000 -0.00000000
    Gval -0.00000000 -0.00000000 -0.00000000 -0.00000000 -0.00000000 -0.00000000 -0.00000000  0.00000000
    Gval  0.00000000  0.00000000  0.00000000  0.00000000  0.00000000  0.00000000  0.00000000  0.00000000
    Gval  0.00000000  0.00000000  0.00000000  0.00000000  0.00000000  0.00000000  0.00000000  0.00001796
    Gval  0.00002731  0.00003502  0.00004583  0.00005210  0.00007913  0.00009975  0.00010837  0.00011106
    Gval  0.00015231  0.00016165  0.00022899  0.00029178  0.00030331  0.00036891  0.00038270  0.00059646
    Gval  0.00059665  0.00062090  0.00062560  0.00062921  0.00107981  0.00108108  0.00117608  0.00117889
    Gval  0.00126456  0.00200212  0.00212258  0.00392335  0.00393770
  1.795541798184541E-005  1.795541798184541E-005
  2.731153235106862E-005  1.795541798184541E-005
  3.501697927672714E-005  1.795541798184541E-005
  4.583450035993594E-005  1.795541798184541E-005
  5.209663208650428E-005  1.795541798184541E-005
  7.913163029468919E-005  1.795541798184541E-005
  9.974964955961150E-005  1.795541798184541E-005
  1.083682941532515E-004  1.795541798184541E-005
  1.110553153504742E-004  1.795541798184541E-005
  1.523077268970220E-004  1.795541798184541E-005
  1.616494495183867E-004  1.795541798184541E-005
  2.289867246364932E-004  1.795541798184541E-005
  2.917796249428150E-004  1.795541798184541E-005
  3.033117354372965E-004  1.795541798184541E-005
  3.689114288989860E-004  1.795541798184541E-005
  3.826999644255795E-004  1.795541798184541E-005
  5.964607527318361E-004  1.795541798184541E-005
  5.966455458748943E-004  1.795541798184541E-005
  6.208994954863663E-004  1.795541798184541E-005
  6.256010680783707E-004  1.795541798184541E-005
  6.292132310760347E-004  1.795541798184541E-005
  1.079811049526712E-003  1.795541798184541E-005
  1.081083442648082E-003  1.795541798184541E-005
  1.176079524577221E-003  1.795541798184541E-005
  1.178886045929628E-003  1.795541798184541E-005
  1.264556714212587E-003  1.795541798184541E-005
  2.002118793506718E-003  1.795541798184541E-005
  2.122581865222213E-003  1.795541798184541E-005
  3.923349205787571E-003  1.795541798184541E-005
  3.937704278925712E-003  1.795541798184541E-005
 cut=1d-8, nber non-redundant internal coords=          30
 Check on Eigenvals of non-red overlap matrix:
  0.00001796  0.00002731  0.00003502  0.00004583  0.00005210  0.00007913  0.00009975  0.00010837
  0.00011106  0.00015231  0.00016165  0.00022899  0.00029178  0.00030331  0.00036891  0.00038270
  0.00059646  0.00059665  0.00062090  0.00062560  0.00062921  0.00107981  0.00108108  0.00117608
  0.00117889  0.00126456  0.00200212  0.00212258  0.00392335  0.00393770
 d1=
 -12.9  -0.0   0.9   3.4   0.0  -0.0  -0.0   0.0   2.2   3.6  -0.0   0.0   0.0  -3.1   0.0   0.5  -0.4   0.0  -0.0   0.6
  -0.0  -0.0   0.4   0.0   0.7  -0.0   0.0   0.0  -0.0  -0.0
 d2=
 -13.0   0.0  -1.0   3.4   0.0  -0.0  -0.0   0.0   2.2  -3.6   0.0  -0.0  -0.0   3.0  -0.0   0.6  -0.4  -0.0  -0.0   0.6
   0.0   0.0  -0.4   0.0   0.7   0.0  -0.0  -0.0   0.0   0.0
 curvilinear- renormalizn of Dush matrix done
  mol 1 sym            1  -> mol 2 sym            1

 Dushinsky matrix, ncs 2 in terms of ncs 1

   mode   freq    coeff     %      %tot     of    at

   1        -0. -0.0000     0.0     0.0   1       -71.
   2        -0. -0.0000     0.0     0.0   9       100.
   3        -0.  0.0000     0.0     0.0   1       -71.
   4        -0.  0.0000     0.0     0.0   1       -71.
   5         0.  0.0000     0.0     0.0   1       -71.
   6         0. -0.0000     0.0     0.0   9       100.
   7       188.  0.9609    92.3   101.0   1       -71.
   8       214.  0.9638    92.9   104.0   9       100.
   9       354.  0.9972    99.4   102.3  10       329.
  10       422.  0.8237    67.8   102.8   2       -69.
                -0.5508    30.3          12       355.
  11       443.  0.9748    95.0   100.1  13       404.
  12       461. -0.9981    99.6   101.1  11       352.
  13       520. -0.9718    94.4   102.6  14       468.
  14       632.  0.5168    26.7   100.2  12       355.
                -0.8334    69.4          15       552.
  15       647. -0.9881    97.6   102.5  17       577.
  16       763.  0.9860    97.2   100.1  19       745.
  17       764. -0.9882    97.7   100.4  18       690.
  18       771. -0.4784    22.9    98.8   2       -69.
                -0.6288    39.5          12       355.
                -0.5244    27.5          15       552.
                 0.3174    10.1          21       793.
  19       784. -0.9390    88.2    99.0  16       558.
                -0.3349    11.2          20       787.
  20       862. -0.9887    97.8   101.6  22       827.
  21       907.  0.3206    10.3   100.5  16       558.
                -0.9469    89.7          20       787.
  22       909. -0.9505    90.3   100.6  21       793.
  23       922. -0.9907    98.1   100.2  23       867.
  24      1085.  0.9906    98.1    99.9  24      1028.
  25      1093.  0.9893    97.9    99.9  25      1050.
  26      1175.  0.9889    97.8   100.4  26      1114.
  27      1263.  0.9929    98.6   100.0  27      1230.
  28      1338.  0.8992    80.9   100.0  29      1298.
                -0.4138    17.1          30      1328.
  29      1358. -0.9903    98.1   100.2  28      1298.
  30      1378. -0.4232    17.9   100.8  29      1298.
                -0.8998    81.0          30      1328.
  31      1471. -0.9983    99.7   100.4  31      1453.
  32      1531. -0.9865    97.3   100.2  32      1549.
  33      3222. -0.7738    59.9   100.0  33      3214.
                -0.6333    40.1          36      3245.
  34      3222.  0.7930    62.9   100.0  34      3214.
                -0.6090    37.1          35      3244.
  35      3234. -0.6091    37.1   100.0  34      3214.
                -0.7930    62.9          35      3244.
  36      3234. -0.6333    40.1   100.0  33      3214.
                 0.7738    59.9          36      3245.
 nber times 1st assigned=           1           4
 nber times 1st assigned=           2           0
 nber times 1st assigned=           3           0
 nber times 1st assigned=           4           0
 nber times 1st assigned=           5           0
 nber times 1st assigned=           6           0
 nber times 1st assigned=           7           0
 nber times 1st assigned=           8           0
 nber times 1st assigned=           9           2
 nber times 1st assigned=          10           0
 nber times 1st assigned=          11           0
 nber times 1st assigned=          12           0
 nber times 1st assigned=          13           0
 nber times 1st assigned=          14           0
 nber times 1st assigned=          15           0
 nber times 1st assigned=          16           0
 nber times 1st assigned=          17           0
 nber times 1st assigned=          18           0
 nber times 1st assigned=          19           0
 nber times 1st assigned=          20           0
 nber times 1st assigned=          21           0
 nber times 1st assigned=          22           0
 nber times 1st assigned=          23           0
 nber times 1st assigned=          24           0
 nber times 1st assigned=          25           0
 nber times 1st assigned=          26           0
 nber times 1st assigned=          27           0
 nber times 1st assigned=          28           0
 nber times 1st assigned=          29           0
 nber times 1st assigned=          30           0
 nber times 1st assigned=          31           0
 nber times 1st assigned=          32           0
 nber times 1st assigned=          33           0
 nber times 1st assigned=          34           0
 nber times 1st assigned=          35           0
 nber times 1st assigned=          36           0
 Dushinsky matrix written to .out file
 modes represented=   30.1967976887099     

 Dushinsky matrix, ncs 1 in terms of ncs 2

   mode   freq    coeff     %      %tot     of    at

   1       -71.  0.9609    92.3   100.6   7       188.
   2       -69.  0.8237    67.8    99.4  10       422.
                -0.4784    22.9          18       771.
   9       100.  0.9638    92.9   104.3   8       214.
  10       329.  0.9972    99.4   102.5   9       354.
  11       352. -0.9981    99.6   101.5  12       461.
  12       355. -0.5508    30.3   102.0  10       422.
                 0.5168    26.7          14       632.
                -0.6288    39.5          18       771.
  13       404.  0.9748    95.0   100.8  11       443.
  14       468. -0.9718    94.4   102.3  13       520.
  15       552. -0.8334    69.4    99.7  14       632.
                -0.5244    27.5          18       771.
  16       558. -0.9390    88.2    98.0  19       784.
                 0.3206    10.3          21       907.
  17       577. -0.9881    97.6   102.3  15       647.
  18       690. -0.9882    97.7   100.2  17       764.
  19       745.  0.9860    97.2    99.9  16       763.
  20       787. -0.3349    11.2   101.2  19       784.
                -0.9469    89.7          21       907.
  21       793.  0.3174    10.1   101.3  18       771.
                -0.9505    90.3          22       909.
  22       827. -0.9887    97.8   101.6  20       862.
  23       867. -0.9907    98.1   100.3  23       922.
  24      1028.  0.9906    98.1   100.0  24      1085.
  25      1050.  0.9893    97.9   100.1  25      1093.
  26      1114.  0.9889    97.8   100.4  26      1175.
  27      1230.  0.9929    98.6    99.9  27      1263.
  28      1298. -0.9903    98.1   100.3  29      1358.
  29      1298.  0.8992    80.9   100.1  28      1338.
                -0.4232    17.9          30      1378.
  30      1328. -0.4138    17.1   100.7  28      1338.
                -0.8998    81.0          30      1378.
  31      1453. -0.9983    99.7   100.4  31      1471.
  32      1549. -0.9865    97.3   100.0  32      1531.
  33      3214. -0.7738    59.9   100.0  33      3222.
                -0.6333    40.1          36      3234.
  34      3214.  0.7930    62.9   100.0  34      3222.
                -0.6091    37.1          35      3234.
  35      3244. -0.6090    37.1   100.0  34      3222.
                -0.7930    62.9          35      3234.
  36      3245. -0.6333    40.1   100.0  33      3222.
                 0.7738    59.9          36      3234.
 nber times 1st assigned=           1           0
 nber times 1st assigned=           2           0
 nber times 1st assigned=           3           0
 nber times 1st assigned=           4           0
 nber times 1st assigned=           5           0
 nber times 1st assigned=           6           0
 nber times 1st assigned=           7           0
 nber times 1st assigned=           8           0
 nber times 1st assigned=           9           0
 nber times 1st assigned=          10           0
 nber times 1st assigned=          11           0
 nber times 1st assigned=          12           0
 nber times 1st assigned=          13           0
 nber times 1st assigned=          14           0
 nber times 1st assigned=          15           0
 nber times 1st assigned=          16           0
 nber times 1st assigned=          17           0
 nber times 1st assigned=          18           0
 nber times 1st assigned=          19           0
 nber times 1st assigned=          20           0
 nber times 1st assigned=          21           0
 nber times 1st assigned=          22           0
 nber times 1st assigned=          23           0
 nber times 1st assigned=          24           0
 nber times 1st assigned=          25           0
 nber times 1st assigned=          26           0
 nber times 1st assigned=          27           0
 nber times 1st assigned=          28           0
 nber times 1st assigned=          29           0
 nber times 1st assigned=          30           0
 nber times 1st assigned=          31           0
 nber times 1st assigned=          32           0
 nber times 1st assigned=          33           0
 nber times 1st assigned=          34           0
 nber times 1st assigned=          35           0
 nber times 1st assigned=          36           0
 modes represented=   30.1967976887099     
 p1=
   -0.    0.   -0.   -0.   -0.    0.    0.   -0.   -0.    0.    0.   -0.  -11.   -5.   -0.    0.    0.   -0.    7.   -0.
   -0.   -4.    0.    0.    1.    1.   -0.    0.    0.   -0.    0.   -2.   -0.   -0.    0.    0.
 p2=
    0.    0.    0.    0.    0.    0.    0.   -0.   -0.   -0.   12.    0.   -2.   -0.    0.   -7.    0.    0.   -0.   -4.
   -0.   -0.    0.   -0.   -1.   -0.    0.   -0.    0.   -0.    0.   -2.   -0.    0.    0.   -0.

 Displacement: in terms of nc of 1 THEN of nc of 2

   1     freq=   -71. Q= -0.000 lam=    -0.0     freq=    -0. Q= -0.000 lam=    -0.0
   2     freq=   -69. Q=  0.000 lam=    -0.0     freq=    -0. Q=  0.000 lam=    -0.0
   3     freq=    -0. Q= -0.000 lam=    -0.0     freq=    -0. Q= -0.000 lam=    -0.0
   4     freq=    -0. Q= -0.000 lam=    -0.0     freq=    -0. Q= -0.000 lam=    -0.0
   5     freq=     0. Q= -0.000 lam=     0.0     freq=     0. Q= -0.000 lam=     0.0
   6     freq=     0. Q=  0.000 lam=     0.0     freq=     0. Q=  0.000 lam=     0.0
   7     freq=     0. Q=  0.000 lam=     0.0     freq=   188. Q=  0.000 lam=     0.0
   8     freq=     0. Q= -0.000 lam=     0.0     freq=   214. Q= -0.000 lam=     0.0
   9     freq=   100. Q= -0.000 lam=     0.0     freq=   354. Q= -0.000 lam=     0.0
  10     freq=   329. Q=  0.000 lam=     0.0     freq=   422. Q=  0.000 lam=     0.0
  11     freq=   352. Q=  0.000 lam=     0.0     freq=   443. Q=  0.982 lam=   213.7
  12     freq=   355. Q= -0.000 lam=     0.0     freq=   461. Q= -0.000 lam=     0.0
  13     freq=   404. Q= -0.873 lam=   153.9     freq=   520. Q= -0.185 lam=     8.9
  14     freq=   468. Q= -0.450 lam=    47.3     freq=   632. Q= -0.000 lam=     0.0
  15     freq=   552. Q= -0.000 lam=     0.0     freq=   647. Q= -0.000 lam=     0.0
  16     freq=   558. Q=  0.000 lam=     0.0     freq=   763. Q=  0.770 lam=   226.2
  17     freq=   577. Q=  0.000 lam=     0.0     freq=   764. Q=  0.000 lam=     0.0
  18     freq=   690. Q= -0.000 lam=     0.0     freq=   771. Q= -0.000 lam=     0.0
  19     freq=   745. Q=  0.748 lam=   208.5     freq=   784. Q=  0.000 lam=     0.0
  20     freq=   787. Q= -0.000 lam=     0.0     freq=   862. Q= -0.489 lam=   102.9
  21     freq=   793. Q= -0.000 lam=     0.0     freq=   907. Q= -0.000 lam=     0.0
  22     freq=   827. Q= -0.421 lam=    73.1     freq=   909. Q= -0.000 lam=     0.0
  23     freq=   867. Q=  0.000 lam=     0.0     freq=   922. Q=  0.000 lam=     0.0
  24     freq=  1028. Q=  0.000 lam=     0.0     freq=  1085. Q=  0.000 lam=     0.0
  25     freq=  1050. Q=  0.102 lam=     5.4     freq=  1093. Q=  0.146 lam=    11.7
  26     freq=  1114. Q=  0.103 lam=     5.9     freq=  1175. Q=  0.028 lam=     0.5
  27     freq=  1230. Q= -0.000 lam=     0.0     freq=  1263. Q= -0.000 lam=     0.0
  28     freq=  1298. Q=  0.000 lam=     0.0     freq=  1338. Q=  0.030 lam=     0.6
  29     freq=  1298. Q=  0.018 lam=     0.2     freq=  1358. Q=  0.000 lam=     0.0
  30     freq=  1328. Q= -0.019 lam=     0.3     freq=  1378. Q= -0.019 lam=     0.2
  31     freq=  1453. Q=  0.000 lam=     0.0     freq=  1471. Q=  0.000 lam=     0.0
  32     freq=  1549. Q= -0.333 lam=    85.9     freq=  1531. Q= -0.369 lam=   104.5
  33     freq=  3214. Q= -0.000 lam=     0.0     freq=  3222. Q= -0.000 lam=     0.0
  34     freq=  3214. Q= -0.007 lam=     0.1     freq=  3222. Q= -0.051 lam=     4.2
  35     freq=  3244. Q=  0.066 lam=     7.1     freq=  3234. Q=  0.051 lam=     4.3
  36     freq=  3245. Q=  0.000 lam=     0.0     freq=  3234. Q=  0.000 lam=     0.0

 total reorg energy (cm**-1, kcal/mol)=      588.      678.      1.68      1.94
 Nber of molecules processed=           2
