 Enter ifcurve (0=recti, 1=orth curvi, 2=apprx curvi, -1 = skip
 And atom ordering flag, 0= never changes, 1= use the first order thenceforth,
  2= deduce it (does read on fail), 3= always read it
 Reading file: 
 ./conjugated_carbonyls_0_C0S0.log                                              
                                          
  Entering Gaussian System, Link 0=g16                                          
  
 Gaussian format, type: g94, g98, g03= F F F
  #P Geom=AllCheck Guess=TCheck SCRF=Check Test GenChk RB3LYP/6-311G(d,p    
 energy type= B3LYP   
 Original G94 input coords:
  8  1.367680 -3.579487  0.000000
  6  0.774346 -2.525803  0.000000
  6 -0.774346 -2.525803  0.000000
  8 -1.367680 -3.579487  0.000000
  6 -1.463210 -1.209034  0.000000
  6 -2.862071 -1.198466  0.000000
  6 -3.564760  0.000000  0.000000
  6 -2.862071  1.198466  0.000000
  6 -1.463210  1.209034  0.000000
  6 -0.774346  2.525803  0.000000
  8 -1.367680  3.579487  0.000000
  6  0.774346  2.525803  0.000000
  8  1.367680  3.579487  0.000000
  6  1.463210  1.209034  0.000000
  6  2.862071  1.198466  0.000000
  6  3.564760  0.000000  0.000000
  6  2.862071 -1.198466  0.000000
  6  1.463210 -1.209034  0.000000
  6  0.737892  0.000000  0.000000
  6 -0.737892  0.000000  0.000000
  1 -3.373441 -2.153498  0.000000
  1 -4.647978  0.000000  0.000000
  1 -3.373441  2.153498  0.000000
  1  3.373441  2.153498  0.000000
  1  4.647978  0.000000  0.000000
  1  3.373441 -2.153498  0.000000
 nber atoms=          26
  SCF Done:  E(RB3LYP) =  -914.431779943     A.U. after    1 cycles             
  
          23          40 "  -914.431779943"
After scan for Atom:   Atom  AN      X      Y      Z        X      Y      Z        X      Y      Z   
After scan for Atom:   Atom  AN      X      Y      Z        X      Y      Z        X      Y      Z   
After scan for Atom:   Atom  AN      X      Y      Z        X      Y      Z        X      Y      Z   
After scan for Atom:   Atom  AN      X      Y      Z        X      Y      Z        X      Y      Z   
After scan for Atom:   Atom  AN      X      Y      Z        X      Y      Z        X      Y      Z   
After scan for Atom:   Atom  AN      X      Y      Z        X      Y      Z        X      Y      Z   
After scan for Atom:   Atom  AN      X      Y      Z        X      Y      Z        X      Y      Z   
After scan for Atom:   Atom  AN      X      Y      Z        X      Y      Z        X      Y      Z   
After scan for Atom:   Atom  AN      X      Y      Z        X      Y      Z        X      Y      Z   
After scan for Atom:   Atom  AN      X      Y      Z        X      Y      Z        X      Y      Z   
After scan for Atom:   Atom  AN      X      Y      Z        X      Y      Z        X      Y      Z   
After scan for Atom:   Atom  AN      X      Y      Z        X      Y      Z        X      Y      Z   
After scan for Atom:   Atom  AN      X      Y      Z        X      Y      Z        X      Y      Z   
After scan for Atom:   Atom  AN      X      Y      Z        X      Y      Z        X      Y      Z   
After scan for Atom:   Atom  AN      X      Y      Z        X      Y      Z        X      Y      Z   
After scan for Atom:   Atom  AN      X      Y      Z        X      Y      Z        X      Y      Z   
After scan for Atom:   Atom  AN      X      Y      Z        X      Y      Z        X      Y      Z   
After scan for Atom:   Atom  AN      X      Y      Z        X      Y      Z        X      Y      Z   
After scan for Atom:   Atom  AN      X      Y      Z        X      Y      Z        X      Y      Z   
After scan for Atom:   Atom  AN      X      Y      Z        X      Y      Z        X      Y      Z   
After scan for Atom:   Atom  AN      X      Y      Z        X      Y      Z        X      Y      Z   
After scan for Atom:   Atom  AN      X      Y      Z        X      Y      Z        X      Y      Z   
After scan for Atom:   Atom  AN      X      Y      Z        X      Y      Z        X      Y      Z   
After scan for Atom:   Atom  AN      X      Y      Z        X      Y      Z        X      Y      Z   
 g94    frequencies=
     0.0    0.0    0.0    0.0    0.0    0.0   35.5   55.7   57.6  141.0
   170.1  178.4  281.3  293.0  320.1  335.8  347.0  369.7  371.4  376.2
   378.5  442.8  450.0  473.6  506.9  507.2  529.3  565.5  614.3  645.6
   661.2  741.7  743.7  762.5  796.4  798.0  827.8  839.1  846.7  888.6
   920.8  994.3  999.1 1018.1 1020.8 1029.8 1031.5 1052.4 1060.2 1104.7
  1118.8 1191.2 1191.8 1267.9 1278.2 1282.2 1289.2 1307.3 1339.2 1358.1
  1453.2 1477.9 1494.4 1497.5 1600.3 1618.1 1620.8 1630.9 1753.6 1760.1
  1779.8 1784.1 3184.0 3184.1 3198.5 3198.6 3203.9 3204.0
 g94    symmetries=
                                                 A      A      A      A
       A      A      A      A      A      A      A      A      A      A
       A      A      A      A      A      A      A      A      A      A
       A      A      A      A      A      A      A      A      A      A
       A      A      A      A      A      A      A      A      A      A
       A      A      A      A      A      A      A      A      A      A
       A      A      A      A      A      A      A      A      A      A
       A      A      A      A      A      A      A      A
 atomic masses:
 15.9949 12.0000 12.0000 15.9949 12.0000 12.0000 12.0000 12.0000 12.0000 12.0000
 15.9949 12.0000 15.9949 12.0000 12.0000 12.0000 12.0000 12.0000 12.0000 12.0000
  1.0078  1.0078  1.0078  1.0078  1.0078  1.0078
 looking for force constants in 
 ./conjugated_carbonyls_0_C0S0.fchk                                             
  
 Cartesian Force Constants                  R   N=        3081                  
  
 n3=          78        3081
 g94-fc frequencies=
    -2.0   -0.0   -0.0    0.0    1.2    2.7   35.5   55.7   57.6  141.1
   170.1  178.4  281.3  293.0  320.1  335.8  347.0  369.7  371.4  376.2
   378.5  442.8  450.0  473.6  506.9  507.2  529.3  565.5  614.4  645.6
   661.2  741.7  743.7  762.6  796.4  798.0  827.8  839.1  846.8  888.7
   920.8  994.3  999.1 1018.1 1020.8 1029.8 1031.5 1052.4 1060.2 1104.7
  1118.9 1191.3 1191.8 1268.0 1278.2 1282.2 1289.3 1307.3 1339.2 1358.1
  1453.2 1477.9 1494.4 1497.6 1600.4 1618.1 1620.8 1630.9 1753.6 1760.1
  1779.9 1784.1 3184.1 3184.1 3198.5 3198.7 3204.0 3204.1
 at 99999: n3=          78
 symm operator            1 :  T  nop=           1
 symm operator            2 :  T  nop=           2
 symm operator            3 :  T  nop=           3
 symm operator            4 :  T  nop=           4
 symm operator            5 :  T  nop=           5
 symm operator            6 :  T  nop=           6
 symm operator            7 :  T  nop=           7
 The point group of the molecule is D2H
 enforcing symm op           1  jsymt=          -1          -1           1
 enforcing symm op           2  jsymt=          -1           1          -1
 enforcing symm op           3  jsymt=           1          -1          -1
 enforcing symm op           4  jsymt=          -1          -1          -1
 enforcing symm op           5  jsymt=           1           1          -1
 enforcing symm op           6  jsymt=           1          -1           1
 enforcing symm op           7  jsymt=          -1           1           1
 cartesian coord symmetries:
 Ag :   13 Au :    5 B1g:   13 B1u:    8 B2g:    8 B2u:   13 B3g:    5 B3u:   13
 Symmetry rotation matrix:
   1.00000   0.00000   0.00000
   0.00000   1.00000   0.00000
   0.00000   0.00000   1.00000

 Projecting out zero-frequency components
 generating redundant internal coords
         300        3600          26
 search for int coords
   1 str   2   1   1.209
   2 str   3   2   1.549
   3 str   4   3   1.209
   4 str   5   3   1.486
   5 str   6   5   1.399
   6 str   7   6   1.389
   7 str   8   7   1.389
   8 str   9   8   1.399
   9 str  10   9   1.486
  10 str  11  10   1.209
  11 str  12  10   1.549
  12 str  13  12   1.209
  13 str  14  12   1.486
  14 str  15  14   1.399
  15 str  16  15   1.389
  16 str  17  16   1.389
  17 str  18   2   1.486
  18 str  18  17   1.399
  19 str  19  14   1.410
  20 str  19  18   1.410
  21 str  20   5   1.410
  22 str  20   9   1.410
  23 str  20  19   1.476
  24 str  21   6   1.083
  25 str  22   7   1.083
  26 str  23   8   1.083
  27 str  24  15   1.083
  28 str  25  16   1.083
  29 str  26  17   1.083
 nber stretches=          29
  30 ben   1   2   3
  31 prop tor   1   2   3   4
  32 prop tor   1   2   3   5
  33 ben   1   2  18
  34 prop tor   1   2  18  17
  35 prop tor   1   2  18  19
  36 ben   2   3   4
  37 ben   2   3   5
  38 prop tor   2   3   5   6
  39 prop tor   2   3   5  20
  40 ben   2  18  17
  41 ben   2  18  19
  42 prop tor   2  18  19  14
  43 prop tor   2  18  19  20
  44 ben   3   2  18
  45 prop tor   3   2  18  17
  46 prop tor   3   2  18  19
  47 ben   3   5   6
  48 prop tor   3   5   6   7
  49 prop tor   3   5   6  21
  50 ben   3   5  20
  51 prop tor   3   5  20   9
  52 prop tor   3   5  20  19
  53 ben   4   3   5
  54 prop tor   4   3   5   6
  55 prop tor   4   3   5  20
  56 ben   5   6   7
  57 prop tor   5   6   7   8
  58 prop tor   5   6   7  22
  59 ben   5   6  21
  60 ben   5  20   9
  61 ben   5  20  19
  62 ben   6   5  20
  63 prop tor   6   5  20   9
  64 prop tor   6   5  20  19
  65 ben   6   7   8
  66 prop tor   6   7   8   9
  67 prop tor   6   7   8  23
  68 ben   6   7  22
  69 ben   7   6  21
  70 ben   7   8   9
  71 prop tor   7   8   9  10
  72 prop tor   7   8   9  20
  73 ben   7   8  23
  74 ben   8   7  22
  75 ben   8   9  10
  76 prop tor   8   9  10  11
  77 prop tor   8   9  10  12
  78 ben   8   9  20
  79 prop tor   8   9  20   5
  80 prop tor   8   9  20  19
  81 ben   9   8  23
  82 ben   9  10  11
  83 ben   9  10  12
  84 prop tor   9  10  12  13
  85 prop tor   9  10  12  14
  86 ben   9  20  19
  87 ben  10   9  20
  88 prop tor  10   9  20   5
  89 prop tor  10   9  20  19
  90 ben  10  12  13
  91 ben  10  12  14
  92 prop tor  10  12  14  15
  93 prop tor  10  12  14  19
  94 ben  11  10  12
  95 prop tor  11  10  12  13
  96 prop tor  11  10  12  14
  97 ben  12  14  15
  98 prop tor  12  14  15  16
  99 prop tor  12  14  15  24
 100 ben  12  14  19
 101 prop tor  12  14  19  18
 102 prop tor  12  14  19  20
 103 ben  13  12  14
 104 prop tor  13  12  14  15
 105 prop tor  13  12  14  19
 106 ben  14  15  16
 107 prop tor  14  15  16  17
 108 prop tor  14  15  16  25
 109 ben  14  15  24
 110 ben  14  19  18
 111 ben  14  19  20
 112 prop tor  14  19  20   5
 113 prop tor  14  19  20   9
 114 ben  15  14  19
 115 prop tor  15  14  19  18
 116 prop tor  15  14  19  20
 117 ben  15  16  17
 118 prop tor  15  16  17  18
 119 prop tor  15  16  17  26
 120 ben  15  16  25
 121 ben  16  15  24
 122 ben  16  17  18
 123 prop tor  16  17  18   2
 124 prop tor  16  17  18  19
 125 ben  16  17  26
 126 ben  17  16  25
 127 ben  17  18  19
 128 prop tor  17  18  19  14
 129 prop tor  17  18  19  20
 130 prop tor  18   2   3   4
 131 prop tor  18   2   3   5
 132 ben  18  17  26
 133 ben  18  19  20
 134 prop tor  18  19  20   5
 135 prop tor  18  19  20   9
 136 prop tor  19  14  15  16
 137 prop tor  19  14  15  24
 138 prop tor  20   5   6   7
 139 prop tor  20   5   6  21
 140 prop tor  20   9  10  11
 141 prop tor  20   9  10  12
 142 prop tor  21   6   7   8
 143 prop tor  21   6   7  22
 144 prop tor  22   7   8   9
 145 prop tor  22   7   8  23
 146 prop tor  23   8   9  10
 147 prop tor  23   8   9  20
 148 prop tor  24  15  16  17
 149 prop tor  24  15  16  25
 150 prop tor  25  16  17  18
 151 prop tor  25  16  17  26
 152 prop tor  26  17  18   2
 153 prop tor  26  17  18  19
 nber bend=              48
 nber lin bend=           0
 nber prop tor=          76
 nber impr tor=           0
 nber tot redund int=         153
 Eigenvalues of G in red int coords
    Gval -0.00000000 -0.00000000 -0.00000000 -0.00000000 -0.00000000 -0.00000000 -0.00000000 -0.00000000
    Gval -0.00000000 -0.00000000 -0.00000000 -0.00000000 -0.00000000 -0.00000000 -0.00000000 -0.00000000
    Gval -0.00000000 -0.00000000 -0.00000000 -0.00000000 -0.00000000 -0.00000000 -0.00000000 -0.00000000
    Gval -0.00000000 -0.00000000 -0.00000000 -0.00000000 -0.00000000 -0.00000000 -0.00000000 -0.00000000
    Gval -0.00000000 -0.00000000 -0.00000000 -0.00000000 -0.00000000 -0.00000000 -0.00000000 -0.00000000
    Gval  0.00000000  0.00000000  0.00000000  0.00000000  0.00000000  0.00000000  0.00000000  0.00000000
    Gval  0.00000000  0.00000000  0.00000000  0.00000000  0.00000000  0.00000000  0.00000000  0.00000000
    Gval  0.00000000  0.00000000  0.00000000  0.00000000  0.00000000  0.00000000  0.00000000  0.00000000
    Gval  0.00000000  0.00000000  0.00000000  0.00000000  0.00000000  0.00000000  0.00000000  0.00000000
    Gval  0.00000000  0.00000000  0.00000000  0.00000000  0.00000000  0.00000000  0.00000000  0.00000000
    Gval  0.00000000  0.00000962  0.00000976  0.00001153  0.00001378  0.00001487  0.00001945  0.00002409
    Gval  0.00002486  0.00002600  0.00003113  0.00003944  0.00004530  0.00004822  0.00005391  0.00006202
    Gval  0.00006330  0.00006402  0.00006737  0.00008496  0.00008946  0.00009454  0.00009869  0.00011003
    Gval  0.00011204  0.00011793  0.00013402  0.00015166  0.00016000  0.00017515  0.00020950  0.00021279
    Gval  0.00021529  0.00026051  0.00030515  0.00032034  0.00032110  0.00032280  0.00038366  0.00038682
    Gval  0.00038711  0.00040291  0.00040635  0.00044562  0.00045785  0.00048163  0.00056480  0.00059431
    Gval  0.00059431  0.00060899  0.00061014  0.00065044  0.00065074  0.00074933  0.00077002  0.00100238
    Gval  0.00106834  0.00106879  0.00110209  0.00114166  0.00114168  0.00117345  0.00117352  0.00125089
    Gval  0.00160258  0.00174283  0.00195232  0.00213872  0.00261980  0.00310108  0.00310860  0.00396413
    Gval  0.00396465
  9.616377724311596E-006  9.616377724311596E-006
  9.760754718762974E-006  9.616377724311596E-006
  1.153393765766237E-005  9.616377724311596E-006
  1.377872948333587E-005  9.616377724311596E-006
  1.487033723968851E-005  9.616377724311596E-006
  1.944830727176225E-005  9.616377724311596E-006
  2.408629584371653E-005  9.616377724311596E-006
  2.485713737434344E-005  9.616377724311596E-006
  2.600473315097066E-005  9.616377724311596E-006
  3.113059342309611E-005  9.616377724311596E-006
  3.943855919503740E-005  9.616377724311596E-006
  4.530465545552927E-005  9.616377724311596E-006
  4.821878717451659E-005  9.616377724311596E-006
  5.390779088283285E-005  9.616377724311596E-006
  6.202406699070357E-005  9.616377724311596E-006
  6.329624094704522E-005  9.616377724311596E-006
  6.401617834533529E-005  9.616377724311596E-006
  6.736791650707827E-005  9.616377724311596E-006
  8.495565340209064E-005  9.616377724311596E-006
  8.946074532160889E-005  9.616377724311596E-006
  9.453798452642881E-005  9.616377724311596E-006
  9.868990481178347E-005  9.616377724311596E-006
  1.100285819627971E-004  9.616377724311596E-006
  1.120406095832757E-004  9.616377724311596E-006
  1.179251529244400E-004  9.616377724311596E-006
  1.340178596425266E-004  9.616377724311596E-006
  1.516592876508999E-004  9.616377724311596E-006
  1.599957453937101E-004  9.616377724311596E-006
  1.751539729330659E-004  9.616377724311596E-006
  2.094985488915117E-004  9.616377724311596E-006
  2.127912483537045E-004  9.616377724311596E-006
  2.152926337486666E-004  9.616377724311596E-006
  2.605064871800400E-004  9.616377724311596E-006
  3.051486650854666E-004  9.616377724311596E-006
  3.203384873742021E-004  9.616377724311596E-006
  3.211045688272535E-004  9.616377724311596E-006
  3.227967004190828E-004  9.616377724311596E-006
  3.836558627163219E-004  9.616377724311596E-006
  3.868179911369451E-004  9.616377724311596E-006
  3.871062814613903E-004  9.616377724311596E-006
  4.029114070484680E-004  9.616377724311596E-006
  4.063515268191875E-004  9.616377724311596E-006
  4.456218478756603E-004  9.616377724311596E-006
  4.578510379877402E-004  9.616377724311596E-006
  4.816321890557136E-004  9.616377724311596E-006
  5.648024338925170E-004  9.616377724311596E-006
  5.943050446013967E-004  9.616377724311596E-006
  5.943084273997677E-004  9.616377724311596E-006
  6.089866784367667E-004  9.616377724311596E-006
  6.101425875717590E-004  9.616377724311596E-006
  6.504447590821419E-004  9.616377724311596E-006
  6.507350892841640E-004  9.616377724311596E-006
  7.493289846877828E-004  9.616377724311596E-006
  7.700162466397302E-004  9.616377724311596E-006
  1.002375531829674E-003  9.616377724311596E-006
  1.068337272062301E-003  9.616377724311596E-006
  1.068785543062954E-003  9.616377724311596E-006
  1.102092705530509E-003  9.616377724311596E-006
  1.141657070219995E-003  9.616377724311596E-006
  1.141677759941884E-003  9.616377724311596E-006
  1.173452546228577E-003  9.616377724311596E-006
  1.173523780029482E-003  9.616377724311596E-006
  1.250894465558750E-003  9.616377724311596E-006
  1.602583734882927E-003  9.616377724311596E-006
  1.742825003281112E-003  9.616377724311596E-006
  1.952317206923633E-003  9.616377724311596E-006
  2.138718189938055E-003  9.616377724311596E-006
  2.619801606114220E-003  9.616377724311596E-006
  3.101082625861235E-003  9.616377724311596E-006
  3.108596734902657E-003  9.616377724311596E-006
  3.964134672354221E-003  9.616377724311596E-006
  3.964645289584364E-003  9.616377724311596E-006
 cut=1d-8, nber non-redundant internal coords=          72
 Check on Eigenvals of non-red overlap matrix:
  0.00000962  0.00000976  0.00001153  0.00001378  0.00001487  0.00001945  0.00002409  0.00002486
  0.00002600  0.00003113  0.00003944  0.00004530  0.00004822  0.00005391  0.00006202  0.00006330
  0.00006402  0.00006737  0.00008496  0.00008946  0.00009454  0.00009869  0.00011003  0.00011204
  0.00011793  0.00013402  0.00015166  0.00016000  0.00017515  0.00020950  0.00021279  0.00021529
  0.00026051  0.00030515  0.00032034  0.00032110  0.00032280  0.00038366  0.00038682  0.00038711
  0.00040291  0.00040635  0.00044562  0.00045785  0.00048163  0.00056480  0.00059431  0.00059431
  0.00060899  0.00061014  0.00065044  0.00065074  0.00074933  0.00077002  0.00100238  0.00106834
  0.00106879  0.00110209  0.00114166  0.00114168  0.00117345  0.00117352  0.00125089  0.00160258
  0.00174283  0.00195232  0.00213872  0.00261980  0.00310108  0.00310860  0.00396413  0.00396465
 Checking for correct frequencies
 recalc frequencies=
    -0.0   -0.0   -0.0    0.0    0.0    0.0   35.5   55.7   57.6  141.1
   170.1  178.4  281.3  293.0  320.1  335.8  347.0  369.7  371.4  376.2
   378.5  442.8  450.0  473.6  506.9  507.2  529.3  565.5  614.4  645.6
   661.2  741.7  743.7  762.6  796.4  798.0  827.8  839.1  846.8  888.7
   920.8  994.3  999.1 1018.1 1020.8 1029.8 1031.5 1052.4 1060.2 1104.7
  1118.9 1191.3 1191.8 1268.0 1278.2 1282.2 1289.3 1307.3 1339.2 1358.1
  1453.2 1477.9 1494.4 1497.6 1600.4 1618.1 1620.8 1630.9 1753.6 1760.1
  1779.9 1784.1 3184.1 3184.1 3198.5 3198.7 3204.0 3204.1
 recalc symmetries=
     B2u    B1g    B1u    B3g    B2g    B3u    Au     B2g    B1u    B1u
     B3g    Au     B2g    B3u    B2u    B1g    Ag     B3g    B1g    B2u
     Ag     B1u    Ag     Au     B2u    B1u    B3u    B2g    B3g    B1g
     B3u    B2g    B1u    B1g    Ag     B2g    B2u    B1u    Au     B2g
     B3u    B3g    Au     Ag     B3u    B1u    B2g    B1g    B2u    Ag 
     B3u    B1g    B2u    B1g    B3u    Ag     B2u    Ag     B1g    B2u
     B3u    B2u    Ag     B1g    B2u    Ag     B3u    B1g    B2u    Ag 
     B1g    B3u    B3u    Ag     B1g    B2u    B3u    Ag 
 recalc freqs check OK
 Zero-point lengths:
 10.0000 10.0000 10.0000 10.0000 10.0000 10.0000 41.6114 33.2167 32.6728 20.8740
 19.0096 18.5624 14.7803 14.4832 13.8568 13.5293 13.3091 12.8941 12.8641 12.7809
 12.7425 11.7814 11.6865 11.3920 11.0107 11.0076 10.7756 10.4250 10.0020  9.7567
  9.6411  9.1031  9.0908  8.9775  8.7848  8.7760  8.6164  8.5582  8.5196  8.3163
  8.1699  7.8619  7.8431  7.7694  7.7592  7.7252  7.7189  7.6420  7.6137  7.4587
  7.4115  7.1827  7.1811  6.9621  6.9342  6.9234  6.9044  6.8565  6.7744  6.7271
  6.5033  6.4487  6.4130  6.4063  6.1970  6.1630  6.1579  6.1387  5.9201  5.9091
  5.8763  5.8693  4.3934  4.3934  4.3835  4.3834  4.3798  4.3797
 highest evec of mol 1
 -0.0011  0.0006  0.0000
  0.0014 -0.0014  0.0000
 -0.0014 -0.0014  0.0000
  0.0011  0.0006  0.0000
  0.0040 -0.0004  0.0000
 -0.0549 -0.1107  0.0000
 -0.1164  0.0000  0.0000
 -0.0549  0.1107  0.0000
  0.0040  0.0004  0.0000
 -0.0014  0.0014  0.0000
  0.0011 -0.0006  0.0000
  0.0014  0.0014  0.0000
 -0.0011 -0.0006  0.0000
 -0.0040  0.0004  0.0000
  0.0549  0.1107  0.0000
  0.1164  0.0000  0.0000
  0.0549 -0.1107  0.0000
 -0.0040 -0.0004  0.0000
 -0.0012  0.0000  0.0000
  0.0012  0.0000  0.0000
  0.1913  0.3513  0.0000
  0.3686  0.0000  0.0000
  0.1913 -0.3513  0.0000
 -0.1913 -0.3513  0.0000
 -0.3686  0.0000  0.0000
 -0.1913  0.3513  0.0000
 generating redundant internal coords
         300        3600          26
 Adding extra bonds for z output only
           8           6           6           8           6           6
           6           6           6           6           8           6
           8           6           6           6           6           6
           6           6           1           1           1           1
           1           1
 search for int coords
   1 str   2   1   1.209
   2 str   3   2   1.549
   3 str   4   3   1.209
   4 str   5   3   1.486
   5 str   6   5   1.399
   6 str   7   6   1.389
   7 str   8   7   1.389
   8 str   9   8   1.399
   9 str  10   9   1.486
  10 str  11  10   1.209
  11 str  12  10   1.549
  12 str  13  12   1.209
  13 str  14  12   1.486
  14 str  15  14   1.399
  15 str  16  15   1.389
  16 str  17  16   1.389
  17 str  18   2   1.486
  18 str  18  17   1.399
  19 str  19  14   1.410
  20 str  19  18   1.410
  21 str  20   5   1.410
  22 str  20   9   1.410
  23 str  20  19   1.476
  24 str  21   6   1.083
  25 str  22   7   1.083
  26 str  23   8   1.083
  27 str  24  15   1.083
  28 str  25  16   1.083
  29 str  26  17   1.083
 nber stretches=          29
  30 ben   1   2   3
  31 prop tor   1   2   3   4
  32 prop tor   1   2   3   5
  33 ben   1   2  18
  34 prop tor   1   2  18  17
  35 prop tor   1   2  18  19
  36 ben   2   3   4
  37 ben   2   3   5
  38 prop tor   2   3   5   6
  39 prop tor   2   3   5  20
  40 ben   2  18  17
  41 ben   2  18  19
  42 prop tor   2  18  19  14
  43 prop tor   2  18  19  20
  44 ben   3   2  18
  45 prop tor   3   2  18  17
  46 prop tor   3   2  18  19
  47 ben   3   5   6
  48 prop tor   3   5   6   7
  49 prop tor   3   5   6  21
  50 ben   3   5  20
  51 prop tor   3   5  20   9
  52 prop tor   3   5  20  19
  53 ben   4   3   5
  54 prop tor   4   3   5   6
  55 prop tor   4   3   5  20
  56 ben   5   6   7
  57 prop tor   5   6   7   8
  58 prop tor   5   6   7  22
  59 ben   5   6  21
  60 ben   5  20   9
  61 ben   5  20  19
  62 ben   6   5  20
  63 prop tor   6   5  20   9
  64 prop tor   6   5  20  19
  65 ben   6   7   8
  66 prop tor   6   7   8   9
  67 prop tor   6   7   8  23
  68 ben   6   7  22
  69 ben   7   6  21
  70 ben   7   8   9
  71 prop tor   7   8   9  10
  72 prop tor   7   8   9  20
  73 ben   7   8  23
  74 ben   8   7  22
  75 ben   8   9  10
  76 prop tor   8   9  10  11
  77 prop tor   8   9  10  12
  78 ben   8   9  20
  79 prop tor   8   9  20   5
  80 prop tor   8   9  20  19
  81 ben   9   8  23
  82 ben   9  10  11
  83 ben   9  10  12
  84 prop tor   9  10  12  13
  85 prop tor   9  10  12  14
  86 ben   9  20  19
  87 ben  10   9  20
  88 prop tor  10   9  20   5
  89 prop tor  10   9  20  19
  90 ben  10  12  13
  91 ben  10  12  14
  92 prop tor  10  12  14  15
  93 prop tor  10  12  14  19
  94 ben  11  10  12
  95 prop tor  11  10  12  13
  96 prop tor  11  10  12  14
  97 ben  12  14  15
  98 prop tor  12  14  15  16
  99 prop tor  12  14  15  24
 100 ben  12  14  19
 101 prop tor  12  14  19  18
 102 prop tor  12  14  19  20
 103 ben  13  12  14
 104 prop tor  13  12  14  15
 105 prop tor  13  12  14  19
 106 ben  14  15  16
 107 prop tor  14  15  16  17
 108 prop tor  14  15  16  25
 109 ben  14  15  24
 110 ben  14  19  18
 111 ben  14  19  20
 112 prop tor  14  19  20   5
 113 prop tor  14  19  20   9
 114 ben  15  14  19
 115 prop tor  15  14  19  18
 116 prop tor  15  14  19  20
 117 ben  15  16  17
 118 prop tor  15  16  17  18
 119 prop tor  15  16  17  26
 120 ben  15  16  25
 121 ben  16  15  24
 122 ben  16  17  18
 123 prop tor  16  17  18   2
 124 prop tor  16  17  18  19
 125 ben  16  17  26
 126 ben  17  16  25
 127 ben  17  18  19
 128 prop tor  17  18  19  14
 129 prop tor  17  18  19  20
 130 prop tor  18   2   3   4
 131 prop tor  18   2   3   5
 132 ben  18  17  26
 133 ben  18  19  20
 134 prop tor  18  19  20   5
 135 prop tor  18  19  20   9
 136 prop tor  19  14  15  16
 137 prop tor  19  14  15  24
 138 prop tor  20   5   6   7
 139 prop tor  20   5   6  21
 140 prop tor  20   9  10  11
 141 prop tor  20   9  10  12
 142 prop tor  21   6   7   8
 143 prop tor  21   6   7  22
 144 prop tor  22   7   8   9
 145 prop tor  22   7   8  23
 146 prop tor  23   8   9  10
 147 prop tor  23   8   9  20
 148 prop tor  24  15  16  17
 149 prop tor  24  15  16  25
 150 prop tor  25  16  17  18
 151 prop tor  25  16  17  26
 152 prop tor  26  17  18   2
 153 prop tor  26  17  18  19
 nber bend=              48
 nber lin bend=           0
 nber prop tor=          76
 nber impr tor=           0
 nber tot redund int=         153
 Reading file: 
 ./conjugated_carbonyls_0_C-2S0.log                                             
                                          
  Entering Gaussian System, Link 0=g16                                          
  
 Gaussian format, type: g94, g98, g03= F F F
  #P Geom=AllCheck Guess=TCheck SCRF=Check Test GenChk UB3LYP/6-311G(d,p    
 energy type= B3LYP   
 Original G94 input coords:
  8  1.396465 -3.616902  0.000000
  6  0.740267 -2.545868  0.000000
  6 -0.740267 -2.545868  0.000000
  8 -1.396465 -3.616902  0.000000
  6 -1.427618 -1.235923  0.000000
  6 -2.831512 -1.209216  0.000000
  6 -3.522389  0.000000  0.000000
  6 -2.831512  1.209216  0.000000
  6 -1.427618  1.235923  0.000000
  6 -0.740267  2.545868  0.000000
  8 -1.396465  3.616902  0.000000
  6  0.740267  2.545868  0.000000
  8  1.396465  3.616902  0.000000
  6  1.427618  1.235923  0.000000
  6  2.831512  1.209216  0.000000
  6  3.522389  0.000000  0.000000
  6  2.831512 -1.209216  0.000000
  6  1.427618 -1.235923  0.000000
  6  0.717134  0.000000  0.000000
  6 -0.717134  0.000000  0.000000
  1 -3.342444 -2.166002  0.000000
  1 -4.612171  0.000000  0.000000
  1 -3.342444  2.166002  0.000000
  1  3.342444  2.166002  0.000000
  1  4.612171  0.000000  0.000000
  1  3.342444 -2.166002  0.000000
 nber atoms=          26
  SCF Done:  E(UB3LYP) =  -914.467643967     A.U. after    1 cycles             
  
          23          40 "  -914.467643967"
After scan for Atom:   Atom  AN      X      Y      Z        X      Y      Z        X      Y      Z   
After scan for Atom:   Atom  AN      X      Y      Z        X      Y      Z        X      Y      Z   
After scan for Atom:   Atom  AN      X      Y      Z        X      Y      Z        X      Y      Z   
After scan for Atom:   Atom  AN      X      Y      Z        X      Y      Z        X      Y      Z   
After scan for Atom:   Atom  AN      X      Y      Z        X      Y      Z        X      Y      Z   
After scan for Atom:   Atom  AN      X      Y      Z        X      Y      Z        X      Y      Z   
After scan for Atom:   Atom  AN      X      Y      Z        X      Y      Z        X      Y      Z   
After scan for Atom:   Atom  AN      X      Y      Z        X      Y      Z        X      Y      Z   
After scan for Atom:   Atom  AN      X      Y      Z        X      Y      Z        X      Y      Z   
After scan for Atom:   Atom  AN      X      Y      Z        X      Y      Z        X      Y      Z   
After scan for Atom:   Atom  AN      X      Y      Z        X      Y      Z        X      Y      Z   
After scan for Atom:   Atom  AN      X      Y      Z        X      Y      Z        X      Y      Z   
After scan for Atom:   Atom  AN      X      Y      Z        X      Y      Z        X      Y      Z   
After scan for Atom:   Atom  AN      X      Y      Z        X      Y      Z        X      Y      Z   
After scan for Atom:   Atom  AN      X      Y      Z        X      Y      Z        X      Y      Z   
After scan for Atom:   Atom  AN      X      Y      Z        X      Y      Z        X      Y      Z   
After scan for Atom:   Atom  AN      X      Y      Z        X      Y      Z        X      Y      Z   
After scan for Atom:   Atom  AN      X      Y      Z        X      Y      Z        X      Y      Z   
After scan for Atom:   Atom  AN      X      Y      Z        X      Y      Z        X      Y      Z   
After scan for Atom:   Atom  AN      X      Y      Z        X      Y      Z        X      Y      Z   
After scan for Atom:   Atom  AN      X      Y      Z        X      Y      Z        X      Y      Z   
After scan for Atom:   Atom  AN      X      Y      Z        X      Y      Z        X      Y      Z   
After scan for Atom:   Atom  AN      X      Y      Z        X      Y      Z        X      Y      Z   
After scan for Atom:   Atom  AN      X      Y      Z        X      Y      Z        X      Y      Z   
 g94    frequencies=
     0.0    0.0    0.0    0.0    0.0    0.0   62.8   66.9   87.0  141.6
   187.2  205.7  290.7  300.7  332.3  340.0  352.5  374.8  377.0  379.9
   383.9  445.3  470.6  508.8  513.3  520.1  528.3  567.8  642.5  643.3
   658.7  711.7  722.7  737.4  754.3  769.0  798.3  802.4  806.6  828.7
   911.9  912.4  917.7  946.5  950.0 1006.4 1048.0 1056.8 1082.0 1085.8
  1088.6 1152.7 1165.0 1243.2 1252.5 1258.3 1270.9 1302.8 1339.3 1359.2
  1402.7 1438.5 1454.5 1481.9 1501.9 1526.7 1534.7 1563.6 1579.1 1595.0
  1600.2 1606.0 3090.9 3091.6 3167.2 3167.4 3169.6 3170.4
 g94    symmetries=
                                                 A      A      A      A
       A      A      A      A      A      A      A      A      A      A
       A      A      A      A      A      A      A      A      A      A
       A      A      A      A      A      A      A      A      A      A
       A      A      A      A      A      A      A      A      A      A
       A      A      A      A      A      A      A      A      A      A
       A      A      A      A      A      A      A      A      A      A
       A      A      A      A      A      A      A      A
 atomic masses:
 15.9949 12.0000 12.0000 15.9949 12.0000 12.0000 12.0000 12.0000 12.0000 12.0000
 15.9949 12.0000 15.9949 12.0000 12.0000 12.0000 12.0000 12.0000 12.0000 12.0000
  1.0078  1.0078  1.0078  1.0078  1.0078  1.0078
 looking for force constants in 
 ./conjugated_carbonyls_0_C-2S0.fchk                                            
  
 Cartesian Force Constants                  R   N=        3081                  
  
 n3=          78        3081
 g94-fc frequencies=
    -7.5   -7.4   -6.6   -0.0    0.0    0.0   62.8   66.9   87.0  141.6
   187.3  205.7  290.7  300.7  332.4  340.0  352.5  374.8  377.0  379.9
   383.9  445.3  470.6  508.8  513.3  520.1  528.3  567.8  642.5  643.3
   658.7  711.7  722.8  737.4  754.3  769.0  798.3  802.4  806.6  828.7
   911.9  912.5  917.7  946.5  950.0 1006.4 1048.0 1056.8 1082.0 1085.8
  1088.6 1152.7 1165.1 1243.3 1252.6 1258.4 1270.9 1302.8 1339.3 1359.3
  1402.7 1438.5 1454.5 1482.0 1501.9 1526.8 1534.7 1563.7 1579.2 1595.0
  1600.2 1606.1 3091.0 3091.7 3167.2 3167.4 3169.7 3170.5
 at 99999: n3=          78
 symm operator            1 :  T  nop=           1
 symm operator            2 :  T  nop=           2
 symm operator            3 :  T  nop=           3
 symm operator            4 :  T  nop=           4
 symm operator            5 :  T  nop=           5
 symm operator            6 :  T  nop=           6
 symm operator            7 :  T  nop=           7
 The point group of the molecule is D2H
 enforcing symm op           1  jsymt=          -1          -1           1
 enforcing symm op           2  jsymt=          -1           1          -1
 enforcing symm op           3  jsymt=           1          -1          -1
 enforcing symm op           4  jsymt=          -1          -1          -1
 enforcing symm op           5  jsymt=           1           1          -1
 enforcing symm op           6  jsymt=           1          -1           1
 enforcing symm op           7  jsymt=          -1           1           1
 cartesian coord symmetries:
 Ag :   13 Au :    5 B1g:   13 B1u:    8 B2g:    8 B2u:   13 B3g:    5 B3u:   13
 Symmetry rotation matrix:
   1.00000   0.00000   0.00000
   0.00000   1.00000   0.00000
   0.00000   0.00000   1.00000

 Projecting out zero-frequency components
 generating redundant internal coords
         300        3600          26
 search for int coords
   1 str   2   1   1.256
   2 str   3   2   1.481
   3 str   4   3   1.256
   4 str   5   3   1.479
   5 str   6   5   1.404
   6 str   7   6   1.393
   7 str   8   7   1.393
   8 str   9   8   1.404
   9 str  10   9   1.479
  10 str  11  10   1.256
  11 str  12  10   1.481
  12 str  13  12   1.256
  13 str  14  12   1.479
  14 str  15  14   1.404
  15 str  16  15   1.393
  16 str  17  16   1.393
  17 str  18   2   1.479
  18 str  18  17   1.404
  19 str  19  14   1.426
  20 str  19  18   1.426
  21 str  20   5   1.426
  22 str  20   9   1.426
  23 str  20  19   1.434
  24 str  21   6   1.085
  25 str  22   7   1.090
  26 str  23   8   1.085
  27 str  24  15   1.085
  28 str  25  16   1.090
  29 str  26  17   1.085
 nber stretches=          29
  30 ben   1   2   3
  31 prop tor   1   2   3   4
  32 prop tor   1   2   3   5
  33 ben   1   2  18
  34 prop tor   1   2  18  17
  35 prop tor   1   2  18  19
  36 ben   2   3   4
  37 ben   2   3   5
  38 prop tor   2   3   5   6
  39 prop tor   2   3   5  20
  40 ben   2  18  17
  41 ben   2  18  19
  42 prop tor   2  18  19  14
  43 prop tor   2  18  19  20
  44 ben   3   2  18
  45 prop tor   3   2  18  17
  46 prop tor   3   2  18  19
  47 ben   3   5   6
  48 prop tor   3   5   6   7
  49 prop tor   3   5   6  21
  50 ben   3   5  20
  51 prop tor   3   5  20   9
  52 prop tor   3   5  20  19
  53 ben   4   3   5
  54 prop tor   4   3   5   6
  55 prop tor   4   3   5  20
  56 ben   5   6   7
  57 prop tor   5   6   7   8
  58 prop tor   5   6   7  22
  59 ben   5   6  21
  60 ben   5  20   9
  61 ben   5  20  19
  62 ben   6   5  20
  63 prop tor   6   5  20   9
  64 prop tor   6   5  20  19
  65 ben   6   7   8
  66 prop tor   6   7   8   9
  67 prop tor   6   7   8  23
  68 ben   6   7  22
  69 ben   7   6  21
  70 ben   7   8   9
  71 prop tor   7   8   9  10
  72 prop tor   7   8   9  20
  73 ben   7   8  23
  74 ben   8   7  22
  75 ben   8   9  10
  76 prop tor   8   9  10  11
  77 prop tor   8   9  10  12
  78 ben   8   9  20
  79 prop tor   8   9  20   5
  80 prop tor   8   9  20  19
  81 ben   9   8  23
  82 ben   9  10  11
  83 ben   9  10  12
  84 prop tor   9  10  12  13
  85 prop tor   9  10  12  14
  86 ben   9  20  19
  87 ben  10   9  20
  88 prop tor  10   9  20   5
  89 prop tor  10   9  20  19
  90 ben  10  12  13
  91 ben  10  12  14
  92 prop tor  10  12  14  15
  93 prop tor  10  12  14  19
  94 ben  11  10  12
  95 prop tor  11  10  12  13
  96 prop tor  11  10  12  14
  97 ben  12  14  15
  98 prop tor  12  14  15  16
  99 prop tor  12  14  15  24
 100 ben  12  14  19
 101 prop tor  12  14  19  18
 102 prop tor  12  14  19  20
 103 ben  13  12  14
 104 prop tor  13  12  14  15
 105 prop tor  13  12  14  19
 106 ben  14  15  16
 107 prop tor  14  15  16  17
 108 prop tor  14  15  16  25
 109 ben  14  15  24
 110 ben  14  19  18
 111 ben  14  19  20
 112 prop tor  14  19  20   5
 113 prop tor  14  19  20   9
 114 ben  15  14  19
 115 prop tor  15  14  19  18
 116 prop tor  15  14  19  20
 117 ben  15  16  17
 118 prop tor  15  16  17  18
 119 prop tor  15  16  17  26
 120 ben  15  16  25
 121 ben  16  15  24
 122 ben  16  17  18
 123 prop tor  16  17  18   2
 124 prop tor  16  17  18  19
 125 ben  16  17  26
 126 ben  17  16  25
 127 ben  17  18  19
 128 prop tor  17  18  19  14
 129 prop tor  17  18  19  20
 130 prop tor  18   2   3   4
 131 prop tor  18   2   3   5
 132 ben  18  17  26
 133 ben  18  19  20
 134 prop tor  18  19  20   5
 135 prop tor  18  19  20   9
 136 prop tor  19  14  15  16
 137 prop tor  19  14  15  24
 138 prop tor  20   5   6   7
 139 prop tor  20   5   6  21
 140 prop tor  20   9  10  11
 141 prop tor  20   9  10  12
 142 prop tor  21   6   7   8
 143 prop tor  21   6   7  22
 144 prop tor  22   7   8   9
 145 prop tor  22   7   8  23
 146 prop tor  23   8   9  10
 147 prop tor  23   8   9  20
 148 prop tor  24  15  16  17
 149 prop tor  24  15  16  25
 150 prop tor  25  16  17  18
 151 prop tor  25  16  17  26
 152 prop tor  26  17  18   2
 153 prop tor  26  17  18  19
 nber bend=              48
 nber lin bend=           0
 nber prop tor=          76
 nber impr tor=           0
 nber tot redund int=         153
 Eigenvalues of G in red int coords
    Gval -0.00000000 -0.00000000 -0.00000000 -0.00000000 -0.00000000 -0.00000000 -0.00000000 -0.00000000
    Gval -0.00000000 -0.00000000 -0.00000000 -0.00000000 -0.00000000 -0.00000000 -0.00000000 -0.00000000
    Gval -0.00000000 -0.00000000 -0.00000000 -0.00000000 -0.00000000 -0.00000000 -0.00000000 -0.00000000
    Gval -0.00000000 -0.00000000 -0.00000000 -0.00000000 -0.00000000 -0.00000000 -0.00000000 -0.00000000
    Gval -0.00000000 -0.00000000 -0.00000000 -0.00000000 -0.00000000 -0.00000000 -0.00000000 -0.00000000
    Gval -0.00000000 -0.00000000 -0.00000000 -0.00000000  0.00000000  0.00000000  0.00000000  0.00000000
    Gval  0.00000000  0.00000000  0.00000000  0.00000000  0.00000000  0.00000000  0.00000000  0.00000000
    Gval  0.00000000  0.00000000  0.00000000  0.00000000  0.00000000  0.00000000  0.00000000  0.00000000
    Gval  0.00000000  0.00000000  0.00000000  0.00000000  0.00000000  0.00000000  0.00000000  0.00000000
    Gval  0.00000000  0.00000000  0.00000000  0.00000000  0.00000000  0.00000000  0.00000000  0.00000000
    Gval  0.00000000  0.00000928  0.00000974  0.00001159  0.00001372  0.00001484  0.00001937  0.00002329
    Gval  0.00002394  0.00002614  0.00003129  0.00003967  0.00004561  0.00004701  0.00005377  0.00006139
    Gval  0.00006346  0.00006381  0.00006646  0.00008523  0.00008937  0.00009167  0.00009764  0.00010874
    Gval  0.00011103  0.00011722  0.00013369  0.00014859  0.00015525  0.00017395  0.00020846  0.00021021
    Gval  0.00021105  0.00025618  0.00030466  0.00031739  0.00032655  0.00032685  0.00036239  0.00038374
    Gval  0.00038473  0.00040776  0.00041676  0.00044953  0.00045961  0.00047770  0.00053822  0.00059426
    Gval  0.00059427  0.00060871  0.00060990  0.00064980  0.00065024  0.00076131  0.00077619  0.00101253
    Gval  0.00106049  0.00106091  0.00112818  0.00113887  0.00113890  0.00116331  0.00116340  0.00123383
    Gval  0.00161591  0.00171801  0.00192467  0.00211086  0.00261124  0.00310078  0.00310870  0.00391966
    Gval  0.00392016
  9.277017168260441E-006  9.277017168260441E-006
  9.744630313244136E-006  9.277017168260441E-006
  1.158802036786386E-005  9.277017168260441E-006
  1.372202467715052E-005  9.277017168260441E-006
  1.484449458036340E-005  9.277017168260441E-006
  1.937227498001163E-005  9.277017168260441E-006
  2.329025995344364E-005  9.277017168260441E-006
  2.394195248206560E-005  9.277017168260441E-006
  2.613762020808173E-005  9.277017168260441E-006
  3.128509822153831E-005  9.277017168260441E-006
  3.966867024534755E-005  9.277017168260441E-006
  4.560777438396888E-005  9.277017168260441E-006
  4.701324753608168E-005  9.277017168260441E-006
  5.377460144174867E-005  9.277017168260441E-006
  6.139441286307806E-005  9.277017168260441E-006
  6.345934066585852E-005  9.277017168260441E-006
  6.381065756113209E-005  9.277017168260441E-006
  6.646329657162349E-005  9.277017168260441E-006
  8.523374096698472E-005  9.277017168260441E-006
  8.937481713198128E-005  9.277017168260441E-006
  9.166552054754747E-005  9.277017168260441E-006
  9.763968883404683E-005  9.277017168260441E-006
  1.087403237048402E-004  9.277017168260441E-006
  1.110319650250000E-004  9.277017168260441E-006
  1.172222877370526E-004  9.277017168260441E-006
  1.336944022499791E-004  9.277017168260441E-006
  1.485938598901601E-004  9.277017168260441E-006
  1.552539845739182E-004  9.277017168260441E-006
  1.739513564164343E-004  9.277017168260441E-006
  2.084617999936901E-004  9.277017168260441E-006
  2.102121178927769E-004  9.277017168260441E-006
  2.110468496939702E-004  9.277017168260441E-006
  2.561825808889890E-004  9.277017168260441E-006
  3.046606396467409E-004  9.277017168260441E-006
  3.173855879224720E-004  9.277017168260441E-006
  3.265487593771999E-004  9.277017168260441E-006
  3.268472323166367E-004  9.277017168260441E-006
  3.623885447502981E-004  9.277017168260441E-006
  3.837351536689042E-004  9.277017168260441E-006
  3.847340625496334E-004  9.277017168260441E-006
  4.077592909832339E-004  9.277017168260441E-006
  4.167558250150982E-004  9.277017168260441E-006
  4.495348848454183E-004  9.277017168260441E-006
  4.596057779691838E-004  9.277017168260441E-006
  4.776984469940252E-004  9.277017168260441E-006
  5.382213438880677E-004  9.277017168260441E-006
  5.942587069522686E-004  9.277017168260441E-006
  5.942683895911343E-004  9.277017168260441E-006
  6.087084505674044E-004  9.277017168260441E-006
  6.098953420641265E-004  9.277017168260441E-006
  6.498042351555011E-004  9.277017168260441E-006
  6.502414013786359E-004  9.277017168260441E-006
  7.613116354255116E-004  9.277017168260441E-006
  7.761925042778078E-004  9.277017168260441E-006
  1.012532715105629E-003  9.277017168260441E-006
  1.060485818701229E-003  9.277017168260441E-006
  1.060912196572159E-003  9.277017168260441E-006
  1.128176300297842E-003  9.277017168260441E-006
  1.138871193374398E-003  9.277017168260441E-006
  1.138901048976502E-003  9.277017168260441E-006
  1.163309480235022E-003  9.277017168260441E-006
  1.163396969824795E-003  9.277017168260441E-006
  1.233833567380034E-003  9.277017168260441E-006
  1.615907451395420E-003  9.277017168260441E-006
  1.718013167834605E-003  9.277017168260441E-006
  1.924669616156315E-003  9.277017168260441E-006
  2.110855606035434E-003  9.277017168260441E-006
  2.611242605745368E-003  9.277017168260441E-006
  3.100778026896203E-003  9.277017168260441E-006
  3.108698775301892E-003  9.277017168260441E-006
  3.919657520518411E-003  9.277017168260441E-006
  3.920159661172392E-003  9.277017168260441E-006
 cut=1d-8, nber non-redundant internal coords=          72
 Check on Eigenvals of non-red overlap matrix:
  0.00000928  0.00000974  0.00001159  0.00001372  0.00001484  0.00001937  0.00002329  0.00002394
  0.00002614  0.00003129  0.00003967  0.00004561  0.00004701  0.00005377  0.00006139  0.00006346
  0.00006381  0.00006646  0.00008523  0.00008937  0.00009167  0.00009764  0.00010874  0.00011103
  0.00011722  0.00013369  0.00014859  0.00015525  0.00017395  0.00020846  0.00021021  0.00021105
  0.00025618  0.00030466  0.00031739  0.00032655  0.00032685  0.00036239  0.00038374  0.00038473
  0.00040776  0.00041676  0.00044953  0.00045961  0.00047770  0.00053822  0.00059426  0.00059427
  0.00060871  0.00060990  0.00064980  0.00065024  0.00076131  0.00077619  0.00101253  0.00106049
  0.00106091  0.00112818  0.00113887  0.00113890  0.00116331  0.00116340  0.00123383  0.00161591
  0.00171801  0.00192467  0.00211086  0.00261124  0.00310078  0.00310870  0.00391966  0.00392016
 Checking for correct frequencies
 recalc frequencies=
    -0.0   -0.0   -0.0   -0.0    0.0    0.0   62.8   66.9   87.0  141.6
   187.2  205.7  290.7  300.7  332.4  340.0  352.5  374.8  377.0  379.9
   383.9  445.3  470.6  508.8  513.3  520.1  528.3  567.8  642.5  643.3
   658.7  711.7  722.8  737.4  754.3  769.0  798.3  802.4  806.6  828.7
   911.9  912.5  917.7  946.5  950.0 1006.4 1048.0 1056.8 1082.0 1085.8
  1088.6 1152.7 1165.1 1243.3 1252.6 1258.4 1270.9 1302.8 1339.3 1359.3
  1402.7 1438.5 1454.5 1482.0 1501.9 1526.8 1534.7 1563.7 1579.2 1595.0
  1600.2 1606.1 3091.0 3091.7 3167.2 3167.4 3169.7 3170.5
 recalc symmetries=
     B3u    B2u    B1u    B3g    B2g    B1g    Au     B1u    B2g    B1u
     B3g    Au     B3u    B2g    B2u    B1g    Ag     Ag     B3g    B1g
     B2u    B1u    Ag     Au     B2u    B1u    B3u    B2g    B3g    B1g
     B3u    B2g    B1u    B2g    B1g    Au     B2g    B1u    Ag     B2u
     Au     B3g    B3u    B1u    B2g    B3u    Ag     B1g    B3u    B2u
     Ag     B2u    B1g    B1g    Ag     B3u    B2u    Ag     B2u    B1g
     B3u    B2u    B1g    Ag     B3u    B2u    B1g    Ag     B1g    B2u
     Ag     B3u    B3u    Ag     B1g    B2u    B3u    Ag 
 recalc freqs check OK
 Zero-point lengths:
 10.0000 10.0000 10.0000 10.0000 10.0000 10.0000 31.2821 30.3130 26.5829 20.8368
 18.1169 17.2849 14.5413 14.2959 13.5986 13.4453 13.2038 12.8053 12.7681 12.7186
 12.6534 11.7482 11.4280 10.9910 10.9427 10.8709 10.7856 10.4036  9.7801  9.7744
  9.6594  9.2927  9.2214  9.1294  9.0268  8.9398  8.7744  8.7518  8.7289  8.6116
  8.2096  8.2071  8.1835  8.0579  8.0432  7.8147  7.6580  7.6260  7.5366  7.5236
  7.5138  7.3020  7.2631  7.0310  7.0048  6.9886  6.9541  6.8684  6.7741  6.7242
  6.6193  6.5364  6.5003  6.4399  6.3970  6.3447  6.3282  6.2694  6.2385  6.2075
  6.1973  6.1861  4.4591  4.4586  4.4051  4.4050  4.4034  4.4028
 highest evec of mol 2
  0.0016 -0.0007  0.0000
 -0.0011  0.0023  0.0000
  0.0011  0.0023  0.0000
 -0.0016 -0.0007  0.0000
 -0.0022  0.0015  0.0000
  0.0650  0.1252  0.0000
  0.0435  0.0000  0.0000
  0.0650 -0.1252  0.0000
 -0.0022 -0.0015  0.0000
  0.0011 -0.0023  0.0000
 -0.0016  0.0007  0.0000
 -0.0011 -0.0023  0.0000
  0.0016  0.0007  0.0000
  0.0022 -0.0015  0.0000
 -0.0650 -0.1252  0.0000
 -0.0435  0.0000  0.0000
 -0.0650  0.1252  0.0000
  0.0022  0.0015  0.0000
  0.0012  0.0000  0.0000
 -0.0012  0.0000  0.0000
 -0.2268 -0.4121  0.0000
 -0.1255  0.0000  0.0000
 -0.2268  0.4121  0.0000
  0.2268  0.4121  0.0000
  0.1255  0.0000  0.0000
  0.2268 -0.4121  0.0000
 Enter nber and list of atoms to keep of mol #2
 keep list:          26           1           2           3           4
           5           6           7           8           9          10
          11          12          13          14          15          16
          17          18          19          20          21          22
          23          24          25          26
 reordering atoms
           1  -3.61690200000000     
           2  -2.54586800000000     
           3  -2.54586800000000     
           4  -3.61690200000000     
           5  -1.23592300000000     
           6  -1.20921600000000     
           7  1.387889161341309E-016
           8   1.20921600000000     
           9   1.23592300000000     
          10   2.54586800000000     
          11   3.61690200000000     
          12   2.54586800000000     
          13   3.61690200000000     
          14   1.23592300000000     
          15   1.20921600000000     
          16  1.387889161341309E-016
          17  -1.20921600000000     
          18  -1.23592300000000     
          19  1.387889161341309E-016
          20  1.387889161341309E-016
          21  -2.16600200000000     
          22  1.387889161341309E-016
          23   2.16600200000000     
          24   2.16600200000000     
          25  1.387889161341309E-016
          26  -2.16600200000000     
           1           1
           2           2
           3           3
           4           4
           5           5
           6           6
           7           7
           8           8
           9           9
          10          10
          11          11
          12          12
          13          13
          14          14
          15          15
          16          16
          17          17
          18          18
          19          19
          20          20
          21          21
          22          22
          23          23
          24          24
          25          25
          26          26
 initial cartes coords mol 1
   8   0.00000   1.36768  -3.57949
   6   0.00000   0.77435  -2.52580
   6   0.00000  -0.77435  -2.52580
   8   0.00000  -1.36768  -3.57949
   6   0.00000  -1.46321  -1.20903
   6   0.00000  -2.86207  -1.19847
   6   0.00000  -3.56476  -0.00000
   6   0.00000  -2.86207   1.19847
   6   0.00000  -1.46321   1.20903
   6   0.00000  -0.77435   2.52580
   8   0.00000  -1.36768   3.57949
   6   0.00000   0.77435   2.52580
   8   0.00000   1.36768   3.57949
   6   0.00000   1.46321   1.20903
   6   0.00000   2.86207   1.19847
   6   0.00000   3.56476  -0.00000
   6   0.00000   2.86207  -1.19847
   6   0.00000   1.46321  -1.20903
   6   0.00000   0.73789  -0.00000
   6   0.00000  -0.73789  -0.00000
   1   0.00000  -3.37344  -2.15350
   1   0.00000  -4.64798  -0.00000
   1   0.00000  -3.37344   2.15350
   1   0.00000   3.37344   2.15350
   1   0.00000   4.64798  -0.00000
   1   0.00000   3.37344  -2.15350
 initial cartes coords mol 2
   8   0.00000   1.39647  -3.61690
   6   0.00000   0.74027  -2.54587
   6   0.00000  -0.74027  -2.54587
   8   0.00000  -1.39647  -3.61690
   6   0.00000  -1.42762  -1.23592
   6   0.00000  -2.83151  -1.20922
   6   0.00000  -3.52239   0.00000
   6   0.00000  -2.83151   1.20922
   6   0.00000  -1.42762   1.23592
   6   0.00000  -0.74027   2.54587
   8   0.00000  -1.39647   3.61690
   6   0.00000   0.74027   2.54587
   8   0.00000   1.39647   3.61690
   6   0.00000   1.42762   1.23592
   6   0.00000   2.83151   1.20922
   6   0.00000   3.52239   0.00000
   6   0.00000   2.83151  -1.20922
   6   0.00000   1.42762  -1.23592
   6   0.00000   0.71713   0.00000
   6   0.00000  -0.71713   0.00000
   1   0.00000  -3.34244  -2.16600
   1   0.00000  -4.61217   0.00000
   1   0.00000  -3.34244   2.16600
   1   0.00000   3.34244   2.16600
   1   0.00000   4.61217   0.00000
   1   0.00000   3.34244  -2.16600
 loop 1 0
 mod cartes coords mol 2
   8   0.00000   1.39647  -3.61690
   6   0.00000   0.74027  -2.54587
   6   0.00000  -0.74027  -2.54587
   8   0.00000  -1.39647  -3.61690
   6   0.00000  -1.42762  -1.23592
   6   0.00000  -2.83151  -1.20922
   6   0.00000  -3.52239   0.00000
   6   0.00000  -2.83151   1.20922
   6   0.00000  -1.42762   1.23592
   6   0.00000  -0.74027   2.54587
   8   0.00000  -1.39647   3.61690
   6   0.00000   0.74027   2.54587
   8   0.00000   1.39647   3.61690
   6   0.00000   1.42762   1.23592
   6   0.00000   2.83151   1.20922
   6   0.00000   3.52239   0.00000
   6   0.00000   2.83151  -1.20922
   6   0.00000   1.42762  -1.23592
   6   0.00000   0.71713   0.00000
   6   0.00000  -0.71713   0.00000
   1   0.00000  -3.34244  -2.16600
   1   0.00000  -4.61217   0.00000
   1   0.00000  -3.34244   2.16600
   1   0.00000   3.34244   2.16600
   1   0.00000   4.61217   0.00000
   1   0.00000   3.34244  -2.16600
 read in order, maxerr=  0.05 for atom   1
 final axis swaps:           1           1           1
 final xyz swap pattern=           1
 reorder list:
   1   2   3   4   5   6   7   8   9  10  11  12  13  14  15  16  17  18  19  20
  21  22  23  24  25  26
 axis signs=           1           1           1
  8     0.000000  1.396465 -3.616902     0.000000  1.367680 -3.579487
  6     0.000000  0.740267 -2.545868     0.000000  0.774346 -2.525803
  6     0.000000 -0.740267 -2.545868     0.000000 -0.774346 -2.525803
  8     0.000000 -1.396465 -3.616902     0.000000 -1.367680 -3.579487
  6     0.000000 -1.427618 -1.235923     0.000000 -1.463210 -1.209034
  6     0.000000 -2.831512 -1.209216     0.000000 -2.862071 -1.198466
  6     0.000000 -3.522389  0.000000     0.000000 -3.564760 -0.000000
  6     0.000000 -2.831512  1.209216     0.000000 -2.862071  1.198466
  6     0.000000 -1.427618  1.235923     0.000000 -1.463210  1.209034
  6     0.000000 -0.740267  2.545868     0.000000 -0.774346  2.525803
  8     0.000000 -1.396465  3.616902     0.000000 -1.367680  3.579487
  6     0.000000  0.740267  2.545868     0.000000  0.774346  2.525803
  8     0.000000  1.396465  3.616902     0.000000  1.367680  3.579487
  6     0.000000  1.427618  1.235923     0.000000  1.463210  1.209034
  6     0.000000  2.831512  1.209216     0.000000  2.862071  1.198466
  6     0.000000  3.522389  0.000000     0.000000  3.564760 -0.000000
  6     0.000000  2.831512 -1.209216     0.000000  2.862071 -1.198466
  6     0.000000  1.427618 -1.235923     0.000000  1.463210 -1.209034
  6     0.000000  0.717134  0.000000     0.000000  0.737892 -0.000000
  6     0.000000 -0.717134  0.000000     0.000000 -0.737892 -0.000000
  1     0.000000 -3.342444 -2.166002     0.000000 -3.373441 -2.153498
  1     0.000000 -4.612171  0.000000     0.000000 -4.647978 -0.000000
  1     0.000000 -3.342444  2.166002     0.000000 -3.373441  2.153498
  1     0.000000  3.342444  2.166002     0.000000  3.373441  2.153498
  1     0.000000  4.612171  0.000000     0.000000  4.647978 -0.000000
  1     0.000000  3.342444 -2.166002     0.000000  3.373441 -2.153498
 generating redundant internal coords
         300        3600          26
 Adding extra bonds for z output only
           8           6           6           8           6           6
           6           6           6           6           8           6
           8           6           6           6           6           6
           6           6           1           1           1           1
           1           1
 search for int coords
   1 str   2   1   1.256
   2 str   3   2   1.481
   3 str   4   3   1.256
   4 str   5   3   1.479
   5 str   6   5   1.404
   6 str   7   6   1.393
   7 str   8   7   1.393
   8 str   9   8   1.404
   9 str  10   9   1.479
  10 str  11  10   1.256
  11 str  12  10   1.481
  12 str  13  12   1.256
  13 str  14  12   1.479
  14 str  15  14   1.404
  15 str  16  15   1.393
  16 str  17  16   1.393
  17 str  18   2   1.479
  18 str  18  17   1.404
  19 str  19  14   1.426
  20 str  19  18   1.426
  21 str  20   5   1.426
  22 str  20   9   1.426
  23 str  20  19   1.434
  24 str  21   6   1.085
  25 str  22   7   1.090
  26 str  23   8   1.085
  27 str  24  15   1.085
  28 str  25  16   1.090
  29 str  26  17   1.085
 nber stretches=          29
  30 ben   1   2   3
  31 prop tor   1   2   3   4
  32 prop tor   1   2   3   5
  33 ben   1   2  18
  34 prop tor   1   2  18  17
  35 prop tor   1   2  18  19
  36 ben   2   3   4
  37 ben   2   3   5
  38 prop tor   2   3   5   6
  39 prop tor   2   3   5  20
  40 ben   2  18  17
  41 ben   2  18  19
  42 prop tor   2  18  19  14
  43 prop tor   2  18  19  20
  44 ben   3   2  18
  45 prop tor   3   2  18  17
  46 prop tor   3   2  18  19
  47 ben   3   5   6
  48 prop tor   3   5   6   7
  49 prop tor   3   5   6  21
  50 ben   3   5  20
  51 prop tor   3   5  20   9
  52 prop tor   3   5  20  19
  53 ben   4   3   5
  54 prop tor   4   3   5   6
  55 prop tor   4   3   5  20
  56 ben   5   6   7
  57 prop tor   5   6   7   8
  58 prop tor   5   6   7  22
  59 ben   5   6  21
  60 ben   5  20   9
  61 ben   5  20  19
  62 ben   6   5  20
  63 prop tor   6   5  20   9
  64 prop tor   6   5  20  19
  65 ben   6   7   8
  66 prop tor   6   7   8   9
  67 prop tor   6   7   8  23
  68 ben   6   7  22
  69 ben   7   6  21
  70 ben   7   8   9
  71 prop tor   7   8   9  10
  72 prop tor   7   8   9  20
  73 ben   7   8  23
  74 ben   8   7  22
  75 ben   8   9  10
  76 prop tor   8   9  10  11
  77 prop tor   8   9  10  12
  78 ben   8   9  20
  79 prop tor   8   9  20   5
  80 prop tor   8   9  20  19
  81 ben   9   8  23
  82 ben   9  10  11
  83 ben   9  10  12
  84 prop tor   9  10  12  13
  85 prop tor   9  10  12  14
  86 ben   9  20  19
  87 ben  10   9  20
  88 prop tor  10   9  20   5
  89 prop tor  10   9  20  19
  90 ben  10  12  13
  91 ben  10  12  14
  92 prop tor  10  12  14  15
  93 prop tor  10  12  14  19
  94 ben  11  10  12
  95 prop tor  11  10  12  13
  96 prop tor  11  10  12  14
  97 ben  12  14  15
  98 prop tor  12  14  15  16
  99 prop tor  12  14  15  24
 100 ben  12  14  19
 101 prop tor  12  14  19  18
 102 prop tor  12  14  19  20
 103 ben  13  12  14
 104 prop tor  13  12  14  15
 105 prop tor  13  12  14  19
 106 ben  14  15  16
 107 prop tor  14  15  16  17
 108 prop tor  14  15  16  25
 109 ben  14  15  24
 110 ben  14  19  18
 111 ben  14  19  20
 112 prop tor  14  19  20   5
 113 prop tor  14  19  20   9
 114 ben  15  14  19
 115 prop tor  15  14  19  18
 116 prop tor  15  14  19  20
 117 ben  15  16  17
 118 prop tor  15  16  17  18
 119 prop tor  15  16  17  26
 120 ben  15  16  25
 121 ben  16  15  24
 122 ben  16  17  18
 123 prop tor  16  17  18   2
 124 prop tor  16  17  18  19
 125 ben  16  17  26
 126 ben  17  16  25
 127 ben  17  18  19
 128 prop tor  17  18  19  14
 129 prop tor  17  18  19  20
 130 prop tor  18   2   3   4
 131 prop tor  18   2   3   5
 132 ben  18  17  26
 133 ben  18  19  20
 134 prop tor  18  19  20   5
 135 prop tor  18  19  20   9
 136 prop tor  19  14  15  16
 137 prop tor  19  14  15  24
 138 prop tor  20   5   6   7
 139 prop tor  20   5   6  21
 140 prop tor  20   9  10  11
 141 prop tor  20   9  10  12
 142 prop tor  21   6   7   8
 143 prop tor  21   6   7  22
 144 prop tor  22   7   8   9
 145 prop tor  22   7   8  23
 146 prop tor  23   8   9  10
 147 prop tor  23   8   9  20
 148 prop tor  24  15  16  17
 149 prop tor  24  15  16  25
 150 prop tor  25  16  17  18
 151 prop tor  25  16  17  26
 152 prop tor  26  17  18   2
 153 prop tor  26  17  18  19
 nber bend=              48
 nber lin bend=           0
 nber prop tor=          76
 nber impr tor=           0
 nber tot redund int=         153
 generating redundant internal coords
         300        3600          26
 search for int coords
   1 str   2   1   1.209
   2 str   3   2   1.549
   3 str   4   3   1.209
   4 str   5   3   1.486
   5 str   6   5   1.399
   6 str   7   6   1.389
   7 str   8   7   1.389
   8 str   9   8   1.399
   9 str  10   9   1.486
  10 str  11  10   1.209
  11 str  12  10   1.549
  12 str  13  12   1.209
  13 str  14  12   1.486
  14 str  15  14   1.399
  15 str  16  15   1.389
  16 str  17  16   1.389
  17 str  18   2   1.486
  18 str  18  17   1.399
  19 str  19  14   1.410
  20 str  19  18   1.410
  21 str  20   5   1.410
  22 str  20   9   1.410
  23 str  20  19   1.476
  24 str  21   6   1.083
  25 str  22   7   1.083
  26 str  23   8   1.083
  27 str  24  15   1.083
  28 str  25  16   1.083
  29 str  26  17   1.083
 nber stretches=          29
  30 ben   1   2   3
  31 prop tor   1   2   3   4
  32 prop tor   1   2   3   5
  33 ben   1   2  18
  34 prop tor   1   2  18  17
  35 prop tor   1   2  18  19
  36 ben   2   3   4
  37 ben   2   3   5
  38 prop tor   2   3   5   6
  39 prop tor   2   3   5  20
  40 ben   2  18  17
  41 ben   2  18  19
  42 prop tor   2  18  19  14
  43 prop tor   2  18  19  20
  44 ben   3   2  18
  45 prop tor   3   2  18  17
  46 prop tor   3   2  18  19
  47 ben   3   5   6
  48 prop tor   3   5   6   7
  49 prop tor   3   5   6  21
  50 ben   3   5  20
  51 prop tor   3   5  20   9
  52 prop tor   3   5  20  19
  53 ben   4   3   5
  54 prop tor   4   3   5   6
  55 prop tor   4   3   5  20
  56 ben   5   6   7
  57 prop tor   5   6   7   8
  58 prop tor   5   6   7  22
  59 ben   5   6  21
  60 ben   5  20   9
  61 ben   5  20  19
  62 ben   6   5  20
  63 prop tor   6   5  20   9
  64 prop tor   6   5  20  19
  65 ben   6   7   8
  66 prop tor   6   7   8   9
  67 prop tor   6   7   8  23
  68 ben   6   7  22
  69 ben   7   6  21
  70 ben   7   8   9
  71 prop tor   7   8   9  10
  72 prop tor   7   8   9  20
  73 ben   7   8  23
  74 ben   8   7  22
  75 ben   8   9  10
  76 prop tor   8   9  10  11
  77 prop tor   8   9  10  12
  78 ben   8   9  20
  79 prop tor   8   9  20   5
  80 prop tor   8   9  20  19
  81 ben   9   8  23
  82 ben   9  10  11
  83 ben   9  10  12
  84 prop tor   9  10  12  13
  85 prop tor   9  10  12  14
  86 ben   9  20  19
  87 ben  10   9  20
  88 prop tor  10   9  20   5
  89 prop tor  10   9  20  19
  90 ben  10  12  13
  91 ben  10  12  14
  92 prop tor  10  12  14  15
  93 prop tor  10  12  14  19
  94 ben  11  10  12
  95 prop tor  11  10  12  13
  96 prop tor  11  10  12  14
  97 ben  12  14  15
  98 prop tor  12  14  15  16
  99 prop tor  12  14  15  24
 100 ben  12  14  19
 101 prop tor  12  14  19  18
 102 prop tor  12  14  19  20
 103 ben  13  12  14
 104 prop tor  13  12  14  15
 105 prop tor  13  12  14  19
 106 ben  14  15  16
 107 prop tor  14  15  16  17
 108 prop tor  14  15  16  25
 109 ben  14  15  24
 110 ben  14  19  18
 111 ben  14  19  20
 112 prop tor  14  19  20   5
 113 prop tor  14  19  20   9
 114 ben  15  14  19
 115 prop tor  15  14  19  18
 116 prop tor  15  14  19  20
 117 ben  15  16  17
 118 prop tor  15  16  17  18
 119 prop tor  15  16  17  26
 120 ben  15  16  25
 121 ben  16  15  24
 122 ben  16  17  18
 123 prop tor  16  17  18   2
 124 prop tor  16  17  18  19
 125 ben  16  17  26
 126 ben  17  16  25
 127 ben  17  18  19
 128 prop tor  17  18  19  14
 129 prop tor  17  18  19  20
 130 prop tor  18   2   3   4
 131 prop tor  18   2   3   5
 132 ben  18  17  26
 133 ben  18  19  20
 134 prop tor  18  19  20   5
 135 prop tor  18  19  20   9
 136 prop tor  19  14  15  16
 137 prop tor  19  14  15  24
 138 prop tor  20   5   6   7
 139 prop tor  20   5   6  21
 140 prop tor  20   9  10  11
 141 prop tor  20   9  10  12
 142 prop tor  21   6   7   8
 143 prop tor  21   6   7  22
 144 prop tor  22   7   8   9
 145 prop tor  22   7   8  23
 146 prop tor  23   8   9  10
 147 prop tor  23   8   9  20
 148 prop tor  24  15  16  17
 149 prop tor  24  15  16  25
 150 prop tor  25  16  17  18
 151 prop tor  25  16  17  26
 152 prop tor  26  17  18   2
 153 prop tor  26  17  18  19
 nber bend=              48
 nber lin bend=           0
 nber prop tor=          76
 nber impr tor=           0
 nber tot redund int=         153
 Eigenvalues of G in red int coords
    Gval -0.00000000 -0.00000000 -0.00000000 -0.00000000 -0.00000000 -0.00000000 -0.00000000 -0.00000000
    Gval -0.00000000 -0.00000000 -0.00000000 -0.00000000 -0.00000000 -0.00000000 -0.00000000 -0.00000000
    Gval -0.00000000 -0.00000000 -0.00000000 -0.00000000 -0.00000000 -0.00000000 -0.00000000 -0.00000000
    Gval -0.00000000 -0.00000000 -0.00000000 -0.00000000 -0.00000000 -0.00000000 -0.00000000 -0.00000000
    Gval -0.00000000 -0.00000000 -0.00000000 -0.00000000 -0.00000000 -0.00000000 -0.00000000 -0.00000000
    Gval  0.00000000  0.00000000  0.00000000  0.00000000  0.00000000  0.00000000  0.00000000  0.00000000
    Gval  0.00000000  0.00000000  0.00000000  0.00000000  0.00000000  0.00000000  0.00000000  0.00000000
    Gval  0.00000000  0.00000000  0.00000000  0.00000000  0.00000000  0.00000000  0.00000000  0.00000000
    Gval  0.00000000  0.00000000  0.00000000  0.00000000  0.00000000  0.00000000  0.00000000  0.00000000
    Gval  0.00000000  0.00000000  0.00000000  0.00000000  0.00000000  0.00000000  0.00000000  0.00000000
    Gval  0.00000000  0.00000962  0.00000976  0.00001153  0.00001378  0.00001487  0.00001945  0.00002409
    Gval  0.00002486  0.00002600  0.00003113  0.00003944  0.00004530  0.00004822  0.00005391  0.00006202
    Gval  0.00006330  0.00006402  0.00006737  0.00008496  0.00008946  0.00009454  0.00009869  0.00011003
    Gval  0.00011204  0.00011793  0.00013402  0.00015166  0.00016000  0.00017515  0.00020950  0.00021279
    Gval  0.00021529  0.00026051  0.00030515  0.00032034  0.00032110  0.00032280  0.00038366  0.00038682
    Gval  0.00038711  0.00040291  0.00040635  0.00044562  0.00045785  0.00048163  0.00056480  0.00059431
    Gval  0.00059431  0.00060899  0.00061014  0.00065044  0.00065074  0.00074933  0.00077002  0.00100238
    Gval  0.00106834  0.00106879  0.00110209  0.00114166  0.00114168  0.00117345  0.00117352  0.00125089
    Gval  0.00160258  0.00174283  0.00195232  0.00213872  0.00261980  0.00310108  0.00310860  0.00396413
    Gval  0.00396465
  9.616377724311596E-006  9.616377724311596E-006
  9.760754718762974E-006  9.616377724311596E-006
  1.153393765766237E-005  9.616377724311596E-006
  1.377872948333587E-005  9.616377724311596E-006
  1.487033723968851E-005  9.616377724311596E-006
  1.944830727176225E-005  9.616377724311596E-006
  2.408629584371653E-005  9.616377724311596E-006
  2.485713737434344E-005  9.616377724311596E-006
  2.600473315097066E-005  9.616377724311596E-006
  3.113059342309611E-005  9.616377724311596E-006
  3.943855919503740E-005  9.616377724311596E-006
  4.530465545552927E-005  9.616377724311596E-006
  4.821878717451659E-005  9.616377724311596E-006
  5.390779088283285E-005  9.616377724311596E-006
  6.202406699070357E-005  9.616377724311596E-006
  6.329624094704522E-005  9.616377724311596E-006
  6.401617834533529E-005  9.616377724311596E-006
  6.736791650707827E-005  9.616377724311596E-006
  8.495565340209064E-005  9.616377724311596E-006
  8.946074532160889E-005  9.616377724311596E-006
  9.453798452642881E-005  9.616377724311596E-006
  9.868990481178347E-005  9.616377724311596E-006
  1.100285819627971E-004  9.616377724311596E-006
  1.120406095832757E-004  9.616377724311596E-006
  1.179251529244400E-004  9.616377724311596E-006
  1.340178596425266E-004  9.616377724311596E-006
  1.516592876508999E-004  9.616377724311596E-006
  1.599957453937101E-004  9.616377724311596E-006
  1.751539729330659E-004  9.616377724311596E-006
  2.094985488915117E-004  9.616377724311596E-006
  2.127912483537045E-004  9.616377724311596E-006
  2.152926337486666E-004  9.616377724311596E-006
  2.605064871800400E-004  9.616377724311596E-006
  3.051486650854666E-004  9.616377724311596E-006
  3.203384873742021E-004  9.616377724311596E-006
  3.211045688272535E-004  9.616377724311596E-006
  3.227967004190828E-004  9.616377724311596E-006
  3.836558627163219E-004  9.616377724311596E-006
  3.868179911369451E-004  9.616377724311596E-006
  3.871062814613903E-004  9.616377724311596E-006
  4.029114070484680E-004  9.616377724311596E-006
  4.063515268191875E-004  9.616377724311596E-006
  4.456218478756603E-004  9.616377724311596E-006
  4.578510379877402E-004  9.616377724311596E-006
  4.816321890557136E-004  9.616377724311596E-006
  5.648024338925170E-004  9.616377724311596E-006
  5.943050446013967E-004  9.616377724311596E-006
  5.943084273997677E-004  9.616377724311596E-006
  6.089866784367667E-004  9.616377724311596E-006
  6.101425875717590E-004  9.616377724311596E-006
  6.504447590821419E-004  9.616377724311596E-006
  6.507350892841640E-004  9.616377724311596E-006
  7.493289846877828E-004  9.616377724311596E-006
  7.700162466397302E-004  9.616377724311596E-006
  1.002375531829674E-003  9.616377724311596E-006
  1.068337272062301E-003  9.616377724311596E-006
  1.068785543062954E-003  9.616377724311596E-006
  1.102092705530509E-003  9.616377724311596E-006
  1.141657070219995E-003  9.616377724311596E-006
  1.141677759941884E-003  9.616377724311596E-006
  1.173452546228577E-003  9.616377724311596E-006
  1.173523780029482E-003  9.616377724311596E-006
  1.250894465558750E-003  9.616377724311596E-006
  1.602583734882927E-003  9.616377724311596E-006
  1.742825003281112E-003  9.616377724311596E-006
  1.952317206923633E-003  9.616377724311596E-006
  2.138718189938055E-003  9.616377724311596E-006
  2.619801606114220E-003  9.616377724311596E-006
  3.101082625861235E-003  9.616377724311596E-006
  3.108596734902657E-003  9.616377724311596E-006
  3.964134672354221E-003  9.616377724311596E-006
  3.964645289584364E-003  9.616377724311596E-006
 cut=1d-8, nber non-redundant internal coords=          72
 Check on Eigenvals of non-red overlap matrix:
  0.00000962  0.00000976  0.00001153  0.00001378  0.00001487  0.00001945  0.00002409  0.00002486
  0.00002600  0.00003113  0.00003944  0.00004530  0.00004822  0.00005391  0.00006202  0.00006330
  0.00006402  0.00006737  0.00008496  0.00008946  0.00009454  0.00009869  0.00011003  0.00011204
  0.00011793  0.00013402  0.00015166  0.00016000  0.00017515  0.00020950  0.00021279  0.00021529
  0.00026051  0.00030515  0.00032034  0.00032110  0.00032280  0.00038366  0.00038682  0.00038711
  0.00040291  0.00040635  0.00044562  0.00045785  0.00048163  0.00056480  0.00059431  0.00059431
  0.00060899  0.00061014  0.00065044  0.00065074  0.00074933  0.00077002  0.00100238  0.00106834
  0.00106879  0.00110209  0.00114166  0.00114168  0.00117345  0.00117352  0.00125089  0.00160258
  0.00174283  0.00195232  0.00213872  0.00261980  0.00310108  0.00310860  0.00396413  0.00396465
 generating redundant internal coords
         300        3600          26
 search for int coords
   1 str   2   1   1.256
   2 str   3   2   1.481
   3 str   4   3   1.256
   4 str   5   3   1.479
   5 str   6   5   1.404
   6 str   7   6   1.393
   7 str   8   7   1.393
   8 str   9   8   1.404
   9 str  10   9   1.479
  10 str  11  10   1.256
  11 str  12  10   1.481
  12 str  13  12   1.256
  13 str  14  12   1.479
  14 str  15  14   1.404
  15 str  16  15   1.393
  16 str  17  16   1.393
  17 str  18   2   1.479
  18 str  18  17   1.404
  19 str  19  14   1.426
  20 str  19  18   1.426
  21 str  20   5   1.426
  22 str  20   9   1.426
  23 str  20  19   1.434
  24 str  21   6   1.085
  25 str  22   7   1.090
  26 str  23   8   1.085
  27 str  24  15   1.085
  28 str  25  16   1.090
  29 str  26  17   1.085
 nber stretches=          29
  30 ben   1   2   3
  31 prop tor   1   2   3   4
  32 prop tor   1   2   3   5
  33 ben   1   2  18
  34 prop tor   1   2  18  17
  35 prop tor   1   2  18  19
  36 ben   2   3   4
  37 ben   2   3   5
  38 prop tor   2   3   5   6
  39 prop tor   2   3   5  20
  40 ben   2  18  17
  41 ben   2  18  19
  42 prop tor   2  18  19  14
  43 prop tor   2  18  19  20
  44 ben   3   2  18
  45 prop tor   3   2  18  17
  46 prop tor   3   2  18  19
  47 ben   3   5   6
  48 prop tor   3   5   6   7
  49 prop tor   3   5   6  21
  50 ben   3   5  20
  51 prop tor   3   5  20   9
  52 prop tor   3   5  20  19
  53 ben   4   3   5
  54 prop tor   4   3   5   6
  55 prop tor   4   3   5  20
  56 ben   5   6   7
  57 prop tor   5   6   7   8
  58 prop tor   5   6   7  22
  59 ben   5   6  21
  60 ben   5  20   9
  61 ben   5  20  19
  62 ben   6   5  20
  63 prop tor   6   5  20   9
  64 prop tor   6   5  20  19
  65 ben   6   7   8
  66 prop tor   6   7   8   9
  67 prop tor   6   7   8  23
  68 ben   6   7  22
  69 ben   7   6  21
  70 ben   7   8   9
  71 prop tor   7   8   9  10
  72 prop tor   7   8   9  20
  73 ben   7   8  23
  74 ben   8   7  22
  75 ben   8   9  10
  76 prop tor   8   9  10  11
  77 prop tor   8   9  10  12
  78 ben   8   9  20
  79 prop tor   8   9  20   5
  80 prop tor   8   9  20  19
  81 ben   9   8  23
  82 ben   9  10  11
  83 ben   9  10  12
  84 prop tor   9  10  12  13
  85 prop tor   9  10  12  14
  86 ben   9  20  19
  87 ben  10   9  20
  88 prop tor  10   9  20   5
  89 prop tor  10   9  20  19
  90 ben  10  12  13
  91 ben  10  12  14
  92 prop tor  10  12  14  15
  93 prop tor  10  12  14  19
  94 ben  11  10  12
  95 prop tor  11  10  12  13
  96 prop tor  11  10  12  14
  97 ben  12  14  15
  98 prop tor  12  14  15  16
  99 prop tor  12  14  15  24
 100 ben  12  14  19
 101 prop tor  12  14  19  18
 102 prop tor  12  14  19  20
 103 ben  13  12  14
 104 prop tor  13  12  14  15
 105 prop tor  13  12  14  19
 106 ben  14  15  16
 107 prop tor  14  15  16  17
 108 prop tor  14  15  16  25
 109 ben  14  15  24
 110 ben  14  19  18
 111 ben  14  19  20
 112 prop tor  14  19  20   5
 113 prop tor  14  19  20   9
 114 ben  15  14  19
 115 prop tor  15  14  19  18
 116 prop tor  15  14  19  20
 117 ben  15  16  17
 118 prop tor  15  16  17  18
 119 prop tor  15  16  17  26
 120 ben  15  16  25
 121 ben  16  15  24
 122 ben  16  17  18
 123 prop tor  16  17  18   2
 124 prop tor  16  17  18  19
 125 ben  16  17  26
 126 ben  17  16  25
 127 ben  17  18  19
 128 prop tor  17  18  19  14
 129 prop tor  17  18  19  20
 130 prop tor  18   2   3   4
 131 prop tor  18   2   3   5
 132 ben  18  17  26
 133 ben  18  19  20
 134 prop tor  18  19  20   5
 135 prop tor  18  19  20   9
 136 prop tor  19  14  15  16
 137 prop tor  19  14  15  24
 138 prop tor  20   5   6   7
 139 prop tor  20   5   6  21
 140 prop tor  20   9  10  11
 141 prop tor  20   9  10  12
 142 prop tor  21   6   7   8
 143 prop tor  21   6   7  22
 144 prop tor  22   7   8   9
 145 prop tor  22   7   8  23
 146 prop tor  23   8   9  10
 147 prop tor  23   8   9  20
 148 prop tor  24  15  16  17
 149 prop tor  24  15  16  25
 150 prop tor  25  16  17  18
 151 prop tor  25  16  17  26
 152 prop tor  26  17  18   2
 153 prop tor  26  17  18  19
 nber bend=              48
 nber lin bend=           0
 nber prop tor=          76
 nber impr tor=           0
 nber tot redund int=         153
 Eigenvalues of G in red int coords
    Gval -0.00000000 -0.00000000 -0.00000000 -0.00000000 -0.00000000 -0.00000000 -0.00000000 -0.00000000
    Gval -0.00000000 -0.00000000 -0.00000000 -0.00000000 -0.00000000 -0.00000000 -0.00000000 -0.00000000
    Gval -0.00000000 -0.00000000 -0.00000000 -0.00000000 -0.00000000 -0.00000000 -0.00000000 -0.00000000
    Gval -0.00000000 -0.00000000 -0.00000000 -0.00000000 -0.00000000 -0.00000000 -0.00000000 -0.00000000
    Gval -0.00000000 -0.00000000 -0.00000000 -0.00000000 -0.00000000 -0.00000000 -0.00000000 -0.00000000
    Gval -0.00000000  0.00000000  0.00000000  0.00000000  0.00000000  0.00000000  0.00000000  0.00000000
    Gval  0.00000000  0.00000000  0.00000000  0.00000000  0.00000000  0.00000000  0.00000000  0.00000000
    Gval  0.00000000  0.00000000  0.00000000  0.00000000  0.00000000  0.00000000  0.00000000  0.00000000
    Gval  0.00000000  0.00000000  0.00000000  0.00000000  0.00000000  0.00000000  0.00000000  0.00000000
    Gval  0.00000000  0.00000000  0.00000000  0.00000000  0.00000000  0.00000000  0.00000000  0.00000000
    Gval  0.00000000  0.00000928  0.00000974  0.00001159  0.00001372  0.00001484  0.00001937  0.00002329
    Gval  0.00002394  0.00002614  0.00003129  0.00003967  0.00004561  0.00004701  0.00005377  0.00006139
    Gval  0.00006346  0.00006381  0.00006646  0.00008523  0.00008937  0.00009167  0.00009764  0.00010874
    Gval  0.00011103  0.00011722  0.00013369  0.00014859  0.00015525  0.00017395  0.00020846  0.00021021
    Gval  0.00021105  0.00025618  0.00030466  0.00031739  0.00032655  0.00032685  0.00036239  0.00038374
    Gval  0.00038473  0.00040776  0.00041676  0.00044953  0.00045961  0.00047770  0.00053822  0.00059426
    Gval  0.00059427  0.00060871  0.00060990  0.00064980  0.00065024  0.00076131  0.00077619  0.00101253
    Gval  0.00106049  0.00106091  0.00112818  0.00113887  0.00113890  0.00116331  0.00116340  0.00123383
    Gval  0.00161591  0.00171801  0.00192467  0.00211086  0.00261124  0.00310078  0.00310870  0.00391966
    Gval  0.00392016
  9.277017168260363E-006  9.277017168260363E-006
  9.744630313244119E-006  9.277017168260363E-006
  1.158802036786383E-005  9.277017168260363E-006
  1.372202467715047E-005  9.277017168260363E-006
  1.484449458036344E-005  9.277017168260363E-006
  1.937227498001159E-005  9.277017168260363E-006
  2.329025995344363E-005  9.277017168260363E-006
  2.394195248206566E-005  9.277017168260363E-006
  2.613762020808171E-005  9.277017168260363E-006
  3.128509822153863E-005  9.277017168260363E-006
  3.966867024534745E-005  9.277017168260363E-006
  4.560777438396873E-005  9.277017168260363E-006
  4.701324753608144E-005  9.277017168260363E-006
  5.377460144174862E-005  9.277017168260363E-006
  6.139441286307793E-005  9.277017168260363E-006
  6.345934066585851E-005  9.277017168260363E-006
  6.381065756113208E-005  9.277017168260363E-006
  6.646329657162395E-005  9.277017168260363E-006
  8.523374096698456E-005  9.277017168260363E-006
  8.937481713198125E-005  9.277017168260363E-006
  9.166552054754715E-005  9.277017168260363E-006
  9.763968883404669E-005  9.277017168260363E-006
  1.087403237048398E-004  9.277017168260363E-006
  1.110319650249999E-004  9.277017168260363E-006
  1.172222877370524E-004  9.277017168260363E-006
  1.336944022499789E-004  9.277017168260363E-006
  1.485938598901598E-004  9.277017168260363E-006
  1.552539845739179E-004  9.277017168260363E-006
  1.739513564164343E-004  9.277017168260363E-006
  2.084617999936898E-004  9.277017168260363E-006
  2.102121178927763E-004  9.277017168260363E-006
  2.110468496939704E-004  9.277017168260363E-006
  2.561825808889884E-004  9.277017168260363E-006
  3.046606396467410E-004  9.277017168260363E-006
  3.173855879224716E-004  9.277017168260363E-006
  3.265487593771994E-004  9.277017168260363E-006
  3.268472323166366E-004  9.277017168260363E-006
  3.623885447502966E-004  9.277017168260363E-006
  3.837351536689036E-004  9.277017168260363E-006
  3.847340625496330E-004  9.277017168260363E-006
  4.077592909832336E-004  9.277017168260363E-006
  4.167558250150985E-004  9.277017168260363E-006
  4.495348848454185E-004  9.277017168260363E-006
  4.596057779691823E-004  9.277017168260363E-006
  4.776984469940235E-004  9.277017168260363E-006
  5.382213438880683E-004  9.277017168260363E-006
  5.942587069522681E-004  9.277017168260363E-006
  5.942683895911338E-004  9.277017168260363E-006
  6.087084505674028E-004  9.277017168260363E-006
  6.098953420641256E-004  9.277017168260363E-006
  6.498042351554992E-004  9.277017168260363E-006
  6.502414013786343E-004  9.277017168260363E-006
  7.613116354255090E-004  9.277017168260363E-006
  7.761925042778080E-004  9.277017168260363E-006
  1.012532715105629E-003  9.277017168260363E-006
  1.060485818701229E-003  9.277017168260363E-006
  1.060912196572159E-003  9.277017168260363E-006
  1.128176300297842E-003  9.277017168260363E-006
  1.138871193374394E-003  9.277017168260363E-006
  1.138901048976499E-003  9.277017168260363E-006
  1.163309480235021E-003  9.277017168260363E-006
  1.163396969824795E-003  9.277017168260363E-006
  1.233833567380030E-003  9.277017168260363E-006
  1.615907451395416E-003  9.277017168260363E-006
  1.718013167834604E-003  9.277017168260363E-006
  1.924669616156308E-003  9.277017168260363E-006
  2.110855606035433E-003  9.277017168260363E-006
  2.611242605745366E-003  9.277017168260363E-006
  3.100778026896196E-003  9.277017168260363E-006
  3.108698775301886E-003  9.277017168260363E-006
  3.919657520518404E-003  9.277017168260363E-006
  3.920159661172385E-003  9.277017168260363E-006
 cut=1d-8, nber non-redundant internal coords=          72
 Check on Eigenvals of non-red overlap matrix:
  0.00000928  0.00000974  0.00001159  0.00001372  0.00001484  0.00001937  0.00002329  0.00002394
  0.00002614  0.00003129  0.00003967  0.00004561  0.00004701  0.00005377  0.00006139  0.00006346
  0.00006381  0.00006646  0.00008523  0.00008937  0.00009167  0.00009764  0.00010874  0.00011103
  0.00011722  0.00013369  0.00014859  0.00015525  0.00017395  0.00020846  0.00021021  0.00021105
  0.00025618  0.00030466  0.00031739  0.00032655  0.00032685  0.00036239  0.00038374  0.00038473
  0.00040776  0.00041676  0.00044953  0.00045961  0.00047770  0.00053822  0.00059426  0.00059427
  0.00060871  0.00060990  0.00064980  0.00065024  0.00076131  0.00077619  0.00101253  0.00106049
  0.00106091  0.00112818  0.00113887  0.00113890  0.00116331  0.00116340  0.00123383  0.00161591
  0.00171801  0.00192467  0.00211086  0.00261124  0.00310078  0.00310870  0.00391966  0.00392016
 d1=
   0.0   9.4  -0.0  -0.0  20.5  -0.0  -8.5   0.0  -0.0   0.0   0.0   0.0   0.0   0.0   4.4  -0.0  -0.0  -0.0  -0.0   9.1
   0.0   2.1  -0.0   0.0   0.0  -0.0  -0.0   0.0  -1.4   0.0  -0.0   0.0   8.2  -0.0  -0.0   0.0  -0.0  -0.0   0.0  -4.1
  -0.0  -0.0  -0.0   0.0   0.1   0.0  -0.5  -0.0  -0.0  -0.0   0.4   0.0  -0.0  -0.0   0.0  -0.0  -0.0   0.0  -1.4  -0.0
   0.0   0.0   0.0  -0.0   0.0  -0.0  -0.0   0.0   0.0  -0.0  -0.0   0.0
 d2=
[...]
 nber times 1st assigned=          13           0
 nber times 1st assigned=          15           0
 nber times 1st assigned=          16           0
 nber times 1st assigned=          17           0
 nber times 1st assigned=          20           0
 nber times 1st assigned=          21           0
 nber times 1st assigned=          22           0
 nber times 1st assigned=          23           0
 nber times 1st assigned=          24           0
 nber times 1st assigned=          26           0
 nber times 1st assigned=          27           0
 nber times 1st assigned=          28           0
 nber times 1st assigned=          29           0
 nber times 1st assigned=          30           0
 nber times 1st assigned=          31           0
 nber times 1st assigned=          32           0
 nber times 1st assigned=          33           0
 nber times 1st assigned=          34           0
 nber times 1st assigned=          35           0
 nber times 1st assigned=          36           0
 nber times 1st assigned=          37           0
 nber times 1st assigned=          38           0
 nber times 1st assigned=          39           0
 nber times 1st assigned=          40           0
 nber times 1st assigned=          41           0
 nber times 1st assigned=          42           0
 nber times 1st assigned=          43           0
 nber times 1st assigned=          44           0
 nber times 1st assigned=          45           0
 nber times 1st assigned=          46           0
 nber times 1st assigned=          47           0
 nber times 1st assigned=          48           0
 nber times 1st assigned=          49           0
 nber times 1st assigned=          50           0
 nber times 1st assigned=          51           0
 nber times 1st assigned=          52           0
 nber times 1st assigned=          53           0
 nber times 1st assigned=          54           0
 nber times 1st assigned=          55           0
 nber times 1st assigned=          56           0
 nber times 1st assigned=          57           0
 nber times 1st assigned=          58           0
 nber times 1st assigned=          59           0
 nber times 1st assigned=          60           0
 nber times 1st assigned=          61           0
 nber times 1st assigned=          62           0
 nber times 1st assigned=          63           0
 nber times 1st assigned=          64           0
 nber times 1st assigned=          65           0
 nber times 1st assigned=          66           0
 nber times 1st assigned=          67           0
 nber times 1st assigned=          68           0
 nber times 1st assigned=          69           0
 nber times 1st assigned=          70           0
 nber times 1st assigned=          71           0
 nber times 1st assigned=          72           0
 nber times 1st assigned=          73           0
 nber times 1st assigned=          74           0
 nber times 1st assigned=          75           0
 nber times 1st assigned=          76           0
 nber times 1st assigned=          77           0
 nber times 1st assigned=          78           0
 Dushinsky matrix written to .out file
 modes represented=   71.6466692912908     

 Dushinsky matrix, ncs 1 in terms of ncs 2

   mode   freq    coeff     %      %tot     of    at

   7 Au     35.  0.9967    99.4    97.2   7 Au     63.
   8 B2g    56. -0.9969    99.4    97.3   9 B2g    87.
   9 B1u    58.  0.9995    99.9   101.5   8 B1u    67.
  10 B1u   141.  0.9992    99.8    99.7  10 B1u   142.
  11 B3g   170.  0.9978    99.6    98.8  11 B3g   187.
  12 Au    178.  0.9913    98.3    99.6  12 Au    206.
  13 B2g   281.  0.9969    99.4   102.1  14 B2g   301.
  14 B3u   293. -0.9995    99.9    96.4  13 B3u   291.
  15 B2u   320.  0.9909    98.2   100.0  15 B2u   332.
  16 B1g   336.  0.9935    98.7    97.3  16 B1g   340.
  17 Ag    347. -0.9952    99.0   101.4  17 Ag    353.
  18 B3g   370.  0.9993    99.9    94.4  19 B3g   377.
  19 B1g   371.  0.9927    98.5   103.3  20 B1g   380.
  20 B2u   376.  0.9870    97.4    96.6  21 B2u   384.
  21 Ag    379.  0.9912    98.2    94.4  18 Ag    375.
  22 B1u   443.  0.9905    98.1    98.1  22 B1u   445.
  23 Ag    450.  0.9930    98.6   100.0  23 Ag    471.
  24 Au    474.  0.9920    98.4    98.7  24 Au    509.
  25 B2u   507.  0.9989    99.8    99.2  25 B2u   513.
  26 B1u   507.  0.9921    98.4    98.6  26 B1u   520.
  27 B3u   529. -0.9973    99.5   102.0  27 B3u   528.
  28 B2g   565. -0.9721    94.5   101.2  28 B2g   568.
  29 B3g   614.  0.9971    99.4    97.5  29 B3g   643.
  30 B1g   646.  0.9980    99.6   100.6  30 B1g   643.
  31 B3u   661. -0.9989    99.8    98.9  31 B3u   659.
  32 B2g   742.  0.9910    98.2   100.7  32 B2g   712.
  33 B1u   744.  0.9833    96.7    98.5  33 B1u   723.
  34 B1g   763. -0.9971    99.4    98.1  35 B1g   754.
  35 Ag    796. -0.9970    99.4   100.1  39 Ag    807.
  36 B2g   798.  0.8713    75.9    99.1  34 B2g   737.
                -0.4374    19.1          37 B2g   798.
  37 B2u   828.  0.9934    98.7    98.4  40 B2u   829.
  38 B1u   839.  0.9921    98.4    98.4  38 B1u   802.
  39 Au    847.  0.9985    99.7   102.2  36 Au    769.
  40 B2g   889.  0.4296    18.5   100.4  34 B2g   737.
                 0.8981    80.7          37 B2g   798.
  41 B3u   921. -0.9951    99.0   101.0  43 B3u   918.
  42 B3g   994.  0.9986    99.7    99.9  42 B3g   912.
  43 Au    999.  0.9995    99.9   100.0  41 Au    912.
  44 Ag   1018.  0.8787    77.2    97.9  47 Ag   1048.
                -0.4489    20.2          51 Ag   1089.
  45 B3u  1021.  0.9966    99.3    99.1  46 B3u  1006.
  46 B1u  1030.  0.9943    98.9    99.2  44 B1u   947.
  47 B2g  1031.  0.9940    98.8    99.2  45 B2g   950.
  48 B1g  1052.  0.9928    98.6   103.0  48 B1g  1057.
  49 B2u  1060. -0.9645    93.0    98.4  50 B2u  1086.
  50 Ag   1105.  0.4646    21.6    99.4  47 Ag   1048.
                 0.8797    77.4          51 Ag   1089.
  51 B3u  1119. -0.9982    99.6    99.8  49 B3u  1082.
  52 B1g  1191.  0.9809    96.2    99.9  53 B1g  1165.
  53 B2u  1192.  0.9366    87.7    99.7  52 B2u  1153.
  54 B1g  1268.  0.9880    97.6    99.5  54 B1g  1243.
  55 B3u  1278. -0.9948    99.0   100.9  56 B3u  1258.
  56 Ag   1282.  0.9561    91.4    99.2  58 Ag   1303.
  57 B2u  1289.  0.8773    77.0    99.4  57 B2u  1271.
                -0.3551    12.6          59 B2u  1339.
  58 Ag   1307.  0.9753    95.1    99.9  55 Ag   1253.
  59 B1g  1339. -0.9737    94.8   100.4  60 B1g  1359.
  60 B2u  1358. -0.3536    12.5    99.6  57 B2u  1271.
                -0.9205    84.7          59 B2u  1339.
  61 B3u  1453.  0.9353    87.5    99.7  61 B3u  1403.
                -0.3449    11.9          65 B3u  1502.
  62 B2u  1478.  0.9509    90.4    99.3  62 B2u  1438.
  63 Ag   1494.  0.9161    83.9    99.4  64 Ag   1482.
  64 B1g  1498.  0.8591    73.8    99.3  63 B1g  1455.
                 0.4841    23.4          67 B1g  1535.
  65 B2u  1600.  0.5942    35.3   100.2  66 B2u  1527.
                -0.7741    59.9          70 B2u  1595.
  66 Ag   1618. -0.5587    31.2    99.2  68 Ag   1564.
                -0.8199    67.2          71 Ag   1600.
  67 B3u  1621.  0.6538    42.7    99.4  65 B3u  1502.
                 0.7219    52.1          72 B3u  1606.
  68 B1g  1631.  0.9471    89.7   100.9  69 B1g  1579.
  69 B2u  1754. -0.7554    57.1   100.2  66 B2u  1527.
                -0.6224    38.7          70 B2u  1595.
  70 Ag   1760. -0.7840    61.5   100.1  68 Ag   1564.
                 0.5412    29.3          71 Ag   1600.
  71 B1g  1780. -0.4261    18.2   100.4  63 B1g  1455.
                 0.8361    69.9          67 B1g  1535.
  72 B3u  1784. -0.6688    44.7   100.3  65 B3u  1502.
                 0.6887    47.4          72 B3u  1606.
  73 B3u  3184.  0.9247    85.5   100.0  73 B3u  3091.
                -0.3806    14.5          77 B3u  3170.
  74 Ag   3184.  0.9250    85.6   100.0  74 Ag   3092.
                 0.3799    14.4          78 Ag   3170.
  75 B1g  3198.  1.0000   100.0   100.0  75 B1g  3167.
  76 B2u  3199.  1.0000   100.0   100.0  76 B2u  3167.
  77 B3u  3204.  0.3806    14.5   100.0  73 B3u  3091.
                 0.9247    85.5          77 B3u  3170.
  78 Ag   3204.  0.3799    14.4   100.0  74 Ag   3092.
                -0.9250    85.6          78 Ag   3170.
 nber times 1st assigned=           1           0
 nber times 1st assigned=           2           0
 nber times 1st assigned=           3           0
 nber times 1st assigned=           4           0
 nber times 1st assigned=           5           0
 nber times 1st assigned=           6           0
 nber times 1st assigned=           7           0
 nber times 1st assigned=           8           0
 nber times 1st assigned=           9           0
 nber times 1st assigned=          10           0
 nber times 1st assigned=          11           0
 nber times 1st assigned=          12           0
 nber times 1st assigned=          13           0
 nber times 1st assigned=          14           0
 nber times 1st assigned=          15           0
 nber times 1st assigned=          16           0
 nber times 1st assigned=          17           0
 nber times 1st assigned=          18           0
 nber times 1st assigned=          19           0
 nber times 1st assigned=          20           0
 nber times 1st assigned=          21           0
 nber times 1st assigned=          22           0
 nber times 1st assigned=          23           0
 nber times 1st assigned=          24           0
 nber times 1st assigned=          25           0
 nber times 1st assigned=          26           0
 nber times 1st assigned=          27           0
 nber times 1st assigned=          28           0
 nber times 1st assigned=          29           0
 nber times 1st assigned=          30           0
 nber times 1st assigned=          31           0
 nber times 1st assigned=          32           0
 nber times 1st assigned=          33           0
 nber times 1st assigned=          34           0
 nber times 1st assigned=          35           0
 nber times 1st assigned=          36           0
 nber times 1st assigned=          37           0
 nber times 1st assigned=          38           0
 nber times 1st assigned=          39           0
 nber times 1st assigned=          40           0
 nber times 1st assigned=          41           0
 nber times 1st assigned=          42           0
 nber times 1st assigned=          43           0
 nber times 1st assigned=          44           0
 nber times 1st assigned=          45           0
 nber times 1st assigned=          46           0
 nber times 1st assigned=          47           0
 nber times 1st assigned=          48           0
 nber times 1st assigned=          49           0
 nber times 1st assigned=          50           0
 nber times 1st assigned=          51           0
 nber times 1st assigned=          52           0
 nber times 1st assigned=          53           0
 nber times 1st assigned=          54           0
 nber times 1st assigned=          55           0
 nber times 1st assigned=          56           0
 nber times 1st assigned=          57           0
 nber times 1st assigned=          58           0
 nber times 1st assigned=          59           0
 nber times 1st assigned=          60           0
 nber times 1st assigned=          61           0
 nber times 1st assigned=          62           0
 nber times 1st assigned=          63           0
 nber times 1st assigned=          64           0
 nber times 1st assigned=          65           0
 nber times 1st assigned=          66           0
 nber times 1st assigned=          67           0
 nber times 1st assigned=          68           0
 nber times 1st assigned=          69           0
 nber times 1st assigned=          70           0
 nber times 1st assigned=          71           0
 nber times 1st assigned=          72           0
 nber times 1st assigned=          73           0
 nber times 1st assigned=          74           0
 nber times 1st assigned=          75           0
 nber times 1st assigned=          76           0
 nber times 1st assigned=          77           0
 nber times 1st assigned=          78           0
 modes represented=   71.6466692912908     
 p1=
   -0.    0.    0.    0.    0.   -0.   -0.   -0.   -0.   -0.    0.   -0.    0.    0.   -0.    0.   24.    0.   -0.    0.
   -3.   -0.    4.    0.   -0.    0.   -0.    0.    0.    0.    0.    0.    0.   -0.   -1.   -0.   -0.    0.   -0.    0.
    0.   -0.   -0.   -7.   -0.    0.    0.   -0.    0.   -0.   -0.    0.    0.   -0.   -0.   -1.    0.    0.   -0.   -0.
    0.   -0.    2.    0.   -0.    2.   -0.    0.    0.   10.    0.   -0.    0.   -0.    0.    0.   -0.   -0.
 p2=
   -0.    0.    0.    0.    0.    0.    0.    0.   -0.    0.   -0.    0.    0.   -0.    0.   -0.   24.   -0.   -0.    0.
   -0.    0.   -5.   -0.    0.   -0.   -0.    0.   -0.   -0.    0.   -0.   -0.    0.    0.    0.   -0.   -0.   -1.    0.
    0.    0.    0.   -0.   -0.    0.    5.    0.    0.   -0.   -2.   -0.    0.   -0.    0.   -0.    0.    1.   -0.    0.
    0.    0.   -0.    0.   -0.    0.   -0.   10.    0.    0.   -4.   -0.    0.    0.   -0.   -0.   -0.   -0.

 Displacement: in terms of nc of 1 THEN of nc of 2

   1 B2u freq=    -0. Q= -0.000 lam=    -0.0 B3u freq=    -0. Q= -0.000 lam=    -0.0
   2 B1g freq=    -0. Q=  0.000 lam=    -0.0 B2u freq=    -0. Q=  0.000 lam=    -0.0
   3 B1u freq=    -0. Q=  0.000 lam=    -0.0 B1u freq=    -0. Q=  0.000 lam=    -0.0
   4 B3g freq=     0. Q=  0.000 lam=     0.0 B3g freq=    -0. Q=  0.000 lam=    -0.0
   5 B2g freq=     0. Q=  0.000 lam=     0.0 B2g freq=     0. Q=  0.000 lam=     0.0
   6 B3u freq=     0. Q= -0.000 lam=     0.0 B1g freq=     0. Q= -0.000 lam=     0.0
   7 Au  freq=    35. Q= -0.000 lam=     0.0 Au  freq=    63. Q= -0.000 lam=     0.0
   8 B2g freq=    56. Q= -0.000 lam=     0.0 B1u freq=    67. Q= -0.000 lam=     0.0
   9 B1u freq=    58. Q= -0.000 lam=     0.0 B2g freq=    87. Q= -0.000 lam=     0.0
  10 B1u freq=   141. Q= -0.000 lam=     0.0 B1u freq=   142. Q= -0.000 lam=     0.0
  11 B3g freq=   170. Q=  0.000 lam=     0.0 B3g freq=   187. Q=  0.000 lam=     0.0
  12 Au  freq=   178. Q= -0.000 lam=     0.0 Au  freq=   206. Q= -0.000 lam=     0.0
  13 B2g freq=   281. Q=  0.000 lam=     0.0 B3u freq=   291. Q=  0.000 lam=     0.0
  14 B3u freq=   293. Q=  0.000 lam=     0.0 B2g freq=   301. Q=  0.000 lam=     0.0
  15 B2u freq=   320. Q= -0.000 lam=     0.0 B2u freq=   332. Q= -0.000 lam=     0.0
  16 B1g freq=   336. Q=  0.000 lam=     0.0 B1g freq=   340. Q=  0.000 lam=     0.0
  17 Ag  freq=   347. Q=  1.815 lam=   571.8 Ag  freq=   353. Q=  1.830 lam=   590.1
  18 B3g freq=   370. Q=  0.000 lam=     0.0 Ag  freq=   375. Q=  0.008 lam=     0.0
  19 B1g freq=   371. Q= -0.000 lam=     0.0 B3g freq=   377. Q= -0.000 lam=     0.0
  20 B2u freq=   376. Q=  0.000 lam=     0.0 B1g freq=   380. Q=  0.000 lam=     0.0
  21 Ag  freq=   379. Q= -0.263 lam=    13.1 B2u freq=   384. Q= -0.000 lam=     0.0
  22 B1u freq=   443. Q= -0.000 lam=     0.0 B1u freq=   445. Q= -0.000 lam=     0.0
  23 Ag  freq=   450. Q=  0.381 lam=    32.7 Ag  freq=   471. Q=  0.429 lam=    43.4
  24 Au  freq=   474. Q=  0.000 lam=     0.0 Au  freq=   509. Q=  0.000 lam=     0.0
  25 B2u freq=   507. Q= -0.000 lam=     0.0 B2u freq=   513. Q= -0.000 lam=     0.0
  26 B1u freq=   507. Q=  0.000 lam=     0.0 B1u freq=   520. Q=  0.000 lam=     0.0
  27 B3u freq=   529. Q= -0.000 lam=     0.0 B3u freq=   528. Q= -0.000 lam=     0.0
  28 B2g freq=   565. Q=  0.000 lam=     0.0 B2g freq=   568. Q=  0.000 lam=     0.0
  29 B3g freq=   614. Q=  0.000 lam=     0.0 B3g freq=   643. Q=  0.000 lam=     0.0
  30 B1g freq=   646. Q=  0.000 lam=     0.0 B1g freq=   643. Q=  0.000 lam=     0.0
  31 B3u freq=   661. Q=  0.000 lam=     0.0 B3u freq=   659. Q=  0.000 lam=     0.0
  32 B2g freq=   742. Q=  0.000 lam=     0.0 B2g freq=   712. Q=  0.000 lam=     0.0
  33 B1u freq=   744. Q=  0.000 lam=     0.0 B1u freq=   723. Q=  0.000 lam=     0.0
  34 B1g freq=   763. Q= -0.000 lam=     0.0 B2g freq=   737. Q= -0.000 lam=     0.0
  35 Ag  freq=   796. Q= -0.129 lam=     6.7 B1g freq=   754. Q= -0.000 lam=     0.0
  36 B2g freq=   798. Q= -0.000 lam=     0.0 Au  freq=   769. Q= -0.000 lam=     0.0
  37 B2u freq=   828. Q= -0.000 lam=     0.0 B2g freq=   798. Q= -0.000 lam=     0.0
  38 B1u freq=   839. Q=  0.000 lam=     0.0 B1u freq=   802. Q=  0.000 lam=     0.0
  39 Au  freq=   847. Q= -0.000 lam=     0.0 Ag  freq=   807. Q= -0.082 lam=     2.7
  40 B2g freq=   889. Q=  0.000 lam=     0.0 B2u freq=   829. Q=  0.000 lam=     0.0
  41 B3u freq=   921. Q=  0.000 lam=     0.0 Au  freq=   912. Q=  0.000 lam=     0.0
  42 B3g freq=   994. Q= -0.000 lam=     0.0 B3g freq=   912. Q= -0.000 lam=     0.0
  43 Au  freq=   999. Q= -0.000 lam=     0.0 B3u freq=   918. Q= -0.000 lam=     0.0
  44 Ag  freq=  1018. Q= -0.854 lam=   371.4 B1u freq=   947. Q= -0.000 lam=     0.0
  45 B3u freq=  1021. Q= -0.000 lam=     0.0 B2g freq=   950. Q= -0.000 lam=     0.0
  46 B1u freq=  1030. Q=  0.000 lam=     0.0 B3u freq=  1006. Q=  0.000 lam=     0.0
  47 B2g freq=  1031. Q=  0.000 lam=     0.0 Ag  freq=  1048. Q=  0.716 lam=   268.7
  48 B1g freq=  1052. Q= -0.000 lam=     0.0 B1g freq=  1057. Q= -0.000 lam=     0.0
  49 B2u freq=  1060. Q=  0.000 lam=     0.0 B3u freq=  1082. Q=  0.000 lam=     0.0
  50 Ag  freq=  1105. Q= -0.045 lam=     1.1 B2u freq=  1086. Q= -0.000 lam=     0.0
  51 B3u freq=  1119. Q= -0.000 lam=     0.0 Ag  freq=  1089. Q= -0.264 lam=    37.8
  52 B1g freq=  1191. Q=  0.000 lam=     0.0 B2u freq=  1153. Q=  0.000 lam=     0.0
  53 B2u freq=  1192. Q=  0.000 lam=     0.0 B1g freq=  1165. Q=  0.000 lam=     0.0
  54 B1g freq=  1268. Q= -0.000 lam=     0.0 B1g freq=  1243. Q= -0.000 lam=     0.0
  55 B3u freq=  1278. Q= -0.000 lam=     0.0 Ag  freq=  1253. Q= -0.038 lam=     0.9
  56 Ag  freq=  1282. Q= -0.185 lam=    22.0 B3u freq=  1258. Q= -0.000 lam=     0.0
  57 B2u freq=  1289. Q=  0.000 lam=     0.0 B2u freq=  1271. Q=  0.000 lam=     0.0
  58 Ag  freq=  1307. Q=  0.047 lam=     1.4 Ag  freq=  1303. Q=  0.209 lam=    28.6
  59 B1g freq=  1339. Q= -0.000 lam=     0.0 B2u freq=  1339. Q= -0.000 lam=     0.0
  60 B2u freq=  1358. Q= -0.000 lam=     0.0 B1g freq=  1359. Q= -0.000 lam=     0.0
  61 B3u freq=  1453. Q=  0.000 lam=     0.0 B3u freq=  1403. Q=  0.000 lam=     0.0
  62 B2u freq=  1478. Q= -0.000 lam=     0.0 B2u freq=  1438. Q= -0.000 lam=     0.0
  63 Ag  freq=  1494. Q=  0.356 lam=    94.9 B1g freq=  1455. Q=  0.000 lam=     0.0
  64 B1g freq=  1498. Q=  0.000 lam=     0.0 Ag  freq=  1482. Q=  0.016 lam=     0.2
  65 B2u freq=  1600. Q= -0.000 lam=     0.0 B3u freq=  1502. Q= -0.000 lam=     0.0
  66 Ag  freq=  1618. Q=  0.335 lam=    90.9 B2u freq=  1527. Q=  0.000 lam=     0.0
  67 B3u freq=  1621. Q= -0.000 lam=     0.0 B1g freq=  1535. Q= -0.000 lam=     0.0
  68 B1g freq=  1631. Q=  0.000 lam=     0.0 Ag  freq=  1564. Q=  1.634 lam=  2087.9
  69 B2u freq=  1754. Q=  0.000 lam=     0.0 B1g freq=  1579. Q=  0.000 lam=     0.0
  70 Ag  freq=  1760. Q=  1.734 lam=  2645.4 B2u freq=  1595. Q=  0.000 lam=     0.0
  71 B1g freq=  1780. Q=  0.000 lam=     0.0 Ag  freq=  1600. Q=  0.725 lam=   420.6
  72 B3u freq=  1784. Q= -0.000 lam=     0.0 B3u freq=  1606. Q= -0.000 lam=     0.0
  73 B3u freq=  3184. Q=  0.000 lam=     0.0 B3u freq=  3091. Q=  0.000 lam=     0.0
  74 Ag  freq=  3184. Q= -0.059 lam=     5.5 Ag  freq=  3092. Q= -0.081 lam=    10.0
  75 B1g freq=  3198. Q=  0.000 lam=     0.0 B1g freq=  3167. Q=  0.000 lam=     0.0
  76 B2u freq=  3199. Q=  0.000 lam=     0.0 B2u freq=  3167. Q=  0.000 lam=     0.0
  77 B3u freq=  3204. Q= -0.000 lam=     0.0 B3u freq=  3170. Q= -0.000 lam=     0.0
  78 Ag  freq=  3204. Q= -0.069 lam=     7.5 Ag  freq=  3170. Q= -0.042 lam=     2.8

 total reorg energy (cm**-1, kcal/mol)=     3864.     3494.     11.05      9.99
 Nber of molecules processed=           2
