 Enter ifcurve (0=recti, 1=orth curvi, 2=apprx curvi, -1 = skip
 And atom ordering flag, 0= never changes, 1= use the first order thenceforth,
  2= deduce it (does read on fail), 3= always read it
 Reading file: 
 ./IDT-A_4_C0S1.log                                                             
                                          
  Entering Gaussian System, Link 0=g16                                          
  
 Gaussian format, type: g94, g98, g03= F F F
  #P Geom=AllCheck Guess=TCheck SCRF=Check GenChk RB3LYP TD(FC,Read)/6-3    
 energy type= TD      
 Original G94 input coords:
  6  0.614883  1.040408 -0.653780
  6  1.753886  0.153668 -0.137105
  6  2.876033 -0.045425 -1.162698
  7  2.276468  0.626297  1.175410
  6  2.107125 -0.243618  2.277288
  8  1.554069 -1.330048  2.138895
  6  2.620236  0.217345  3.569975
  6  2.480353 -0.601596  4.693763
  6  2.952843 -0.198180  5.926545
  6  3.593742  1.049334  6.108382
  6  4.093715  1.482986  7.395060
  6  3.974001  0.684359  8.558254
  6  4.454044  1.104794  9.777746
  6  5.083470  2.350000  9.914207
  6  5.579626  2.747435 11.221103
  8  5.491505  2.065748 12.234225
  7  6.200817  4.033875 11.288211
  6  6.695000  4.462538 12.558967
  6  6.287634  5.688057 13.094427
  6  6.767034  6.108205 14.323652
  6  7.664894  5.303819 15.048326
  6  8.156568  5.730156 16.306922
  6  8.578440  6.096213 17.385388
  6  9.068121  6.521561 18.633893
  6  8.682982  7.768673 19.179741
  6  9.164724  8.185086 20.400927
  6 10.057449  7.381839 21.149827
  6 10.555694  7.829933 22.425374
  6 10.356838  9.071510 23.048629
  6 10.987984  9.166500 24.282117
  6 11.685193  8.004562 24.637809
 16 11.558916  6.771952 23.433741
  6 12.313555  8.147761 25.903079
  6 13.108972  7.260337 26.659356
  6 13.583176  7.696082 27.872859
  6 13.272085  9.012864 28.342541
  6 12.479616  9.898591 27.590185
  6 12.003119  9.463678 26.373746
  6 11.127916 10.220067 25.366499
  6 11.841161 11.483347 24.835934
  6  9.756780 10.588473 25.974855
  6 13.907195  9.155492 29.617415
 16 14.038641 10.387777 30.829360
  6 15.023421  9.330914 31.798222
  6 15.236222  8.102396 31.219024
  6 14.594558  8.002717 29.966152
  6 14.458850  6.945907 28.884571
  6 13.748421  5.681588 29.416683
  6 15.831392  6.578232 28.278651
  6 10.437105  6.135643 20.600478
  6  9.959526  5.714695 19.379086
  6  8.068320  4.070689 14.505233
  6  7.588734  3.658994 13.273192
  6  6.365725  4.924393 10.181403
  8  6.914021  6.005578 10.352533
  6  5.858020  4.450453  8.904789
  6  5.995182  5.268522  7.774673
  6  5.524331  4.863366  6.546446
  6  4.884339  3.612692  6.369678
  6  4.385040  3.178254  5.082814
  6  4.503162  3.971366  3.918050
  6  4.022625  3.546228  2.695534
  6  3.396100  2.304243  2.565211
  6  2.897929  1.884865  1.251337
  8  3.009792  2.588123  0.250751
  6  3.252937  1.473664  3.698322
  6  3.748177  1.904146  4.974324
  6  4.731428  2.758340  7.506335
  6  5.228050  3.189501  8.784747
  1  0.170792  0.577277 -1.540302
  1  0.972742  2.034823 -0.917258
  1 -0.168923  1.135238  0.102541
  1  1.338189 -0.823336  0.100469
  1  3.328399  0.903738 -1.446982
  1  2.466481 -0.524714 -2.057221
  1  3.652282 -0.700213 -0.757662
  1  1.991660 -1.559591  4.569070
  1  2.822415 -0.864469  6.767669
  1  3.495401 -0.282759  8.499551
  1  4.356602  0.483445 10.659046
  1  5.606761  6.311610 12.534306
  1  6.450330  7.059074 14.734316
  1  7.998431  8.394929 18.622625
  1  8.839457  9.141830 20.788536
  1  9.778487  9.861637 22.592461
  1 13.332978  6.267698 26.285399
  1 12.256282 10.891175 27.964296
  1 12.812501 11.238556 24.401833
  1 11.996992 12.201957 25.643873
  1 11.234020 11.969102 24.068375
  1  9.239608  9.704716 26.353524
  1  9.121807 11.062817 25.222823
  1  9.881906 11.293414 26.799999
  1 15.390137  9.686154 32.749374
  1 15.826633  7.327781 31.688716
  1 12.773762  5.924788 29.844302
  1 14.353554  5.204638 30.191372
  1 13.600930  4.955684 28.613361
  1 16.344406  7.461787 27.893792
  1 15.712122  5.864789 27.459624
  1 16.468036  6.114511 29.035925
  1 11.124556  5.493202 21.138745
  1 10.265046  4.758749 18.974360
  1  8.759739  3.444823 15.055987
  1  7.891293  2.707299 12.862234
  1  6.481848  6.228062  7.895874
  1  5.652130  5.526023  5.702428
  1  4.980863  4.939552  3.971699
  1  4.119639  4.163308  1.811204
 nber atoms=         109
  Total Energy, E(TD-HF/TD-DFT) =  -3556.12734851                               
  
          32          49 "  -3556.12734851"
After scan for Atom:   Atom  AN      X      Y      Z        X      Y      Z        X      Y      Z   
After scan for Atom:   Atom  AN      X      Y      Z        X      Y      Z        X      Y      Z   
After scan for Atom:   Atom  AN      X      Y      Z        X      Y      Z        X      Y      Z   
After scan for Atom:   Atom  AN      X      Y      Z        X      Y      Z        X      Y      Z   
After scan for Atom:   Atom  AN      X      Y      Z        X      Y      Z        X      Y      Z   
After scan for Atom:   Atom  AN      X      Y      Z        X      Y      Z        X      Y      Z   
After scan for Atom:   Atom  AN      X      Y      Z        X      Y      Z        X      Y      Z   
After scan for Atom:   Atom  AN      X      Y      Z        X      Y      Z        X      Y      Z   
After scan for Atom:   Atom  AN      X      Y      Z        X      Y      Z        X      Y      Z   
After scan for Atom:   Atom  AN      X      Y      Z        X      Y      Z        X      Y      Z   
After scan for Atom:   Atom  AN      X      Y      Z        X      Y      Z        X      Y      Z   
After scan for Atom:   Atom  AN      X      Y      Z        X      Y      Z        X      Y      Z   
After scan for Atom:   Atom  AN      X      Y      Z        X      Y      Z        X      Y      Z   
After scan for Atom:   Atom  AN      X      Y      Z        X      Y      Z        X      Y      Z   
After scan for Atom:   Atom  AN      X      Y      Z        X      Y      Z        X      Y      Z   
After scan for Atom:   Atom  AN      X      Y      Z        X      Y      Z        X      Y      Z   
After scan for Atom:   Atom  AN      X      Y      Z        X      Y      Z        X      Y      Z   
After scan for Atom:   Atom  AN      X      Y      Z        X      Y      Z        X      Y      Z   
After scan for Atom:   Atom  AN      X      Y      Z        X      Y      Z        X      Y      Z   
After scan for Atom:   Atom  AN      X      Y      Z        X      Y      Z        X      Y      Z   
After scan for Atom:   Atom  AN      X      Y      Z        X      Y      Z        X      Y      Z   
After scan for Atom:   Atom  AN      X      Y      Z        X      Y      Z        X      Y      Z   
After scan for Atom:   Atom  AN      X      Y      Z        X      Y      Z        X      Y      Z   
After scan for Atom:   Atom  AN      X      Y      Z        X      Y      Z        X      Y      Z   
After scan for Atom:   Atom  AN      X      Y      Z        X      Y      Z        X      Y      Z   
After scan for Atom:   Atom  AN      X      Y      Z        X      Y      Z        X      Y      Z   
After scan for Atom:   Atom  AN      X      Y      Z        X      Y      Z        X      Y      Z   
After scan for Atom:   Atom  AN      X      Y      Z        X      Y      Z        X      Y      Z   
After scan for Atom:   Atom  AN      X      Y      Z        X      Y      Z        X      Y      Z   
After scan for Atom:   Atom  AN      X      Y      Z        X      Y      Z        X      Y      Z   
After scan for Atom:   Atom  AN      X      Y      Z        X      Y      Z        X      Y      Z   
After scan for Atom:   Atom  AN      X      Y      Z        X      Y      Z        X      Y      Z   
After scan for Atom:   Atom  AN      X      Y      Z        X      Y      Z        X      Y      Z   
After scan for Atom:   Atom  AN      X      Y      Z        X      Y      Z        X      Y      Z   
After scan for Atom:   Atom  AN      X      Y      Z        X      Y      Z        X      Y      Z   
After scan for Atom:   Atom  AN      X      Y      Z        X      Y      Z        X      Y      Z   
After scan for Atom:   Atom  AN      X      Y      Z        X      Y      Z        X      Y      Z   
After scan for Atom:   Atom  AN      X      Y      Z        X      Y      Z        X      Y      Z   
After scan for Atom:   Atom  AN      X      Y      Z        X      Y      Z        X      Y      Z   
After scan for Atom:   Atom  AN      X      Y      Z        X      Y      Z        X      Y      Z   
After scan for Atom:   Atom  AN      X      Y      Z        X      Y      Z        X      Y      Z   
After scan for Atom:   Atom  AN      X      Y      Z        X      Y      Z        X      Y      Z   
After scan for Atom:   Atom  AN      X      Y      Z        X      Y      Z        X      Y      Z   
After scan for Atom:   Atom  AN      X      Y      Z        X      Y      Z        X      Y      Z   
After scan for Atom:   Atom  AN      X      Y      Z        X      Y      Z        X      Y      Z   
After scan for Atom:   Atom  AN      X      Y      Z        X      Y      Z        X      Y      Z   
After scan for Atom:   Atom  AN      X      Y      Z        X      Y      Z        X      Y      Z   
After scan for Atom:   Atom  AN      X      Y      Z        X      Y      Z        X      Y      Z   
After scan for Atom:   Atom  AN      X      Y      Z        X      Y      Z        X      Y      Z   
After scan for Atom:   Atom  AN      X      Y      Z        X      Y      Z        X      Y      Z   
After scan for Atom:   Atom  AN      X      Y      Z        X      Y      Z        X      Y      Z   
After scan for Atom:   Atom  AN      X      Y      Z        X      Y      Z        X      Y      Z   
After scan for Atom:   Atom  AN      X      Y      Z        X      Y      Z        X      Y      Z   
After scan for Atom:   Atom  AN      X      Y      Z        X      Y      Z        X      Y      Z   
After scan for Atom:   Atom  AN      X      Y      Z        X      Y      Z        X      Y      Z   
After scan for Atom:   Atom  AN      X      Y      Z        X      Y      Z        X      Y      Z   
After scan for Atom:   Atom  AN      X      Y      Z        X      Y      Z        X      Y      Z   
After scan for Atom:   Atom  AN      X      Y      Z        X      Y      Z        X      Y      Z   
After scan for Atom:   Atom  AN      X      Y      Z        X      Y      Z        X      Y      Z   
After scan for Atom:   Atom  AN      X      Y      Z        X      Y      Z        X      Y      Z   
After scan for Atom:   Atom  AN      X      Y      Z        X      Y      Z        X      Y      Z   
After scan for Atom:   Atom  AN      X      Y      Z        X      Y      Z        X      Y      Z   
After scan for Atom:   Atom  AN      X      Y      Z        X      Y      Z        X      Y      Z   
After scan for Atom:   Atom  AN      X      Y      Z        X      Y      Z        X      Y      Z   
After scan for Atom:   Atom  AN      X      Y      Z        X      Y      Z        X      Y      Z   
After scan for Atom:   Atom  AN      X      Y      Z        X      Y      Z        X      Y      Z   
After scan for Atom:   Atom  AN      X      Y      Z        X      Y      Z        X      Y      Z   
After scan for Atom:   Atom  AN      X      Y      Z        X      Y      Z        X      Y      Z   
After scan for Atom:   Atom  AN      X      Y      Z        X      Y      Z        X      Y      Z   
After scan for Atom:   Atom  AN      X      Y      Z        X      Y      Z        X      Y      Z   
After scan for Atom:   Atom  AN      X      Y      Z        X      Y      Z        X      Y      Z   
After scan for Atom:   Atom  AN      X      Y      Z        X      Y      Z        X      Y      Z   
After scan for Atom:   Atom  AN      X      Y      Z        X      Y      Z        X      Y      Z   
After scan for Atom:   Atom  AN      X      Y      Z        X      Y      Z        X      Y      Z   
After scan for Atom:   Atom  AN      X      Y      Z        X      Y      Z        X      Y      Z   
After scan for Atom:   Atom  AN      X      Y      Z        X      Y      Z        X      Y      Z   
After scan for Atom:   Atom  AN      X      Y      Z        X      Y      Z        X      Y      Z   
After scan for Atom:   Atom  AN      X      Y      Z        X      Y      Z        X      Y      Z   
After scan for Atom:   Atom  AN      X      Y      Z        X      Y      Z        X      Y      Z   
After scan for Atom:   Atom  AN      X      Y      Z        X      Y      Z        X      Y      Z   
After scan for Atom:   Atom  AN      X      Y      Z        X      Y      Z        X      Y      Z   
After scan for Atom:   Atom  AN      X      Y      Z        X      Y      Z        X      Y      Z   
After scan for Atom:   Atom  AN      X      Y      Z        X      Y      Z        X      Y      Z   
After scan for Atom:   Atom  AN      X      Y      Z        X      Y      Z        X      Y      Z   
After scan for Atom:   Atom  AN      X      Y      Z        X      Y      Z        X      Y      Z   
After scan for Atom:   Atom  AN      X      Y      Z        X      Y      Z        X      Y      Z   
After scan for Atom:   Atom  AN      X      Y      Z        X      Y      Z        X      Y      Z   
After scan for Atom:   Atom  AN      X      Y      Z        X      Y      Z        X      Y      Z   
After scan for Atom:   Atom  AN      X      Y      Z        X      Y      Z        X      Y      Z   
After scan for Atom:   Atom  AN      X      Y      Z        X      Y      Z        X      Y      Z   
After scan for Atom:   Atom  AN      X      Y      Z        X      Y      Z        X      Y      Z   
After scan for Atom:   Atom  AN      X      Y      Z        X      Y      Z        X      Y      Z   
After scan for Atom:   Atom  AN      X      Y      Z        X      Y      Z        X      Y      Z   
After scan for Atom:   Atom  AN      X      Y      Z        X      Y      Z        X      Y      Z   
After scan for Atom:   Atom  AN      X      Y      Z        X      Y      Z        X      Y      Z   
After scan for Atom:   Atom  AN      X      Y      Z        X      Y      Z        X      Y      Z   
After scan for Atom:   Atom  AN      X      Y      Z        X      Y      Z        X      Y      Z   
After scan for Atom:   Atom  AN      X      Y      Z        X      Y      Z        X      Y      Z   
After scan for Atom:   Atom  AN      X      Y      Z        X      Y      Z        X      Y      Z   
After scan for Atom:   Atom  AN      X      Y      Z        X      Y      Z        X      Y      Z   
After scan for Atom:   Atom  AN      X      Y      Z        X      Y      Z        X      Y      Z   
After scan for Atom:   Atom  AN      X      Y      Z        X      Y      Z        X      Y      Z   
After scan for Atom:   Atom  AN      X      Y      Z        X      Y      Z        X      Y      Z   
After scan for Atom:   Atom  AN      X      Y      Z        X      Y      Z        X      Y      Z   
After scan for Atom:   Atom  AN      X      Y      Z        X      Y      Z        X      Y      Z   
After scan for Atom:   Atom  AN      X      Y      Z        X      Y      Z        X      Y      Z   
After scan for Atom:   Atom  AN      X      Y      Z        X      Y      Z        X      Y      Z   
 g94    frequencies=
     0.0    0.0    0.0    0.0    0.0    0.0    4.1    4.9    6.3   12.1
    17.8   22.4   28.6   29.7   31.6   46.1   51.1   55.4   60.2   62.1
    65.5   69.7   82.4   85.7   93.5   95.6  100.4  105.3  108.2  119.5
   136.7  143.9  151.2  156.3  164.3  167.7  170.6  190.9  196.8  198.6
   207.4  210.1  217.0  220.2  230.3  235.2  235.6  237.1  245.0  246.2
   249.8  264.6  273.1  275.2  282.1  291.6  294.5  300.5  308.5  313.3
   316.4  341.6  344.2  357.6  366.4  374.8  377.9  393.8  397.5  400.3
   409.7  413.1  418.3  420.5  425.1  433.9  435.9  443.1  445.7  452.1
   454.4  468.6  473.8  474.5  485.8  492.7  497.2  501.5  505.1  509.9
   510.4  515.2  517.5  531.5  541.5  552.1  571.4  572.8  575.0  579.5
   579.7  583.1  590.8  592.8  620.4  624.3  625.8  636.5  645.0  655.9
   660.2  665.5  666.5  675.4  686.5  694.2  706.8  713.9  721.6  723.3
   725.9  731.2  737.2  740.9  742.0  748.4  756.4  756.6  758.0  768.9
   785.0  785.2  797.8  802.8  808.5  810.8  813.1  819.8  822.2  825.0
   828.3  829.9  832.2  834.5  837.0  850.1  852.6  853.9  861.5  868.3
   875.2  901.1  902.1  904.0  904.9  909.6  931.1  942.5  944.6  952.7
   953.6  955.0  962.0  968.8  971.2  972.1  974.6  979.9  981.1  983.7
   983.9  984.4  987.8 1000.7 1003.3 1022.9 1032.4 1032.7 1036.8 1066.5
  1072.3 1081.6 1091.6 1099.8 1102.2 1109.0 1140.2 1141.9 1142.5 1147.0
  1153.5 1154.2 1154.9 1156.8 1164.6 1165.1 1174.2 1175.2 1186.7 1197.6
  1202.5 1205.0 1209.6 1219.5 1225.5 1231.9 1235.0 1238.5 1244.7 1245.3
  1254.6 1256.6 1271.8 1276.6 1288.1 1297.4 1306.2 1312.0 1315.0 1321.8
  1329.5 1336.2 1337.2 1342.6 1357.3 1363.2 1366.9 1369.4 1372.1 1377.0
  1384.1 1391.4 1392.4 1393.5 1397.2 1403.3 1404.3 1408.9 1423.8 1424.9
  1428.4 1437.2 1442.2 1449.7 1453.7 1463.6 1469.7 1470.7 1474.3 1483.3
  1483.4 1485.1 1485.3 1489.7 1490.2 1492.2 1494.9 1497.9 1505.5 1506.2
  1507.4 1507.8 1513.6 1520.9 1524.1 1529.4 1532.1 1532.3 1546.8 1549.8
  1559.0 1561.6 1572.9 1577.9 1589.2 1592.6 1606.7 1611.8 1619.3 1627.3
  1636.9 1642.1 1675.0 1691.9 1710.4 1729.4 2247.2 3026.2 3031.2 3032.9
  3034.5 3036.2 3037.6 3083.5 3086.7 3099.5 3101.8 3104.3 3106.4 3106.9
  3110.2 3111.5 3111.9 3113.1 3130.8 3140.2 3174.9 3178.6 3179.9 3187.7
  3187.8 3188.0 3188.2 3191.6 3195.0 3195.3 3204.8 3205.1 3206.7 3208.5
  3213.5 3217.7 3217.9 3226.2 3229.4 3229.8 3245.8
 g94    symmetries=
                                                 A      A      A      A
       A      A      A      A      A      A      A      A      A      A
       A      A      A      A      A      A      A      A      A      A
       A      A      A      A      A      A      A      A      A      A
       A      A      A      A      A      A      A      A      A      A
       A      A      A      A      A      A      A      A      A      A
       A      A      A      A      A      A      A      A      A      A
       A      A      A      A      A      A      A      A      A      A
       A      A      A      A      A      A      A      A      A      A
       A      A      A      A      A      A      A      A      A      A
       A      A      A      A      A      A      A      A      A      A
       A      A      A      A      A      A      A      A      A      A
       A      A      A      A      A      A      A      A      A      A
       A      A      A      A      A      A      A      A      A      A
       A      A      A      A      A      A      A      A      A      A
       A      A      A      A      A      A      A      A      A      A
       A      A      A      A      A      A      A      A      A      A
       A      A      A      A      A      A      A      A      A      A
       A      A      A      A      A      A      A      A      A      A
       A      A      A      A      A      A      A      A      A      A
       A      A      A      A      A      A      A      A      A      A
       A      A      A      A      A      A      A      A      A      A
       A      A      A      A      A      A      A      A      A      A
       A      A      A      A      A      A      A      A      A      A
       A      A      A      A      A      A      A      A      A      A
       A      A      A      A      A      A      A      A      A      A
       A      A      A      A      A      A      A      A      A      A
       A      A      A      A      A      A      A      A      A      A
       A      A      A      A      A      A      A      A      A      A
       A      A      A      A      A      A      A      A      A      A
       A      A      A      A      A      A      A      A      A      A
       A      A      A      A      A      A      A      A      A      A
       A      A      A      A      A      A      A
 atomic masses:
 12.0000 12.0000 12.0000 14.0031 12.0000 15.9949 12.0000 12.0000 12.0000 12.0000
 12.0000 12.0000 12.0000 12.0000 12.0000 15.9949 14.0031 12.0000 12.0000 12.0000
 12.0000 12.0000 12.0000 12.0000 12.0000 12.0000 12.0000 12.0000 12.0000 12.0000
 12.0000 31.9721 12.0000 12.0000 12.0000 12.0000 12.0000 12.0000 12.0000 12.0000
 12.0000 12.0000 31.9721 12.0000 12.0000 12.0000 12.0000 12.0000 12.0000 12.0000
 12.0000 12.0000 12.0000 12.0000 15.9949 12.0000 12.0000 12.0000 12.0000 12.0000
 12.0000 12.0000 12.0000 12.0000 15.9949 12.0000 12.0000 12.0000 12.0000  1.0078
  1.0078  1.0078  1.0078  1.0078  1.0078  1.0078  1.0078  1.0078  1.0078  1.0078
  1.0078  1.0078  1.0078  1.0078  1.0078  1.0078  1.0078  1.0078  1.0078  1.0078
  1.0078  1.0078  1.0078  1.0078  1.0078  1.0078  1.0078  1.0078  1.0078  1.0078
  1.0078  1.0078  1.0078  1.0078  1.0078  1.0078  1.0078  1.0078  1.0078
 looking for force constants in 
 ./IDT-A_4_C0S1.fchk                                                            
  
 cant find forces in .fchk file
 NO FORCES: 
 ./IDT-A_4_C0S1.log                                                             
                                          
 g94-fc frequencies=

 at 99999: n3=           0
 symm operator            1 :  F  nop=           0
 symm operator            2 :  F  nop=           0
 symm operator            3 :  F  nop=           0
 symm operator            4 :  F  nop=           0
 symm operator            5 :  F  nop=           0
 symm operator            6 :  F  nop=           0
 symm operator            7 :  F  nop=           0
 The point group of the molecule is  C1
 Symmetry rotation matrix:
   1.00000   0.00000   0.00000
   0.00000   1.00000   0.00000
   0.00000   0.00000   1.00000

 highest evec of mol 1

 generating redundant internal coords
         300        3600         109
 Adding extra bonds for z output only
           6           6           6           7           6           8
           6           6           6           6           6           6
           6           6           6           8           7           6
           6           6           6           6           6           6
           6           6           6           6           6           6
           6          16           6           6           6           6
           6           6           6           6           6           6
          16           6           6           6           6           6
           6           6           6           6           6           6
           8           6           6           6           6           6
           6           6           6           6           8           6
           6           6           6           1           1           1
           1           1           1           1           1           1
           1           1           1           1           1           1
           1           1           1           1           1           1
           1           1           1           1           1           1
           1           1           1           1           1           1
           1           1           1           1           1           1
           1
 search for int coords
   1 str   2   1   1.533
   2 str   3   2   1.533
   3 str   4   2   1.490
   4 str   5   4   1.414
   5 str   6   5   1.227
   6 str   7   5   1.465
   7 str   8   7   1.398
   8 str   9   8   1.380
   9 str  10   9   1.414
  10 str  11  10   1.447
  11 str  12  11   1.416
  12 str  13  12   1.376
  13 str  14  13   1.402
  14 str  15  14   1.453
  15 str  16  15   1.224
  16 str  17  15   1.430
  17 str  18  17   1.429
  18 str  19  18   1.398
  19 str  20  19   1.385
  20 str  21  20   1.407
  21 str  22  21   1.417
  22 str  23  22   1.215
  23 str  24  23   1.407
  24 str  25  24   1.415
  25 str  26  25   1.377
  26 str  27  26   1.415
  27 str  28  27   1.441
  28 str  29  28   1.403
  29 str  30  29   1.389
  30 str  31  30   1.401
  31 str  32  28   1.773
  32 str  32  31   1.728
  33 str  33  31   1.420
  34 str  34  33   1.411
  35 str  35  34   1.374
  36 str  36  35   1.432
  37 str  37  36   1.407
  38 str  38  33   1.432
  39 str  38  37   1.377
  40 str  39  30   1.518
  41 str  39  38   1.534
  42 str  40  39   1.545
  43 str  41  39   1.545
  44 str  42  36   1.431
  45 str  43  42   1.733
  46 str  44  43   1.739
  47 str  45  44   1.375
  48 str  46  42   1.387
  49 str  46  45   1.411
  50 str  47  35   1.534
  51 str  47  46   1.518
  52 str  48  47   1.545
  53 str  49  47   1.545
  54 str  50  27   1.414
  55 str  51  24   1.415
  56 str  51  50   1.377
  57 str  52  21   1.407
  58 str  53  18   1.398
  59 str  53  52   1.385
  60 str  54  17   1.430
  61 str  55  54   1.224
  62 str  56  54   1.453
  63 str  57  56   1.402
  64 str  58  57   1.376
  65 str  59  58   1.416
  66 str  60  59   1.447
  67 str  61  60   1.414
  68 str  62  61   1.381
  69 str  63  62   1.397
  70 str  64   4   1.406
  71 str  64  63   1.466
  72 str  65  64   1.228
  73 str  66   7   1.412
  74 str  66  63   1.412
  75 str  67  10   1.429
  76 str  67  60   1.429
  77 str  67  66   1.435
  78 str  68  11   1.430
  79 str  68  59   1.430
  80 str  69  14   1.415
  81 str  69  56   1.415
  82 str  69  68   1.438
  83 str  70   1   1.094
  84 str  71   1   1.089
  85 str  72   1   1.093
  86 str  73   2   1.088
  87 str  74   3   1.089
  88 str  75   3   1.094
  89 str  76   3   1.093
  90 str  77   8   1.083
  91 str  78   9   1.081
  92 str  79  12   1.081
  93 str  80  13   1.083
  94 str  81  19   1.080
  95 str  82  20   1.083
  96 str  83  25   1.082
  97 str  84  26   1.082
  98 str  85  29   1.080
  99 str  86  34   1.084
 100 str  87  37   1.084
 101 str  88  40   1.092
 102 str  89  40   1.092
 103 str  90  40   1.093
 104 str  91  41   1.092
 105 str  92  41   1.093
 106 str  93  41   1.092
 107 str  94  44   1.080
 108 str  95  45   1.081
 109 str  96  48   1.092
 110 str  97  48   1.093
 111 str  98  48   1.093
 112 str  99  49   1.092
 113 str 100  49   1.093
 114 str 101  49   1.093
 115 str 102  50   1.084
 116 str 103  51   1.082
 117 str 104  52   1.083
 118 str 105  53   1.080
 119 str 106  57   1.083
 120 str 107  58   1.081
 121 str 108  61   1.081
 122 str 109  62   1.083
 nber stretches=         122
 123 ben   1   2   3
 124 prop tor   1   2   3  74
 125 prop tor   1   2   3  75
 126 prop tor   1   2   3  76
 127 ben   1   2   4
 128 prop tor   1   2   4   5
 129 prop tor   1   2   4  64
 130 ben   1   2  73
 131 ben   2   1  70
 132 ben   2   1  71
 133 ben   2   1  72
 134 ben   2   3  74
 135 ben   2   3  75
 136 ben   2   3  76
 137 ben   2   4   5
 138 prop tor   2   4   5   6
 139 prop tor   2   4   5   7
 140 ben   2   4  64
 141 prop tor   2   4  64  63
 142 prop tor   2   4  64  65
 143 ben   3   2   4
 144 prop tor   3   2   4   5
 145 prop tor   3   2   4  64
 146 ben   3   2  73
 147 prop tor   4   2   3  74
 148 prop tor   4   2   3  75
 149 prop tor   4   2   3  76
 150 ben   4   2  73
 151 ben   4   5   6
 152 ben   4   5   7
 153 prop tor   4   5   7   8
 154 prop tor   4   5   7  66
 155 ben   4  64  63
 156 ben   4  64  65
 157 ben   5   4  64
 158 prop tor   5   4  64  63
 159 prop tor   5   4  64  65
 160 ben   5   7   8
 161 prop tor   5   7   8   9
 162 prop tor   5   7   8  77
 163 ben   5   7  66
 164 prop tor   5   7  66  63
 165 prop tor   5   7  66  67
 166 ben   6   5   7
 167 prop tor   6   5   7   8
 168 prop tor   6   5   7  66
 169 ben   7   8   9
 170 prop tor   7   8   9  10
 171 prop tor   7   8   9  78
 172 ben   7   8  77
 173 ben   7  66  63
 174 ben   7  66  67
 175 prop tor   7  66  67  10
 176 prop tor   7  66  67  60
 177 ben   8   7  66
 178 prop tor   8   7  66  63
 179 prop tor   8   7  66  67
 180 ben   8   9  10
 181 prop tor   8   9  10  11
 182 prop tor   8   9  10  67
 183 ben   8   9  78
 184 ben   9   8  77
 185 ben   9  10  11
 186 prop tor   9  10  11  12
 187 prop tor   9  10  11  68
 188 ben   9  10  67
 189 prop tor   9  10  67  60
 190 prop tor   9  10  67  66
 191 ben  10   9  78
 192 ben  10  11  12
 193 prop tor  10  11  12  13
 194 prop tor  10  11  12  79
 195 ben  10  11  68
 196 prop tor  10  11  68  59
 197 prop tor  10  11  68  69
 198 ben  10  67  60
 199 ben  10  67  66
 200 ben  11  10  67
 201 prop tor  11  10  67  60
 202 prop tor  11  10  67  66
 203 ben  11  12  13
 204 prop tor  11  12  13  14
 205 prop tor  11  12  13  80
 206 ben  11  12  79
 207 ben  11  68  59
 208 ben  11  68  69
 209 prop tor  11  68  69  14
 210 prop tor  11  68  69  56
 211 ben  12  11  68
 212 prop tor  12  11  68  59
 213 prop tor  12  11  68  69
 214 ben  12  13  14
 215 prop tor  12  13  14  15
 216 prop tor  12  13  14  69
 217 ben  12  13  80
 218 ben  13  12  79
 219 ben  13  14  15
 220 prop tor  13  14  15  16
 221 prop tor  13  14  15  17
 222 ben  13  14  69
 223 prop tor  13  14  69  56
 224 prop tor  13  14  69  68
 225 ben  14  13  80
 226 ben  14  15  16
 227 ben  14  15  17
 228 prop tor  14  15  17  18
 229 prop tor  14  15  17  54
 230 ben  14  69  56
 231 ben  14  69  68
 232 ben  15  14  69
 233 prop tor  15  14  69  56
 234 prop tor  15  14  69  68
 235 ben  15  17  18
 236 prop tor  15  17  18  19
 237 prop tor  15  17  18  53
 238 ben  15  17  54
 239 prop tor  15  17  54  55
 240 prop tor  15  17  54  56
 241 ben  16  15  17
 242 prop tor  16  15  17  18
 243 prop tor  16  15  17  54
 244 ben  17  18  19
 245 prop tor  17  18  19  20
 246 prop tor  17  18  19  81
 247 ben  17  18  53
 248 prop tor  17  18  53  52
 249 prop tor  17  18  53 105
 250 ben  17  54  55
 251 ben  17  54  56
 252 prop tor  17  54  56  57
 253 prop tor  17  54  56  69
 254 ben  18  17  54
 255 prop tor  18  17  54  55
 256 prop tor  18  17  54  56
 257 ben  18  19  20
 258 prop tor  18  19  20  21
 259 prop tor  18  19  20  82
 260 ben  18  19  81
 261 ben  18  53  52
 262 ben  18  53 105
 263 ben  19  18  53
 264 prop tor  19  18  53  52
 265 prop tor  19  18  53 105
 266 ben  19  20  21
 267 prop tor  19  20  21  22
 268 prop tor  19  20  21  52
 269 ben  19  20  82
 270 ben  20  19  81
 271 ben  20  21  22
 272 prop tor  20  21  22  23
 273 ben  20  21  52
 274 prop tor  20  21  52  53
 275 prop tor  20  21  52 104
 276 ben  21  20  82
 277 lin ben  21  22  23
 279 ben  21  52  53
 280 prop tor  21  52  53  18
 281 prop tor  21  52  53 105
 282 ben  21  52 104
 283 ben  22  21  52
 284 prop tor  22  21  52  53
 285 prop tor  22  21  52 104
 Extend lin bond           1          21          22          24
 286 lin ben  22  23  24
 288 ben  23  24  25
 289 prop tor  23  24  25  26
 290 prop tor  23  24  25  83
 291 ben  23  24  51
 292 prop tor  23  24  51  50
 293 prop tor  23  24  51 103
 294 ben  24  25  26
 295 prop tor  24  25  26  27
 296 prop tor  24  25  26  84
 297 ben  24  25  83
 298 ben  24  51  50
 299 ben  24  51 103
 300 ben  25  24  51
 301 prop tor  25  24  51  50
 302 prop tor  25  24  51 103
 303 ben  25  26  27
 304 prop tor  25  26  27  28
 305 prop tor  25  26  27  50
 306 ben  25  26  84
 307 ben  26  25  83
 308 ben  26  27  28
 309 prop tor  26  27  28  29
 310 prop tor  26  27  28  32
 311 ben  26  27  50
 312 prop tor  26  27  50  51
 313 prop tor  26  27  50 102
 314 ben  27  26  84
 315 ben  27  28  29
 316 prop tor  27  28  29  30
 317 prop tor  27  28  29  85
 318 ben  27  28  32
 319 prop tor  27  28  32  31
 320 ben  27  50  51
 321 prop tor  27  50  51  24
 322 prop tor  27  50  51 103
 323 ben  27  50 102
 324 ben  28  27  50
 325 prop tor  28  27  50  51
 326 prop tor  28  27  50 102
 327 ben  28  29  30
 328 prop tor  28  29  30  31
 329 prop tor  28  29  30  39
 330 ben  28  29  85
 331 ben  28  32  31
 332 ben  29  28  32
 333 prop tor  29  28  32  31
 334 ben  29  30  31
 335 prop tor  29  30  31  32
 336 prop tor  29  30  31  33
 337 ben  29  30  39
 338 prop tor  29  30  39  38
 339 prop tor  29  30  39  40
 340 prop tor  29  30  39  41
 341 ben  30  29  85
 342 ben  30  31  32
 343 prop tor  30  31  32  28
 344 ben  30  31  33
 345 prop tor  30  31  33  34
 346 prop tor  30  31  33  38
 347 ben  30  39  38
 348 ben  30  39  40
 349 prop tor  30  39  40  88
 350 prop tor  30  39  40  89
 351 prop tor  30  39  40  90
 352 ben  30  39  41
 353 prop tor  30  39  41  91
 354 prop tor  30  39  41  92
 355 prop tor  30  39  41  93
 356 ben  31  30  39
 357 prop tor  31  30  39  38
 358 prop tor  31  30  39  40
 359 prop tor  31  30  39  41
 360 ben  31  33  34
 361 prop tor  31  33  34  35
 362 prop tor  31  33  34  86
 363 ben  31  33  38
 364 prop tor  31  33  38  37
 365 prop tor  31  33  38  39
 366 prop tor  32  28  29  30
 367 prop tor  32  28  29  85
 368 ben  32  31  33
 369 prop tor  32  31  33  34
 370 prop tor  32  31  33  38
 371 prop tor  33  31  32  28
 372 ben  33  34  35
 373 prop tor  33  34  35  36
 374 prop tor  33  34  35  47
 375 ben  33  34  86
 376 ben  33  38  37
 377 ben  33  38  39
 378 prop tor  33  38  39  30
 379 prop tor  33  38  39  40
 380 prop tor  33  38  39  41
 381 ben  34  33  38
 382 prop tor  34  33  38  37
 383 prop tor  34  33  38  39
 384 ben  34  35  36
 385 prop tor  34  35  36  37
 386 prop tor  34  35  36  42
 387 ben  34  35  47
 388 prop tor  34  35  47  46
 389 prop tor  34  35  47  48
 390 prop tor  34  35  47  49
 391 ben  35  34  86
 392 ben  35  36  37
 393 prop tor  35  36  37  38
 394 prop tor  35  36  37  87
 395 ben  35  36  42
 396 prop tor  35  36  42  43
 397 prop tor  35  36  42  46
 398 ben  35  47  46
 399 ben  35  47  48
 400 prop tor  35  47  48  96
 401 prop tor  35  47  48  97
 402 prop tor  35  47  48  98
 403 ben  35  47  49
 404 prop tor  35  47  49  99
 405 prop tor  35  47  49 100
 406 prop tor  35  47  49 101
 407 ben  36  35  47
 408 prop tor  36  35  47  46
 409 prop tor  36  35  47  48
 410 prop tor  36  35  47  49
 411 ben  36  37  38
 412 prop tor  36  37  38  33
 413 prop tor  36  37  38  39
 414 ben  36  37  87
 415 ben  36  42  43
 416 prop tor  36  42  43  44
 417 ben  36  42  46
 418 prop tor  36  42  46  45
 419 prop tor  36  42  46  47
 420 ben  37  36  42
 421 prop tor  37  36  42  43
 422 prop tor  37  36  42  46
 423 ben  37  38  39
 424 prop tor  37  38  39  30
 425 prop tor  37  38  39  40
 426 prop tor  37  38  39  41
 427 prop tor  38  33  34  35
 428 prop tor  38  33  34  86
 429 ben  38  37  87
 430 ben  38  39  40
 431 prop tor  38  39  40  88
 432 prop tor  38  39  40  89
 433 prop tor  38  39  40  90
 434 ben  38  39  41
 435 prop tor  38  39  41  91
 436 prop tor  38  39  41  92
 437 prop tor  38  39  41  93
 438 prop tor  39  30  31  32
 439 prop tor  39  30  31  33
 440 ben  39  40  88
 441 ben  39  40  89
 442 ben  39  40  90
 443 ben  39  41  91
 444 ben  39  41  92
 445 ben  39  41  93
 446 ben  40  39  41
 447 prop tor  40  39  41  91
 448 prop tor  40  39  41  92
 449 prop tor  40  39  41  93
 450 prop tor  41  39  40  88
 451 prop tor  41  39  40  89
 452 prop tor  41  39  40  90
 453 prop tor  42  36  37  38
 454 prop tor  42  36  37  87
 455 ben  42  43  44
 456 prop tor  42  43  44  45
 457 prop tor  42  43  44  94
 458 ben  42  46  45
 459 ben  42  46  47
 460 prop tor  42  46  47  35
 461 prop tor  42  46  47  48
 462 prop tor  42  46  47  49
 463 ben  43  42  46
 464 prop tor  43  42  46  45
 465 prop tor  43  42  46  47
 466 ben  43  44  45
 467 prop tor  43  44  45  46
 468 prop tor  43  44  45  95
 469 ben  43  44  94
 470 ben  44  45  46
 471 prop tor  44  45  46  42
 472 prop tor  44  45  46  47
 473 ben  44  45  95
 474 ben  45  44  94
 475 ben  45  46  47
 476 prop tor  45  46  47  35
 477 prop tor  45  46  47  48
 478 prop tor  45  46  47  49
 479 prop tor  46  42  43  44
 480 ben  46  45  95
 481 ben  46  47  48
 482 prop tor  46  47  48  96
 483 prop tor  46  47  48  97
 484 prop tor  46  47  48  98
 485 ben  46  47  49
 486 prop tor  46  47  49  99
 487 prop tor  46  47  49 100
 488 prop tor  46  47  49 101
 489 prop tor  47  35  36  37
 490 prop tor  47  35  36  42
 491 ben  47  48  96
 492 ben  47  48  97
 493 ben  47  48  98
 494 ben  47  49  99
 495 ben  47  49 100
 496 ben  47  49 101
 497 ben  48  47  49
 498 prop tor  48  47  49  99
 499 prop tor  48  47  49 100
 500 prop tor  48  47  49 101
 501 prop tor  49  47  48  96
 502 prop tor  49  47  48  97
 503 prop tor  49  47  48  98
 504 prop tor  50  27  28  29
 505 prop tor  50  27  28  32
 506 ben  50  51 103
 507 prop tor  51  24  25  26
 508 prop tor  51  24  25  83
 509 ben  51  50 102
 510 prop tor  52  21  22  23
 511 ben  52  53 105
 512 prop tor  53  18  19  20
 513 prop tor  53  18  19  81
 514 ben  53  52 104
 515 prop tor  54  17  18  19
 516 prop tor  54  17  18  53
 517 ben  54  56  57
 518 prop tor  54  56  57  58
 519 prop tor  54  56  57 106
 520 ben  54  56  69
 521 prop tor  54  56  69  14
 522 prop tor  54  56  69  68
 523 ben  55  54  56
 524 prop tor  55  54  56  57
 525 prop tor  55  54  56  69
 526 ben  56  57  58
 527 prop tor  56  57  58  59
 528 prop tor  56  57  58 107
 529 ben  56  57 106
 530 ben  56  69  68
 531 ben  57  56  69
 532 prop tor  57  56  69  14
 533 prop tor  57  56  69  68
 534 ben  57  58  59
 535 prop tor  57  58  59  60
 536 prop tor  57  58  59  68
 537 ben  57  58 107
 538 ben  58  57 106
 539 ben  58  59  60
 540 prop tor  58  59  60  61
 541 prop tor  58  59  60  67
 542 ben  58  59  68
 543 prop tor  58  59  68  11
 544 prop tor  58  59  68  69
 545 ben  59  58 107
 546 ben  59  60  61
 547 prop tor  59  60  61  62
 548 prop tor  59  60  61 108
 549 ben  59  60  67
 550 prop tor  59  60  67  10
 551 prop tor  59  60  67  66
 552 ben  59  68  69
 553 prop tor  59  68  69  14
 554 prop tor  59  68  69  56
 555 ben  60  59  68
 556 prop tor  60  59  68  11
 557 prop tor  60  59  68  69
 558 ben  60  61  62
 559 prop tor  60  61  62  63
 560 prop tor  60  61  62 109
 561 ben  60  61 108
 562 ben  60  67  66
 563 ben  61  60  67
 564 prop tor  61  60  67  10
 565 prop tor  61  60  67  66
 566 ben  61  62  63
 567 prop tor  61  62  63  64
 568 prop tor  61  62  63  66
 569 ben  61  62 109
 570 ben  62  61 108
 571 ben  62  63  64
 572 prop tor  62  63  64   4
 573 prop tor  62  63  64  65
 574 ben  62  63  66
 575 prop tor  62  63  66   7
 576 prop tor  62  63  66  67
 577 ben  63  62 109
 578 ben  63  64  65
 579 ben  63  66  67
 580 prop tor  63  66  67  10
 581 prop tor  63  66  67  60
 582 prop tor  64   4   5   6
 583 prop tor  64   4   5   7
 584 ben  64  63  66
 585 prop tor  64  63  66   7
 586 prop tor  64  63  66  67
 587 prop tor  66   7   8   9
 588 prop tor  66   7   8  77
 589 prop tor  66  63  64   4
 590 prop tor  66  63  64  65
 591 prop tor  67  10  11  12
 592 prop tor  67  10  11  68
 593 prop tor  67  60  61  62
 594 prop tor  67  60  61 108
 595 prop tor  68  11  12  13
 596 prop tor  68  11  12  79
 597 prop tor  68  59  60  61
 598 prop tor  68  59  60  67
 599 prop tor  69  14  15  16
 600 prop tor  69  14  15  17
 601 prop tor  69  56  57  58
 602 prop tor  69  56  57 106
 603 prop tor  70   1   2   3
 604 prop tor  70   1   2   4
 605 prop tor  70   1   2  73
 606 ben  70   1  71
 607 ben  70   1  72
 608 prop tor  71   1   2   3
 609 prop tor  71   1   2   4
 610 prop tor  71   1   2  73
 611 ben  71   1  72
 612 prop tor  72   1   2   3
 613 prop tor  72   1   2   4
 614 prop tor  72   1   2  73
 615 prop tor  73   2   3  74
 616 prop tor  73   2   3  75
 617 prop tor  73   2   3  76
 618 prop tor  73   2   4   5
 619 prop tor  73   2   4  64
 620 ben  74   3  75
 621 ben  74   3  76
 622 ben  75   3  76
 623 prop tor  77   8   9  10
 624 prop tor  77   8   9  78
 625 prop tor  78   9  10  11
 626 prop tor  78   9  10  67
 627 prop tor  79  12  13  14
 628 prop tor  79  12  13  80
 629 prop tor  80  13  14  15
 630 prop tor  80  13  14  69
 631 prop tor  81  19  20  21
 632 prop tor  81  19  20  82
 633 prop tor  82  20  21  22
 634 prop tor  82  20  21  52
 635 prop tor  83  25  26  27
 636 prop tor  83  25  26  84
 637 prop tor  84  26  27  28
 638 prop tor  84  26  27  50
 639 prop tor  85  29  30  31
 640 prop tor  85  29  30  39
 641 prop tor  86  34  35  36
 642 prop tor  86  34  35  47
 643 prop tor  87  37  38  33
 644 prop tor  87  37  38  39
 645 ben  88  40  89
 646 ben  88  40  90
 647 ben  89  40  90
 648 ben  91  41  92
 649 ben  91  41  93
 650 ben  92  41  93
 651 prop tor  94  44  45  46
 652 prop tor  94  44  45  95
 653 prop tor  95  45  46  42
 654 prop tor  95  45  46  47
 655 ben  96  48  97
 656 ben  96  48  98
 657 ben  97  48  98
 658 ben  99  49 100
 659 ben  99  49 101
 660 ben 100  49 101
 661 prop tor 102  50  51  24
 662 prop tor 102  50  51 103
 663 prop tor 104  52  53  18
 664 prop tor 104  52  53 105
 665 prop tor 106  57  58  59
 666 prop tor 106  57  58 107
 667 prop tor 107  58  59  60
 668 prop tor 107  58  59  68
 669 prop tor 108  61  62  63
 670 prop tor 108  61  62 109
 671 prop tor 109  62  63  64
 672 prop tor 109  62  63  66
 673 lin bend prop tor  20  21  24  23
 674 lin bend prop tor  20  21  24  25
 675 lin bend prop tor  20  21  24  51
 676 lin bend prop tor  22  21  24  23
 677 lin bend prop tor  22  21  24  25
 678 lin bend prop tor  22  21  24  51
 679 lin bend prop tor  52  21  24  23
 680 lin bend prop tor  52  21  24  25
 681 lin bend prop tor  52  21  24  51
 nber bend=             216
 nber lin bend=           1
 nber prop tor=         343
 nber impr tor=           0
 nber tot redund int=         681
 Reading file: 
 ./IDT-A_4_C0S2.log                                                             
                                          
  Entering Gaussian System, Link 0=g16                                          
  
 Gaussian format, type: g94, g98, g03= F F F
  #P Geom=AllCheck Guess=TCheck SCRF=Check GenChk RB3LYP TD(FC,Read)/6-3    
 energy type= TD      
 Original G94 input coords:
  6  2.146881 -1.124517  0.434229
  6  3.085144  0.041064  0.767682
  6  4.441557 -0.413295  1.318871
  7  3.237334  0.979396 -0.381071
  6  3.837373  0.519458 -1.565179
  8  4.232065 -0.638263 -1.659342
  6  3.965833  1.481854 -2.667354
  6  4.555624  1.074611 -3.865230
  6  4.692413  1.955041 -4.921156
  6  4.246559  3.293732 -4.838201
  6  4.384919  4.225737 -5.936193
  6  4.980343  3.854174 -7.167111
  6  5.107715  4.744906 -8.205758
  6  4.647472  6.066326 -8.083553
  6  4.804317  6.962332 -9.208655
  8  5.323590  6.666822-10.275520
  7  4.318209  8.308780 -9.013778
  6  4.456020  9.219273-10.084253
  6  4.953694 10.520564 -9.854960
  6  5.093955 11.407412-10.896921
  6  4.732172 11.032368-12.216419
  6  4.869978 11.933377-13.275837
  6  4.990800 12.721481-14.201957
  6  5.130367 13.628406-15.266662
  6  4.777665 13.256397-16.583172
  6  4.911437 14.154601-17.625916
  6  5.412390 15.451190-17.406225
  6  5.551546 16.415459-18.504754
  6  5.372545 17.781472-18.463011
  6  5.599276 18.397715-19.717120
  6  5.949644 17.503155-20.702327
 16  6.014930 15.875828-20.118301
  6  6.163007 18.173724-21.967110
  6  6.526410 17.692247-23.231268
  6  6.652298 18.606432-24.262062
  6  6.416198 19.990351-24.030531
  6  6.051782 20.470872-22.762307
  6  5.926203 19.557341-21.734155
  6  5.544190 19.812891-20.269541
  6  4.124441 20.409463-20.155041
  6  6.571126 20.732014-19.572934
  6  6.628993 20.659880-25.286609
 16  6.556828 22.287420-25.875296
  6  7.008649 21.737780-27.467325
  6  7.201519 20.377959-27.530826
  6  6.983761 19.760859-26.280058
  6  7.036267 18.347380-25.725329
  6  8.455795 17.749695-25.837148
  6  6.009302 17.428740-26.422619
  6  5.776382 15.816193-16.096063
  6  5.630927 14.931287-15.044146
  6  4.228173  9.725180-12.439588
  6  4.098274  8.838598-11.395985
  6  3.701684  8.787690 -7.798065
  8  3.310532  9.945073 -7.746634
  6  3.580838  7.820513 -6.728893
  6  2.983415  8.221252 -5.522457
  6  2.848184  7.341645 -4.475380
  6  3.300712  6.001840 -4.565072
  6  3.163902  5.070316 -3.466679
  6  2.574215  5.434260 -2.234636
  6  2.449142  4.535696 -1.192832
  6  2.906082  3.222685 -1.322662
  6  2.757186  2.295259 -0.194974
  8  2.242401  2.632527  0.864963
  6  3.503172  2.809101 -2.533689
  6  3.638997  3.732536 -3.622470
  6  3.909855  5.566022 -5.783513
  6  4.047288  6.492649 -6.875190
  1  1.953615 -1.702176  1.343177
  1  2.580867 -1.784053 -0.316100
  1  1.187994 -0.750756  0.065304
  1  2.602739  0.655202  1.525143
  1  4.971390 -1.043201  0.605561
  1  4.283506 -0.979870  2.241487
  1  5.065926  0.451144  1.560093
  1  4.901643  0.051594 -3.941877
  1  5.155235  1.595549 -5.829367
  1  5.348265  2.847659 -7.304522
  1  5.565621  4.447194 -9.140440
  1  5.225787 10.812459 -8.853528
  1  5.491232 12.398678-10.719467
  1  4.390753 12.261832-16.765500
  1  4.608272 13.859581-18.623259
  1  5.061749 18.297527-17.564140
  1  6.702830 16.634113-23.390548
  1  5.876521 21.529226-22.602679
  1  3.388018 19.771294-20.647525
  1  4.083355 21.400107-20.615106
  1  3.838814 20.515877-19.105178
  1  7.580878 20.323649-19.649205
  1  6.325129 20.844533-18.513671
  1  6.567865 21.727340-20.024645
  1  7.104244 22.460424-28.263343
  1  7.485538 19.869667-28.442414
  1  9.192513 18.388730-25.346281
  1  8.741607 17.639062-26.886410
  1  8.494987 16.760935-25.372961
  1  5.000081 17.838990-26.350137
  1  6.009948 16.435165-25.967110
  1  6.257869 17.312600-27.480732
  1  6.194112 16.798482-15.913599
  1  5.912955 15.224373-14.040745
  1  3.937716  9.434651-13.441164
  1  3.719335  7.844873-11.572077
  1  2.632545  9.242039 -5.439821
  1  2.382524  7.692393 -3.565730
  1  2.206572  6.440108 -2.088444
  1  1.995330  4.828302 -0.254487
 nber atoms=         109
  Total Energy, E(TD-HF/TD-DFT) =  -3556.10104943                               
  
          32          49 "  -3556.10104943"
After scan for Atom:   Atom  AN      X      Y      Z        X      Y      Z        X      Y      Z   
After scan for Atom:   Atom  AN      X      Y      Z        X      Y      Z        X      Y      Z   
After scan for Atom:   Atom  AN      X      Y      Z        X      Y      Z        X      Y      Z   
After scan for Atom:   Atom  AN      X      Y      Z        X      Y      Z        X      Y      Z   
After scan for Atom:   Atom  AN      X      Y      Z        X      Y      Z        X      Y      Z   
After scan for Atom:   Atom  AN      X      Y      Z        X      Y      Z        X      Y      Z   
After scan for Atom:   Atom  AN      X      Y      Z        X      Y      Z        X      Y      Z   
After scan for Atom:   Atom  AN      X      Y      Z        X      Y      Z        X      Y      Z   
After scan for Atom:   Atom  AN      X      Y      Z        X      Y      Z        X      Y      Z   
After scan for Atom:   Atom  AN      X      Y      Z        X      Y      Z        X      Y      Z   
After scan for Atom:   Atom  AN      X      Y      Z        X      Y      Z        X      Y      Z   
After scan for Atom:   Atom  AN      X      Y      Z        X      Y      Z        X      Y      Z   
After scan for Atom:   Atom  AN      X      Y      Z        X      Y      Z        X      Y      Z   
After scan for Atom:   Atom  AN      X      Y      Z        X      Y      Z        X      Y      Z   
After scan for Atom:   Atom  AN      X      Y      Z        X      Y      Z        X      Y      Z   
After scan for Atom:   Atom  AN      X      Y      Z        X      Y      Z        X      Y      Z   
After scan for Atom:   Atom  AN      X      Y      Z        X      Y      Z        X      Y      Z   
After scan for Atom:   Atom  AN      X      Y      Z        X      Y      Z        X      Y      Z   
After scan for Atom:   Atom  AN      X      Y      Z        X      Y      Z        X      Y      Z   
After scan for Atom:   Atom  AN      X      Y      Z        X      Y      Z        X      Y      Z   
After scan for Atom:   Atom  AN      X      Y      Z        X      Y      Z        X      Y      Z   
After scan for Atom:   Atom  AN      X      Y      Z        X      Y      Z        X      Y      Z   
After scan for Atom:   Atom  AN      X      Y      Z        X      Y      Z        X      Y      Z   
After scan for Atom:   Atom  AN      X      Y      Z        X      Y      Z        X      Y      Z   
After scan for Atom:   Atom  AN      X      Y      Z        X      Y      Z        X      Y      Z   
After scan for Atom:   Atom  AN      X      Y      Z        X      Y      Z        X      Y      Z   
After scan for Atom:   Atom  AN      X      Y      Z        X      Y      Z        X      Y      Z   
After scan for Atom:   Atom  AN      X      Y      Z        X      Y      Z        X      Y      Z   
After scan for Atom:   Atom  AN      X      Y      Z        X      Y      Z        X      Y      Z   
After scan for Atom:   Atom  AN      X      Y      Z        X      Y      Z        X      Y      Z   
After scan for Atom:   Atom  AN      X      Y      Z        X      Y      Z        X      Y      Z   
After scan for Atom:   Atom  AN      X      Y      Z        X      Y      Z        X      Y      Z   
After scan for Atom:   Atom  AN      X      Y      Z        X      Y      Z        X      Y      Z   
After scan for Atom:   Atom  AN      X      Y      Z        X      Y      Z        X      Y      Z   
After scan for Atom:   Atom  AN      X      Y      Z        X      Y      Z        X      Y      Z   
After scan for Atom:   Atom  AN      X      Y      Z        X      Y      Z        X      Y      Z   
After scan for Atom:   Atom  AN      X      Y      Z        X      Y      Z        X      Y      Z   
After scan for Atom:   Atom  AN      X      Y      Z        X      Y      Z        X      Y      Z   
After scan for Atom:   Atom  AN      X      Y      Z        X      Y      Z        X      Y      Z   
After scan for Atom:   Atom  AN      X      Y      Z        X      Y      Z        X      Y      Z   
After scan for Atom:   Atom  AN      X      Y      Z        X      Y      Z        X      Y      Z   
After scan for Atom:   Atom  AN      X      Y      Z        X      Y      Z        X      Y      Z   
After scan for Atom:   Atom  AN      X      Y      Z        X      Y      Z        X      Y      Z   
After scan for Atom:   Atom  AN      X      Y      Z        X      Y      Z        X      Y      Z   
After scan for Atom:   Atom  AN      X      Y      Z        X      Y      Z        X      Y      Z   
After scan for Atom:   Atom  AN      X      Y      Z        X      Y      Z        X      Y      Z   
After scan for Atom:   Atom  AN      X      Y      Z        X      Y      Z        X      Y      Z   
After scan for Atom:   Atom  AN      X      Y      Z        X      Y      Z        X      Y      Z   
After scan for Atom:   Atom  AN      X      Y      Z        X      Y      Z        X      Y      Z   
After scan for Atom:   Atom  AN      X      Y      Z        X      Y      Z        X      Y      Z   
After scan for Atom:   Atom  AN      X      Y      Z        X      Y      Z        X      Y      Z   
After scan for Atom:   Atom  AN      X      Y      Z        X      Y      Z        X      Y      Z   
After scan for Atom:   Atom  AN      X      Y      Z        X      Y      Z        X      Y      Z   
After scan for Atom:   Atom  AN      X      Y      Z        X      Y      Z        X      Y      Z   
After scan for Atom:   Atom  AN      X      Y      Z        X      Y      Z        X      Y      Z   
After scan for Atom:   Atom  AN      X      Y      Z        X      Y      Z        X      Y      Z   
After scan for Atom:   Atom  AN      X      Y      Z        X      Y      Z        X      Y      Z   
After scan for Atom:   Atom  AN      X      Y      Z        X      Y      Z        X      Y      Z   
After scan for Atom:   Atom  AN      X      Y      Z        X      Y      Z        X      Y      Z   
After scan for Atom:   Atom  AN      X      Y      Z        X      Y      Z        X      Y      Z   
After scan for Atom:   Atom  AN      X      Y      Z        X      Y      Z        X      Y      Z   
After scan for Atom:   Atom  AN      X      Y      Z        X      Y      Z        X      Y      Z   
After scan for Atom:   Atom  AN      X      Y      Z        X      Y      Z        X      Y      Z   
After scan for Atom:   Atom  AN      X      Y      Z        X      Y      Z        X      Y      Z   
After scan for Atom:   Atom  AN      X      Y      Z        X      Y      Z        X      Y      Z   
After scan for Atom:   Atom  AN      X      Y      Z        X      Y      Z        X      Y      Z   
After scan for Atom:   Atom  AN      X      Y      Z        X      Y      Z        X      Y      Z   
After scan for Atom:   Atom  AN      X      Y      Z        X      Y      Z        X      Y      Z   
After scan for Atom:   Atom  AN      X      Y      Z        X      Y      Z        X      Y      Z   
After scan for Atom:   Atom  AN      X      Y      Z        X      Y      Z        X      Y      Z   
After scan for Atom:   Atom  AN      X      Y      Z        X      Y      Z        X      Y      Z   
After scan for Atom:   Atom  AN      X      Y      Z        X      Y      Z        X      Y      Z   
After scan for Atom:   Atom  AN      X      Y      Z        X      Y      Z        X      Y      Z   
After scan for Atom:   Atom  AN      X      Y      Z        X      Y      Z        X      Y      Z   
After scan for Atom:   Atom  AN      X      Y      Z        X      Y      Z        X      Y      Z   
After scan for Atom:   Atom  AN      X      Y      Z        X      Y      Z        X      Y      Z   
After scan for Atom:   Atom  AN      X      Y      Z        X      Y      Z        X      Y      Z   
After scan for Atom:   Atom  AN      X      Y      Z        X      Y      Z        X      Y      Z   
After scan for Atom:   Atom  AN      X      Y      Z        X      Y      Z        X      Y      Z   
After scan for Atom:   Atom  AN      X      Y      Z        X      Y      Z        X      Y      Z   
After scan for Atom:   Atom  AN      X      Y      Z        X      Y      Z        X      Y      Z   
After scan for Atom:   Atom  AN      X      Y      Z        X      Y      Z        X      Y      Z   
After scan for Atom:   Atom  AN      X      Y      Z        X      Y      Z        X      Y      Z   
After scan for Atom:   Atom  AN      X      Y      Z        X      Y      Z        X      Y      Z   
After scan for Atom:   Atom  AN      X      Y      Z        X      Y      Z        X      Y      Z   
After scan for Atom:   Atom  AN      X      Y      Z        X      Y      Z        X      Y      Z   
After scan for Atom:   Atom  AN      X      Y      Z        X      Y      Z        X      Y      Z   
After scan for Atom:   Atom  AN      X      Y      Z        X      Y      Z        X      Y      Z   
After scan for Atom:   Atom  AN      X      Y      Z        X      Y      Z        X      Y      Z   
After scan for Atom:   Atom  AN      X      Y      Z        X      Y      Z        X      Y      Z   
After scan for Atom:   Atom  AN      X      Y      Z        X      Y      Z        X      Y      Z   
After scan for Atom:   Atom  AN      X      Y      Z        X      Y      Z        X      Y      Z   
After scan for Atom:   Atom  AN      X      Y      Z        X      Y      Z        X      Y      Z   
After scan for Atom:   Atom  AN      X      Y      Z        X      Y      Z        X      Y      Z   
After scan for Atom:   Atom  AN      X      Y      Z        X      Y      Z        X      Y      Z   
After scan for Atom:   Atom  AN      X      Y      Z        X      Y      Z        X      Y      Z   
After scan for Atom:   Atom  AN      X      Y      Z        X      Y      Z        X      Y      Z   
After scan for Atom:   Atom  AN      X      Y      Z        X      Y      Z        X      Y      Z   
After scan for Atom:   Atom  AN      X      Y      Z        X      Y      Z        X      Y      Z   
After scan for Atom:   Atom  AN      X      Y      Z        X      Y      Z        X      Y      Z   
After scan for Atom:   Atom  AN      X      Y      Z        X      Y      Z        X      Y      Z   
After scan for Atom:   Atom  AN      X      Y      Z        X      Y      Z        X      Y      Z   
After scan for Atom:   Atom  AN      X      Y      Z        X      Y      Z        X      Y      Z   
After scan for Atom:   Atom  AN      X      Y      Z        X      Y      Z        X      Y      Z   
After scan for Atom:   Atom  AN      X      Y      Z        X      Y      Z        X      Y      Z   
After scan for Atom:   Atom  AN      X      Y      Z        X      Y      Z        X      Y      Z   
After scan for Atom:   Atom  AN      X      Y      Z        X      Y      Z        X      Y      Z   
 g94    frequencies=
     0.0    0.0    0.0    0.0    0.0    0.0    3.9    5.2    8.4   11.6
    19.9   24.2   24.9   32.8   41.6   47.5   53.9   56.7   59.2   64.5
    65.3   72.2   85.4   88.9   94.8  100.0  104.1  107.4  108.3  115.5
   138.2  140.5  149.8  157.4  164.4  168.3  171.3  189.3  194.2  196.2
   208.5  210.1  218.0  227.1  232.9  234.7  235.4  243.5  245.5  246.9
   250.6  263.0  274.9  277.5  283.4  292.5  294.0  299.1  311.9  313.9
   318.8  341.5  344.6  361.2  367.7  376.9  377.8  391.4  395.1  401.2
   406.0  411.2  415.8  417.7  424.2  430.0  435.4  443.1  446.7  450.9
   454.0  465.1  465.8  472.0  480.6  490.5  498.5  501.5  502.0  503.6
   507.6  514.1  516.8  538.2  541.2  553.1  563.6  572.9  575.6  578.6
   579.5  584.6  589.2  592.5  617.2  623.8  625.8  636.5  640.0  650.5
   658.6  661.2  666.7  676.2  677.8  694.3  707.9  713.7  720.9  724.1
   728.3  730.7  736.6  741.2  747.4  748.1  750.5  756.8  759.5  768.7
   784.5  785.5  798.2  801.9  808.5  812.0  814.3  815.1  820.4  824.6
   831.0  833.5  835.6  836.9  840.9  849.7  852.8  855.1  863.8  869.1
   872.8  894.0  896.7  900.6  902.1  906.2  930.0  943.4  947.4  950.3
   950.9  955.5  970.3  971.7  973.4  973.6  979.8  982.7  983.1  983.7
   986.2  986.3  987.4 1003.5 1005.2 1021.1 1029.3 1031.1 1031.5 1051.3
  1068.7 1074.7 1080.0 1092.9 1102.6 1106.1 1137.5 1145.3 1149.9 1154.5
  1154.5 1155.3 1155.5 1158.7 1162.7 1166.4 1169.8 1174.5 1187.7 1197.8
  1198.9 1202.4 1217.9 1221.0 1226.3 1234.5 1235.6 1240.9 1243.7 1245.5
  1255.3 1259.1 1268.5 1278.7 1280.5 1293.1 1297.8 1303.3 1315.9 1320.4
  1327.8 1329.2 1341.0 1351.8 1358.5 1359.0 1363.0 1370.7 1377.4 1384.2
  1391.5 1393.4 1394.0 1397.4 1400.6 1400.9 1406.0 1410.4 1424.2 1425.0
  1427.1 1437.0 1440.9 1445.5 1461.9 1463.9 1465.2 1470.3 1476.4 1483.3
  1483.8 1484.8 1484.9 1487.6 1489.3 1489.7 1495.5 1499.3 1504.5 1505.7
  1507.0 1507.1 1509.3 1512.5 1518.1 1519.6 1523.8 1533.6 1535.9 1548.4
  1559.5 1563.1 1570.2 1573.8 1579.3 1592.0 1612.8 1617.3 1619.1 1631.0
  1638.3 1679.4 1694.2 1696.7 1715.7 1736.8 2290.1 3027.8 3028.4 3029.2
  3032.2 3032.7 3033.0 3085.1 3088.2 3092.4 3093.8 3097.5 3098.7 3107.1
  3107.7 3108.1 3108.8 3109.4 3131.2 3140.8 3171.5 3173.0 3183.5 3187.2
  3190.2 3190.4 3196.8 3197.1 3197.5 3197.6 3201.9 3203.0 3204.6 3206.5
  3206.8 3208.3 3220.2 3220.3 3245.3 3251.1 3251.2
 g94    symmetries=
                                                 A      A      A      A
       A      A      A      A      A      A      A      A      A      A
       A      A      A      A      A      A      A      A      A      A
       A      A      A      A      A      A      A      A      A      A
       A      A      A      A      A      A      A      A      A      A
       A      A      A      A      A      A      A      A      A      A
       A      A      A      A      A      A      A      A      A      A
       A      A      A      A      A      A      A      A      A      A
       A      A      A      A      A      A      A      A      A      A
       A      A      A      A      A      A      A      A      A      A
       A      A      A      A      A      A      A      A      A      A
       A      A      A      A      A      A      A      A      A      A
       A      A      A      A      A      A      A      A      A      A
       A      A      A      A      A      A      A      A      A      A
       A      A      A      A      A      A      A      A      A      A
       A      A      A      A      A      A      A      A      A      A
       A      A      A      A      A      A      A      A      A      A
       A      A      A      A      A      A      A      A      A      A
       A      A      A      A      A      A      A      A      A      A
       A      A      A      A      A      A      A      A      A      A
       A      A      A      A      A      A      A      A      A      A
       A      A      A      A      A      A      A      A      A      A
       A      A      A      A      A      A      A      A      A      A
       A      A      A      A      A      A      A      A      A      A
       A      A      A      A      A      A      A      A      A      A
       A      A      A      A      A      A      A      A      A      A
       A      A      A      A      A      A      A      A      A      A
       A      A      A      A      A      A      A      A      A      A
       A      A      A      A      A      A      A      A      A      A
       A      A      A      A      A      A      A      A      A      A
       A      A      A      A      A      A      A      A      A      A
       A      A      A      A      A      A      A      A      A      A
       A      A      A      A      A      A      A
 atomic masses:
 12.0000 12.0000 12.0000 14.0031 12.0000 15.9949 12.0000 12.0000 12.0000 12.0000
 12.0000 12.0000 12.0000 12.0000 12.0000 15.9949 14.0031 12.0000 12.0000 12.0000
 12.0000 12.0000 12.0000 12.0000 12.0000 12.0000 12.0000 12.0000 12.0000 12.0000
 12.0000 31.9721 12.0000 12.0000 12.0000 12.0000 12.0000 12.0000 12.0000 12.0000
 12.0000 12.0000 31.9721 12.0000 12.0000 12.0000 12.0000 12.0000 12.0000 12.0000
 12.0000 12.0000 12.0000 12.0000 15.9949 12.0000 12.0000 12.0000 12.0000 12.0000
 12.0000 12.0000 12.0000 12.0000 15.9949 12.0000 12.0000 12.0000 12.0000  1.0078
  1.0078  1.0078  1.0078  1.0078  1.0078  1.0078  1.0078  1.0078  1.0078  1.0078
  1.0078  1.0078  1.0078  1.0078  1.0078  1.0078  1.0078  1.0078  1.0078  1.0078
  1.0078  1.0078  1.0078  1.0078  1.0078  1.0078  1.0078  1.0078  1.0078  1.0078
  1.0078  1.0078  1.0078  1.0078  1.0078  1.0078  1.0078  1.0078  1.0078
 looking for force constants in 
 ./IDT-A_4_C0S2.fchk                                                            
  
 file doesnt exist
 NO FORCES: 
 ./IDT-A_4_C0S2.log                                                             
                                          
 g94-fc frequencies=

 at 99999: n3=           0
 symm operator            1 :  F  nop=           0
 symm operator            2 :  F  nop=           0
 symm operator            3 :  F  nop=           0
 symm operator            4 :  F  nop=           0
 symm operator            5 :  F  nop=           0
 symm operator            6 :  F  nop=           0
 symm operator            7 :  F  nop=           0
 The point group of the molecule is  C1
 Symmetry rotation matrix:
   1.00000   0.00000   0.00000
   0.00000   1.00000   0.00000
   0.00000   0.00000   1.00000

 highest evec of mol 2

 Enter nber and list of atoms to keep of mol #2
 keep list:         109           1           2           3           4
           5           6           7           8           9          10
          11          12          13          14          15          16
          17          18          19          20          21          22
          23          24          25          26          27          28
          29          30          31          32          33          34
          35          36          37          38          39          40
          41          42          43          44          45          46
          47          48          49          50          51          52
          53          54          55          56          57          58
          59          60          61          62          63          64
          65          66          67          68          69          70
          71          72          73          74          75          76
          77          78          79          80          81          82
          83          84          85          86          87          88
          89          90          91          92          93          94
          95          96          97          98          99         100
         101         102         103         104         105         106
         107         108         109
 reordering atoms
           1   17.7089577812061     
           2   17.1500711051491     
           3   17.7165376483423     
           4   15.6591927050311     
           5   14.9563852292713     
           6   15.5557623505061     
           7   13.4894797240848     
           8   12.7444984720482     
           9   11.3633598123193     
          10   10.6489616809290     
          11   9.20302723257093     
          12   8.40966616695209     
          13   7.03663703254211     
          14   6.36502319073528     
          15   4.91821567555158     
          16   4.21387486818226     
          17   4.29054888600511     
          18   2.87940319629499     
          19   2.20222111477092     
          20  0.827640331317794     
          21  6.877441343682081E-002
          22  -1.32789668736185     
          23  -2.54915853531691     
          24  -3.95378959452151     
          25  -4.71316141391782     
          26  -6.09467465617099     
          27  -6.77678757645695     
          28  -8.24313985107252     
          29  -9.03480115344066     
          30  -10.4169038444911     
          31  -10.6699286223291     
          32  -9.21707291330721     
          33  -12.0924691977681     
          34  -12.8193205829870     
          35  -14.2005465605251     
          36  -14.8492517398815     
          37  -14.1185330791634     
          38  -12.7398032315214     
          39  -11.7152511677811     
          40  -11.8438142657051     
          41  -11.8482896001165     
          42  -16.2643037465857     
          43  -17.7201959245519     
          44  -18.6699504745954     
          45  -17.9005430496950     
          46  -16.5214666128595     
          47  -15.2220941114626     
          48  -15.0907304852315     
          49  -15.0898832072423     
          50  -6.01923628863906     
          51  -4.63754221513525     
          52  0.755040752612322     
          53   2.12963973739213     
          54   5.00803184561380     
          55   4.37517426426742     
          56   6.45135250491706     
          57   7.20783026071637     
          58   8.58139715328420     
          59   9.29052367485726     
          60   10.7363096462183     
          61   11.5346428088213     
          62   12.9147238830722     
          63   13.5755527204605     
          64   15.0429280942719     
          65   15.7156173591808     
          66   12.8234596120232     
          67   11.3902644598358     
          68   8.54509758105501     
          69   7.10750409432467     
          70   18.7946102622617     
          71   17.4851189283318     
          72   17.2922211639314     
          73   17.4126212489158     
          74   17.4931161905292     
          75   18.8022736222596     
          76   17.3048792705308     
          77   13.2795418158628     
          78   10.8281793754676     
          79   8.88483145401122     
          80   6.44320695464855     
          81   2.77394623057643     
          82  0.312042057383479     
          83  -4.20042467620903     
          84  -6.65799138853635     
          85  -8.61964546454873     
          86  -12.3090556072758     
          87  -14.6287853280215     
          88  -11.7558346943250     
          89  -12.8096024911777     
          90  -11.0607612092530     
          91  -11.7626592033560     
          92  -11.0658748450210     
          93  -12.8144620344940     
          94  -19.7467067224879     
          95  -18.3275679774536     
          96  -15.1805364648158     
          97  -15.8707304331389     
          98  -14.1226909767090     
          99  -15.1796872895347     
         100  -14.1215536071565     
         101  -15.8694386247900     
         102  -6.52755445275165     
         103  -4.06606968535936     
         104  0.184305646674130     
         105   2.64587496526270     
         106   6.67934633215675     
         107   9.12339729788021     
         108   11.0667053785112     
         109   13.5137276084974     
           1           1
           2           2
           3           3
           4           4
           5           5
           6           6
           7           7
           8           8
           9           9
          10          10
          11          11
          12          12
          13          13
          14          14
          15          15
          16          16
          17          17
          18          18
          19          19
          20          20
          21          21
          22          22
          23          23
          24          24
          25          25
          26          26
          27          27
          28          28
          29          29
          30          30
          31          31
          32          32
          33          33
          34          34
          35          35
          36          36
          37          37
          38          38
          39          39
          40          40
          41          41
          42          42
          43          43
          44          44
          45          45
          46          46
          47          47
          48          48
          49          49
          50          50
          51          51
          52          52
          53          53
          54          54
          55          55
          56          56
          57          57
          58          58
          59          59
          60          60
          61          61
          62          62
          63          63
          64          64
          65          65
          66          66
          67          67
          68          68
          69          69
          70          70
          71          71
          72          72
          73          73
          74          74
          75          75
          76          76
          77          77
          78          78
          79          79
          80          80
          81          81
          82          82
          83          83
          84          84
          85          85
          86          86
          87          87
          88          88
          89          89
          90          90
          91          91
          92          92
          93          93
          94          94
          95          95
          96          96
          97          97
          98          98
          99          99
         100         100
         101         101
         102         102
         103         103
         104         104
         105         105
         106         106
         107         107
         108         108
         109         109
 initial cartes coords mol 1
   6  -0.76617   0.67383 -17.78203
   6   0.12812  -0.39348 -17.14040
   6   1.55539  -0.40065 -17.70034
   7   0.11384  -0.31168 -15.65303
   6  -0.42371  -1.42134 -14.96075
   8  -0.85263  -2.39422 -15.57302
   6  -0.43910  -1.34503 -13.49762
   6  -0.95896  -2.41324 -12.76156
   6  -0.98816  -2.37417 -11.38193
   6  -0.49869  -1.26333 -10.65628
   6  -0.52321  -1.21088  -9.21052
   6  -1.03953  -2.27105  -8.42656
   6  -1.05733  -2.21269  -7.05155
   6  -0.56168  -1.09162  -6.37120
   6  -0.59610  -1.07900  -4.91836
   8  -1.03124  -1.99012  -4.22598
   7  -0.08374   0.10021  -4.29204
   6  -0.10760   0.15235  -2.86393
   6  -0.72166   1.22466  -2.20999
   6  -0.74364   1.28030  -0.82660
   6  -0.15271   0.25585  -0.06525
   6  -0.17434   0.30904   1.35047
   6  -0.19237   0.35530   2.56398
   6  -0.21209   0.41027   3.96971
   6  -0.81001   1.49917   4.64673
   6  -0.82673   1.55311   6.02280
   6  -0.24955   0.52390   6.80422
   6  -0.27201   0.59325   8.24322
   6  -0.72536   1.64387   9.05574
   6  -0.59794   1.37435  10.41220
   6  -0.04597   0.11410  10.67642
  16   0.31977  -0.75589   9.22922
   6   0.06563  -0.11692  12.07300
   6   0.55231  -1.22234  12.80331
   6   0.53083  -1.14727  14.17489
   6   0.02767   0.02316  14.82928
   6  -0.45767   1.12573  14.10310
   6  -0.43726   1.05238  12.72828
   6  -0.90124   2.10155  11.71014
   6  -0.08183   3.40549  11.83012
   6  -2.41081   2.39655  11.85159
   6   0.14200  -0.21135  16.23674
  16  -0.22184   0.65594  17.69278
   6   0.36739  -0.68068  18.63707
   6   0.81700  -1.73101  17.87244
   6   0.68712  -1.46029  16.49360
   6   0.99341  -2.19163  15.19883
   6   0.17607  -3.49717  15.08099
   6   2.50336  -2.48665  15.06027
   6   0.34454  -0.56284   6.12232
   6   0.36534  -0.62138   4.74637
   6   0.46074  -0.82156  -0.72945
   6   0.48333  -0.86832  -2.11319
   6   0.45088   1.23130  -4.98489
   8   0.86344   2.19106  -4.34651
   6   0.46574   1.13797  -6.43513
   6   0.98545   2.20717  -7.17807
   6   1.01454   2.16513  -8.55349
   6   0.52414   1.04988  -9.27512
   6   0.54938   0.99667 -10.72101
   6   1.06497   2.05204 -11.50841
   6   1.08357   1.98995 -12.88754
   6   0.58825   0.87021 -13.56050
   6   0.62405   0.83838 -15.02611
   8   1.07594   1.76541 -15.69294
   6   0.06225  -0.21139 -12.82039
   6   0.03738  -0.15892 -11.38672
   6  -0.01149  -0.05486  -8.54168
   6  -0.03599  -0.00245  -7.10518
   1  -0.83670   0.48627 -18.85789
   1  -0.36719   1.67493 -17.62405
   1  -1.77650   0.62594 -17.36694
   1  -0.31554  -1.36709 -17.33798
   1   2.05123   0.55555 -17.53848
   1   1.52039  -0.60416 -18.77504
   1   2.14687  -1.19027 -17.22915
   1  -1.33713  -3.27036 -13.30420
   1  -1.39951  -3.22330 -10.85449
   1  -1.43244  -3.15462  -8.90900
   1  -1.45428  -3.03114  -6.46433
   1  -1.16629   2.01732  -2.79320
   1  -1.21890   2.11357  -0.32373
   1  -1.25924   2.29392   4.06557
   1  -1.30160   2.39857   6.50352
   1  -1.11834   2.56320   8.64673
   1   0.92920  -2.09880  12.28842
   1  -0.83399   2.00206  14.61836
   1   0.98823   3.21292  11.73140
   1  -0.25786   3.87971  12.79840
   1  -0.37707   4.11343  11.05206
   1  -3.00373   1.48370  11.76772
   1  -2.73729   3.09146  11.07424
   1  -2.62130   2.85533  12.82044
   1   0.34551  -0.60829  19.71394
   1   1.21570  -2.63971  18.30201
   1  -0.89463  -3.30423  15.17228
   1   0.46654  -4.19832  15.86701
   1   0.35837  -3.98019  14.11793
   1   3.09471  -1.57211  15.13704
   1   2.71729  -2.95561  14.09676
   1   2.82912  -3.17278  15.84571
   1   0.80393  -1.36855   6.68342
   1   0.82818  -1.46029   4.24339
   1   0.91869  -1.61479  -0.15137
   1   0.94558  -1.70132  -2.62169
   1   1.36298   3.06681  -6.63887
   1   1.42463   3.01169  -9.08543
   1   1.45887   2.93800 -11.03052
   1   1.48138   2.80510 -13.47875
 initial cartes coords mol 2
   6  -1.20056   1.05782  17.70896
   6  -0.01277   0.26603  17.15007
   6   1.33722   0.72074  17.71654
   7  -0.01127   0.24276  15.65919
   6   0.15184   1.44823  14.95639
   8   0.29062   2.50958  15.55576
   6   0.14788   1.37293  13.48948
   6   0.30707   2.54266  12.74450
   6   0.30875   2.50659  11.36336
   6   0.15119   1.29722  10.64896
   6   0.15225   1.24588   9.20303
   6   0.31423   2.40868   8.40967
   6   0.31356   2.35206   7.03664
   6   0.14993   1.12933   6.36502
   6   0.15462   1.12656   4.91822
   8   0.30283   2.11505   4.21387
   7  -0.00923  -0.16433   4.29055
   6  -0.00511  -0.21490   2.87940
   6   0.76235  -1.18755   2.20222
   6   0.77225  -1.23535   0.82764
   6   0.00459  -0.31478   0.06877
   6   0.01000  -0.36433  -1.32790
   6   0.01514  -0.40788  -2.54916
   6   0.02185  -0.45843  -3.95379
   6  -0.73587   0.46092  -4.71316
   6  -0.73026   0.40287  -6.09467
   6   0.03684  -0.55975  -6.77679
   6   0.04432  -0.63525  -8.24314
   6   0.13281  -1.76007  -9.03480
   6   0.11811  -1.45425 -10.41690
   6   0.02073  -0.10513 -10.66993
  16  -0.05265   0.83155  -9.21707
   6   0.00029   0.16100 -12.09247
   6  -0.08593   1.35525 -12.81932
   6  -0.08165   1.27578 -14.20055
   6   0.00757   0.01253 -14.84925
   6   0.09376  -1.18359 -14.11853
   6   0.08918  -1.10304 -12.73980
   6   0.17143  -2.24316 -11.71525
   6  -1.03219  -3.20204 -11.84381
   6   1.49712  -3.02387 -11.84829
   6  -0.01123   0.27436 -16.26430
  16   0.05441  -0.66197 -17.72020
   6  -0.04946   0.79679 -18.66995
   6  -0.12962   1.93342 -17.90054
   6  -0.10750   1.63291 -16.52147
   6  -0.16233   2.41842 -15.22209
   6   1.04161   3.37658 -15.09073
   6  -1.48814   3.19914 -15.08988
   6   0.80225  -1.46668  -6.01924
   6   0.79048  -1.42759  -4.63754
   6  -0.76824   0.65698   0.75504
   6  -0.76786   0.70684   2.12964
   6  -0.17593  -1.40725   5.00803
   8  -0.32302  -2.44312   4.37517
   6  -0.17459  -1.30731   6.45135
   6  -0.33984  -2.47924   7.20783
   6  -0.34230  -2.43833   8.58140
   6  -0.18047  -1.22225   9.29052
   6  -0.17986  -1.17102  10.73631
   6  -0.33749  -2.32685  11.53464
   6  -0.33520  -2.26531  12.91472
   6  -0.17525  -1.04573  13.57555
   6  -0.17738  -1.01791  15.04293
   8  -0.31570  -2.03308  15.71562
   6  -0.01387   0.13853  12.82346
   6  -0.01426   0.08777  11.39026
   6  -0.01372  -0.01306   8.54510
   6  -0.01279  -0.06413   7.10750
   1  -1.24089   0.92759  18.79461
   1  -1.11277   2.12013  17.48512
   1  -2.13980   0.68442  17.29222
   1  -0.15259  -0.78046  17.41262
   1   1.53101   1.76900  17.49312
   1   1.33588   0.58516  18.80227
   1   2.14889   0.11494  17.30488
   1   0.42888   3.47597  13.27954
   1   0.43509   3.43713  10.82818
   1   0.44325   3.37039   8.88483
   1   0.43921   3.24872   6.44321
   1   1.34392  -1.89253   2.77395
   1   1.37480  -1.97224   0.31204
   1  -1.33054   1.20629  -4.20042
   1  -1.34067   1.09836  -6.65799
   1   0.17591  -2.75840  -8.61965
   1  -0.15322   2.30984 -12.30906
   1   0.16228  -2.13819 -14.62879
   1  -1.97715  -2.66221 -11.75583
   1  -1.01715  -3.71366 -12.80960
   1  -0.99822  -3.96414 -11.06076
   1   2.35743  -2.35700 -11.76266
   1   1.57220  -3.78374 -11.06587
   1   1.55103  -3.53213 -12.81446
   1  -0.04468   0.72216 -19.74671
   1  -0.20009   2.92474 -18.32757
   1   1.98657   2.83708 -15.18054
   1   1.00722   4.14162 -15.87073
   1   1.02624   3.88384 -14.12269
   1  -2.34863   2.53313 -15.17969
   1  -1.54317   3.70311 -14.12155
   1  -1.56113   3.96192 -15.86944
   1   1.42387  -2.19323  -6.52755
   1   1.38220  -2.13153  -4.06607
   1  -1.36698   1.35534   0.18431
   1  -1.35315   1.45050   2.64587
   1  -0.46502  -3.41571   6.67935
   1  -0.47251  -3.36386   9.12340
   1  -0.46398  -3.29292  11.06671
   1  -0.45691  -3.15886  13.51373
 loop 1 0
 mod cartes coords mol 2
   6  -1.20056   1.05782  17.70896
   6  -0.01277   0.26603  17.15007
   6   1.33722   0.72074  17.71654
   7  -0.01127   0.24276  15.65919
   6   0.15184   1.44823  14.95639
   8   0.29062   2.50958  15.55576
   6   0.14788   1.37293  13.48948
   6   0.30707   2.54266  12.74450
   6   0.30875   2.50659  11.36336
   6   0.15119   1.29722  10.64896
   6   0.15225   1.24588   9.20303
   6   0.31423   2.40868   8.40967
   6   0.31356   2.35206   7.03664
   6   0.14993   1.12933   6.36502
   6   0.15462   1.12656   4.91822
   8   0.30283   2.11505   4.21387
   7  -0.00923  -0.16433   4.29055
   6  -0.00511  -0.21490   2.87940
   6   0.76235  -1.18755   2.20222
   6   0.77225  -1.23535   0.82764
   6   0.00459  -0.31478   0.06877
   6   0.01000  -0.36433  -1.32790
   6   0.01514  -0.40788  -2.54916
   6   0.02185  -0.45843  -3.95379
   6  -0.73587   0.46092  -4.71316
[...]
  7.917200863233394E-005  2.045673884745629E-008
  8.146015511348520E-005  2.045673884745629E-008
  8.244569162081407E-005  2.045673884745629E-008
  8.551982993359448E-005  2.045673884745629E-008
  8.764585294716077E-005  2.045673884745629E-008
  8.992468898871268E-005  2.045673884745629E-008
  9.200288237663868E-005  2.045673884745629E-008
  9.320891576243090E-005  2.045673884745629E-008
  9.477587419683779E-005  2.045673884745629E-008
  9.582273568444085E-005  2.045673884745629E-008
  9.750887978128332E-005  2.045673884745629E-008
  1.024321029082942E-004  2.045673884745629E-008
  1.078916508661719E-004  2.045673884745629E-008
  1.136896629886889E-004  2.045673884745629E-008
  1.188833319748993E-004  2.045673884745629E-008
  1.198772200722601E-004  2.045673884745629E-008
  1.208980051380872E-004  2.045673884745629E-008
  1.209412129684535E-004  2.045673884745629E-008
  1.224836407464502E-004  2.045673884745629E-008
  1.273502239496651E-004  2.045673884745629E-008
  1.296218023561487E-004  2.045673884745629E-008
  1.324799159686143E-004  2.045673884745629E-008
  1.358987731128824E-004  2.045673884745629E-008
  1.365232811117708E-004  2.045673884745629E-008
  1.372877940943465E-004  2.045673884745629E-008
  1.406941129905583E-004  2.045673884745629E-008
  1.439025490007573E-004  2.045673884745629E-008
  1.477358159706669E-004  2.045673884745629E-008
  1.483311578902672E-004  2.045673884745629E-008
  1.553591856990851E-004  2.045673884745629E-008
  1.565546409522773E-004  2.045673884745629E-008
  1.590777460624943E-004  2.045673884745629E-008
  1.635437175494264E-004  2.045673884745629E-008
  1.670544280743817E-004  2.045673884745629E-008
  1.742134950350492E-004  2.045673884745629E-008
  1.784009127156148E-004  2.045673884745629E-008
  1.795365927503139E-004  2.045673884745629E-008
  1.818153087336732E-004  2.045673884745629E-008
  1.903111934157045E-004  2.045673884745629E-008
  2.022597017291459E-004  2.045673884745629E-008
  2.120059038407375E-004  2.045673884745629E-008
  2.218180332653110E-004  2.045673884745629E-008
  2.243985649669296E-004  2.045673884745629E-008
  2.285725464652399E-004  2.045673884745629E-008
  2.289407984981258E-004  2.045673884745629E-008
  2.311990124011587E-004  2.045673884745629E-008
  2.504175908029506E-004  2.045673884745629E-008
  2.619935984862136E-004  2.045673884745629E-008
  2.680289819986644E-004  2.045673884745629E-008
  2.847882793248467E-004  2.045673884745629E-008
  2.865186819708404E-004  2.045673884745629E-008
  2.896227249480505E-004  2.045673884745629E-008
  2.902259046654855E-004  2.045673884745629E-008
  2.973460831112536E-004  2.045673884745629E-008
  2.978623826348112E-004  2.045673884745629E-008
  3.059688530134330E-004  2.045673884745629E-008
  3.139581258787441E-004  2.045673884745629E-008
  3.218144349879437E-004  2.045673884745629E-008
  3.426882175464084E-004  2.045673884745629E-008
  3.538594782898871E-004  2.045673884745629E-008
  3.591595861228303E-004  2.045673884745629E-008
  3.618426951698299E-004  2.045673884745629E-008
  3.700284847279044E-004  2.045673884745629E-008
  3.782740028360393E-004  2.045673884745629E-008
  3.813293192516885E-004  2.045673884745629E-008
  3.848241609399362E-004  2.045673884745629E-008
  3.856484208375076E-004  2.045673884745629E-008
  3.906211383967310E-004  2.045673884745629E-008
  3.923917721241174E-004  2.045673884745629E-008
  3.981070203946393E-004  2.045673884745629E-008
  4.122465332905166E-004  2.045673884745629E-008
  4.215350971179996E-004  2.045673884745629E-008
  4.237881923884992E-004  2.045673884745629E-008
  4.256564806487144E-004  2.045673884745629E-008
  4.283409998160592E-004  2.045673884745629E-008
  4.303107296408951E-004  2.045673884745629E-008
  4.328452779030953E-004  2.045673884745629E-008
  4.360217538040356E-004  2.045673884745629E-008
  4.405415457814859E-004  2.045673884745629E-008
  4.428533604565423E-004  2.045673884745629E-008
  4.469555558383306E-004  2.045673884745629E-008
  4.597862582312495E-004  2.045673884745629E-008
  4.617601211897781E-004  2.045673884745629E-008
  4.631151199306994E-004  2.045673884745629E-008
  4.683902737378284E-004  2.045673884745629E-008
  4.686242168907540E-004  2.045673884745629E-008
  4.851381977533001E-004  2.045673884745629E-008
  4.943096661141652E-004  2.045673884745629E-008
  5.066088286257050E-004  2.045673884745629E-008
  5.105665215303691E-004  2.045673884745629E-008
  5.226709140732390E-004  2.045673884745629E-008
  5.332256993037603E-004  2.045673884745629E-008
  5.339048173622237E-004  2.045673884745629E-008
  5.350947065597174E-004  2.045673884745629E-008
  5.351435509979791E-004  2.045673884745629E-008
  5.361033702519076E-004  2.045673884745629E-008
  5.373245008756885E-004  2.045673884745629E-008
  5.434184396101628E-004  2.045673884745629E-008
  5.535446630079532E-004  2.045673884745629E-008
  5.558395925620869E-004  2.045673884745629E-008
  5.559120965757142E-004  2.045673884745629E-008
  5.561741084520823E-004  2.045673884745629E-008
  5.562085120720678E-004  2.045673884745629E-008
  5.562223567828514E-004  2.045673884745629E-008
  5.562304805912191E-004  2.045673884745629E-008
  5.730877991379501E-004  2.045673884745629E-008
  5.783982279913134E-004  2.045673884745629E-008
  5.784302750634165E-004  2.045673884745629E-008
  5.873652199992548E-004  2.045673884745629E-008
  5.880044450876554E-004  2.045673884745629E-008
  5.944783588825059E-004  2.045673884745629E-008
  5.963296203428646E-004  2.045673884745629E-008
  5.971050906414975E-004  2.045673884745629E-008
  5.977704322015388E-004  2.045673884745629E-008
  5.985444179064310E-004  2.045673884745629E-008
  5.989612485068545E-004  2.045673884745629E-008
  5.992541434092708E-004  2.045673884745629E-008
  5.995946440248302E-004  2.045673884745629E-008
  5.998657291293640E-004  2.045673884745629E-008
  6.002243337449640E-004  2.045673884745629E-008
  6.003030581733987E-004  2.045673884745629E-008
  6.022173058041232E-004  2.045673884745629E-008
  6.163550989711029E-004  2.045673884745629E-008
  6.195402682069426E-004  2.045673884745629E-008
  6.255644306013098E-004  2.045673884745629E-008
  6.263350548443851E-004  2.045673884745629E-008
  6.292554454601073E-004  2.045673884745629E-008
  6.345252771002430E-004  2.045673884745629E-008
  6.362459954753243E-004  2.045673884745629E-008
  6.369868222336462E-004  2.045673884745629E-008
  6.414195595926068E-004  2.045673884745629E-008
  6.448913225637227E-004  2.045673884745629E-008
  6.457275857643159E-004  2.045673884745629E-008
  6.474892953522429E-004  2.045673884745629E-008
  6.491164790296215E-004  2.045673884745629E-008
  6.494270936572173E-004  2.045673884745629E-008
  6.694746322964885E-004  2.045673884745629E-008
  6.760423831569179E-004  2.045673884745629E-008
  6.765292114085914E-004  2.045673884745629E-008
  6.931857042398687E-004  2.045673884745629E-008
  6.967848656871099E-004  2.045673884745629E-008
  7.076254130181552E-004  2.045673884745629E-008
  7.660484749546042E-004  2.045673884745629E-008
  7.935276454049217E-004  2.045673884745629E-008
  8.152950382062109E-004  2.045673884745629E-008
  8.483044012983847E-004  2.045673884745629E-008
  8.826023653181594E-004  2.045673884745629E-008
  9.531719491766163E-004  2.045673884745629E-008
  9.864576485257605E-004  2.045673884745629E-008
  9.910010161994661E-004  2.045673884745629E-008
  9.944122769141744E-004  2.045673884745629E-008
  1.066610203098243E-003  2.045673884745629E-008
  1.078032931270729E-003  2.045673884745629E-008
  1.080401154460011E-003  2.045673884745629E-008
  1.091647179802211E-003  2.045673884745629E-008
  1.093382545053787E-003  2.045673884745629E-008
  1.094329789170394E-003  2.045673884745629E-008
  1.094988932803142E-003  2.045673884745629E-008
  1.095528909833418E-003  2.045673884745629E-008
  1.099645795600340E-003  2.045673884745629E-008
  1.101036399230129E-003  2.045673884745629E-008
  1.107937449553336E-003  2.045673884745629E-008
  1.108024324574500E-003  2.045673884745629E-008
  1.111647013886784E-003  2.045673884745629E-008
  1.134347404487334E-003  2.045673884745629E-008
  1.135279926584258E-003  2.045673884745629E-008
  1.145592380110528E-003  2.045673884745629E-008
  1.146870393709296E-003  2.045673884745629E-008
  1.149916917377952E-003  2.045673884745629E-008
  1.155527416465322E-003  2.045673884745629E-008
  1.161065798988903E-003  2.045673884745629E-008
  1.164355308225281E-003  2.045673884745629E-008
  1.164859496942500E-003  2.045673884745629E-008
  1.165678220075187E-003  2.045673884745629E-008
  1.166191469076360E-003  2.045673884745629E-008
  1.167893551998780E-003  2.045673884745629E-008
  1.168431119768009E-003  2.045673884745629E-008
  1.172359975210379E-003  2.045673884745629E-008
  1.179073765695513E-003  2.045673884745629E-008
  1.180375289946819E-003  2.045673884745629E-008
  1.180788292647497E-003  2.045673884745629E-008
  1.180904279434690E-003  2.045673884745629E-008
  1.181660289122185E-003  2.045673884745629E-008
  1.185385794728174E-003  2.045673884745629E-008
  1.211395853668716E-003  2.045673884745629E-008
  1.254589221077455E-003  2.045673884745629E-008
  1.291444065638016E-003  2.045673884745629E-008
  1.349892457239667E-003  2.045673884745629E-008
  1.494260006850546E-003  2.045673884745629E-008
  1.511203865279663E-003  2.045673884745629E-008
  1.585128659223656E-003  2.045673884745629E-008
  1.590325068481799E-003  2.045673884745629E-008
  1.610658591380457E-003  2.045673884745629E-008
  1.670972172198155E-003  2.045673884745629E-008
  1.671067747459758E-003  2.045673884745629E-008
  1.706192901033877E-003  2.045673884745629E-008
  1.723551250314174E-003  2.045673884745629E-008
  1.724789468926225E-003  2.045673884745629E-008
  1.792301521459391E-003  2.045673884745629E-008
  1.912021106525751E-003  2.045673884745629E-008
  1.915599768396023E-003  2.045673884745629E-008
  2.033459480331657E-003  2.045673884745629E-008
  2.158653386990503E-003  2.045673884745629E-008
  2.276630002825888E-003  2.045673884745629E-008
  2.335974398668761E-003  2.045673884745629E-008
  2.339999083975458E-003  2.045673884745629E-008
  2.340738986865354E-003  2.045673884745629E-008
  2.353481267791636E-003  2.045673884745629E-008
  2.372155965652639E-003  2.045673884745629E-008
  2.417178580588549E-003  2.045673884745629E-008
  2.521080753808277E-003  2.045673884745629E-008
  2.534054321997964E-003  2.045673884745629E-008
  2.562161325048118E-003  2.045673884745629E-008
  2.780025768741645E-003  2.045673884745629E-008
  2.925137437840882E-003  2.045673884745629E-008
  3.021772435385048E-003  2.045673884745629E-008
  3.027342230856957E-003  2.045673884745629E-008
  3.030588311021157E-003  2.045673884745629E-008
  3.034345690521029E-003  2.045673884745629E-008
  3.035982006863168E-003  2.045673884745629E-008
  3.042629196516110E-003  2.045673884745629E-008
  3.047191208008798E-003  2.045673884745629E-008
  3.047238871611522E-003  2.045673884745629E-008
  3.083277119299302E-003  2.045673884745629E-008
  3.090671874345827E-003  2.045673884745629E-008
  3.095538402159401E-003  2.045673884745629E-008
  3.096113346558895E-003  2.045673884745629E-008
  3.417560804669477E-003  2.045673884745629E-008
  3.420654328198615E-003  2.045673884745629E-008
  3.600121957753060E-003  2.045673884745629E-008
  3.658817899504114E-003  2.045673884745629E-008
  3.663783423398156E-003  2.045673884745629E-008
  3.665385811579613E-003  2.045673884745629E-008
  3.689230823028963E-003  2.045673884745629E-008
  3.711546025707646E-003  2.045673884745629E-008
  3.713072570690412E-003  2.045673884745629E-008
  3.748472468584952E-003  2.045673884745629E-008
  3.784320321014219E-003  2.045673884745629E-008
  3.930499579970575E-003  2.045673884745629E-008
  4.038579140065328E-003  2.045673884745629E-008
  2.164145713080313E-002  2.045673884745629E-008
   316.578829142564       2.045673884745629E-008
   2532.67534455723       2.045673884745629E-008
 cut=1d-8, nber non-redundant internal coords=         321
 Check on Eigenvals of non-red overlap matrix:
  0.00000002  0.00000006  0.00000019  0.00000030  0.00000046  0.00000090  0.00000105  0.00000180
  0.00000205  0.00000220  0.00000342  0.00000408  0.00000456  0.00000565  0.00000638  0.00000784
  0.00000813  0.00000955  0.00000984  0.00001071  0.00001117  0.00001188  0.00001382  0.00001429
  0.00001462  0.00001563  0.00001631  0.00001749  0.00001786  0.00001793  0.00001839  0.00002155
  0.00002246  0.00002328  0.00002385  0.00002396  0.00002521  0.00002539  0.00002665  0.00002877
  0.00002974  0.00002977  0.00003108  0.00003290  0.00003566  0.00003601  0.00003765  0.00003934
  0.00003995  0.00004005  0.00004107  0.00004257  0.00004383  0.00004473  0.00004719  0.00004788
  0.00004892  0.00005009  0.00005083  0.00005090  0.00005221  0.00005229  0.00005345  0.00005405
  0.00005590  0.00005789  0.00005927  0.00006220  0.00006322  0.00006682  0.00006769  0.00006984
  0.00007124  0.00007137  0.00007163  0.00007530  0.00007570  0.00007821  0.00007917  0.00008146
  0.00008245  0.00008552  0.00008765  0.00008992  0.00009200  0.00009321  0.00009478  0.00009582
  0.00009751  0.00010243  0.00010789  0.00011369  0.00011888  0.00011988  0.00012090  0.00012094
  0.00012248  0.00012735  0.00012962  0.00013248  0.00013590  0.00013652  0.00013729  0.00014069
  0.00014390  0.00014774  0.00014833  0.00015536  0.00015655  0.00015908  0.00016354  0.00016705
  0.00017421  0.00017840  0.00017954  0.00018182  0.00019031  0.00020226  0.00021201  0.00022182
  0.00022440  0.00022857  0.00022894  0.00023120  0.00025042  0.00026199  0.00026803  0.00028479
  0.00028652  0.00028962  0.00029023  0.00029735  0.00029786  0.00030597  0.00031396  0.00032181
  0.00034269  0.00035386  0.00035916  0.00036184  0.00037003  0.00037827  0.00038133  0.00038482
  0.00038565  0.00039062  0.00039239  0.00039811  0.00041225  0.00042154  0.00042379  0.00042566
  0.00042834  0.00043031  0.00043285  0.00043602  0.00044054  0.00044285  0.00044696  0.00045979
  0.00046176  0.00046312  0.00046839  0.00046862  0.00048514  0.00049431  0.00050661  0.00051057
  0.00052267  0.00053323  0.00053390  0.00053509  0.00053514  0.00053610  0.00053732  0.00054342
  0.00055354  0.00055584  0.00055591  0.00055617  0.00055621  0.00055622  0.00055623  0.00057309
  0.00057840  0.00057843  0.00058737  0.00058800  0.00059448  0.00059633  0.00059711  0.00059777
  0.00059854  0.00059896  0.00059925  0.00059959  0.00059987  0.00060022  0.00060030  0.00060222
  0.00061636  0.00061954  0.00062556  0.00062634  0.00062926  0.00063453  0.00063625  0.00063699
  0.00064142  0.00064489  0.00064573  0.00064749  0.00064912  0.00064943  0.00066947  0.00067604
  0.00067653  0.00069319  0.00069678  0.00070763  0.00076605  0.00079353  0.00081530  0.00084830
  0.00088260  0.00095317  0.00098646  0.00099100  0.00099441  0.00106661  0.00107803  0.00108040
  0.00109165  0.00109338  0.00109433  0.00109499  0.00109553  0.00109965  0.00110104  0.00110794
  0.00110802  0.00111165  0.00113435  0.00113528  0.00114559  0.00114687  0.00114992  0.00115553
  0.00116107  0.00116436  0.00116486  0.00116568  0.00116619  0.00116789  0.00116843  0.00117236
  0.00117907  0.00118038  0.00118079  0.00118090  0.00118166  0.00118539  0.00121140  0.00125459
  0.00129144  0.00134989  0.00149426  0.00151120  0.00158513  0.00159033  0.00161066  0.00167097
  0.00167107  0.00170619  0.00172355  0.00172479  0.00179230  0.00191202  0.00191560  0.00203346
  0.00215865  0.00227663  0.00233597  0.00234000  0.00234074  0.00235348  0.00237216  0.00241718
  0.00252108  0.00253405  0.00256216  0.00278003  0.00292514  0.00302177  0.00302734  0.00303059
  0.00303435  0.00303598  0.00304263  0.00304719  0.00304724  0.00308328  0.00309067  0.00309554
  0.00309611  0.00341756  0.00342065  0.00360012  0.00365882  0.00366378  0.00366539  0.00368923
  0.00371155  0.00371307  0.00374847  0.00378432  0.00393050  0.00403858  0.02164146316.57882914
************
 d1=
 304.0 -41.8 -91.3  18.5 -56.3 209.6 -53.9 -55.7  23.5 167.7  34.4   4.9 -73.9 -78.4  10.7  63.9  74.3 -74.9 -35.6 -39.2
  37.6 -80.4 329.2 293.1 -29.1  -2.9  -6.8 -47.4  80.9  37.9  17.1   6.2  15.1-311.0-753.9 -42.6 -60.5 -35.7-160.9 -51.3
   1.0  -0.5   2.0   5.6-330.8-224.6-400.0  40.4   8.6   0.3   8.3  -1.0  -1.2  10.4 -12.3   2.9   5.8 -96.8 -22.3  -6.1
   4.5  -5.9  54.4 311.5 510.4 -86.3-276.8 121.5  58.6  71.9 -16.7  31.5 -18.9 107.8 272.9 184.4  33.0  11.4  -6.6   2.5
 -93.0 -80.8-135.1 -53.0 193.3  16.9-112.9 -25.5  -0.7-345.9  24.0  98.7   8.8  -5.6   1.8 -13.1  -3.3   0.9   1.1 -23.2
  -2.2  -2.4  16.5   9.5  -1.9  -5.9  -4.0-108.9 -40.8   1.2  11.1 -59.7 -11.5  -7.4 -33.4   0.8 -58.5-118.9   0.6   4.5
   5.8   3.8   0.5   2.4   0.6   5.9   3.1  -1.7 -26.7  -1.6   2.5   1.9   0.9   2.8  -2.8   3.0   1.4  35.8  -1.1  -2.9
   2.1   1.1  -0.8  18.4  11.6   0.2  -3.8   1.8  -0.5 -41.4   0.8  12.4   2.0   0.9  -0.2   4.7  -3.5   4.0  -4.9  -0.4
   0.4  -0.7   0.6  -3.1  23.6   0.4   0.3   0.5   0.2  13.6  29.1  -7.5  -3.3 -23.5  -0.0   8.4  -0.0   0.9   0.0   0.0
  -0.0  -0.3  -0.0 -11.8  -0.0   0.2   0.5  18.8  -0.1   0.5  -0.5   0.3  -0.1   0.0   0.0   0.0   0.0   0.8   1.2  -0.1
   0.1  45.2  -0.3   0.4  -2.0  -1.7   0.2   0.6   0.1  -0.0  -0.1   0.0  -0.4  -0.9 -36.7   0.3  -0.2  36.5   0.2  12.5
   4.7  42.4  12.3  -3.9  -7.0   1.0  -0.0   0.1  33.0  -0.1  -0.2   0.0  -0.0   0.0  -0.1   1.5  -0.1  -0.4   0.1  -0.1
   0.6  11.9   0.0   0.3   0.4   0.3   0.2  -0.6  -0.0   0.0  -0.0   0.0  -0.2   3.3  -4.4   0.6   0.0  -0.3  -0.7  -0.0
  -0.0   0.0  -6.5 -31.8  -0.3 -20.8 -13.5  -4.1  -0.6  -0.2   0.5   0.3   1.7  -0.9   6.2   1.5  -3.8   2.8   0.0   0.8
  -0.4   0.3  -0.0   7.6   6.7   9.9   1.6  -1.1   0.9   2.0   2.0   0.3 -37.9  -4.3  -0.5   0.1  -0.1   0.1   0.0  -0.1
   0.1 -18.8  -0.2  -0.1   0.1   0.8  -0.3   3.1  -0.4   0.1  -0.9  -4.2   0.2  -0.8  -2.6   3.8  -0.0   0.0 -13.8  -0.1
   0.0
 d2=
-445.5 261.1 -60.8  -6.5-203.8 136.5 -91.8 -23.8  66.5 141.6 -20.1-124.1  97.2  27.6  37.2  36.4 -30.4 -85.3 -22.8  65.6
  64.7 -87.9 -27.6-446.1 -50.5  31.3 -13.7 -10.9 -45.1 -19.0  16.5   4.8 -62.1-702.8-328.4 181.1  -1.1 -98.5 156.5-213.3
   8.0 -30.8 -35.7 -13.4-250.4 293.4-378.3 -64.6   0.6  28.1   6.4  -0.6  -1.8   3.9  -1.2   1.2   5.8-102.1 -60.7  36.9
  -4.9   5.9 -57.4  57.8 610.1 -42.8-167.2 187.8 110.2 -47.3  16.2 -61.1-144.3 115.0-247.1-102.5-132.9  -5.9 122.0   8.9
 -11.5 -27.4-133.6  26.2  97.4  21.5  -8.1  57.2 -88.1 405.2   9.9 -25.1   2.4   1.1   0.7   1.2  -1.4   1.9  -7.9  -0.2
 -56.0 -12.1  -7.2  -1.5  -1.0   4.7   0.5  52.5   5.5   4.9  82.9 -16.9  17.6  50.3   4.4   1.1  85.9 -91.5  37.1 -17.4
  31.3   9.3 -17.4   0.4  -0.8   2.6  -0.3   6.7 -26.6   6.7   0.4  -1.6   3.4   8.7 -19.7  -3.6  -1.2 -23.8   1.2   3.1
  -2.2  -0.2  -2.5 -16.8  -9.6   0.4  -0.9   0.4  -0.4 -37.9 -15.4 -10.0  -1.6  -0.9   0.9  -1.0  -0.6   0.5   0.1  -0.3
   0.4  -0.0   2.2   0.4  23.1  -2.8  -0.2  -0.1   0.0  17.5 -24.7  -6.5   0.8 -18.7   0.1   6.1  -0.1   0.3  -0.0   0.1
   0.0  -0.2   0.1 -17.8   0.1  -0.2   9.8 -21.0   0.0   0.2  -0.3   0.1  -0.0   0.1   0.3  -0.0   0.3  -0.1   1.2  -0.2
  -4.3  45.6   0.2   0.8   1.3  -2.3   0.6   0.9  -0.1  -0.1   0.0   0.1  -1.0   0.6 -36.7   0.5  -0.2 -36.6  -0.1  11.2
  -3.0 -42.3 -14.7  -2.8  -2.1 -10.4   0.1   0.2  33.5  -4.6   1.0   0.0  -2.2   0.1   0.1  -0.0   0.1   3.5   7.9   0.9
  -1.3   0.5   0.1  -0.2  -0.3  -0.5   0.4  -0.7   0.5  -0.0   0.0   0.0  -0.1   0.1  -3.3   0.6   0.2  -0.1  -0.0   0.4
  -0.1  -0.0   5.8  31.7  -0.0  21.4  12.6  -7.9  -0.5   1.2  -0.5  -0.5   0.2   1.1   6.0   1.9  -3.8   1.4  -2.5  -0.9
  -0.3   0.2   7.9   0.0  -5.3  10.6  -0.1  -0.3  -0.9   2.0   2.0  -0.3 -38.1   4.5   0.4  -0.1   0.3   0.0   0.0  -0.1
   0.1 -18.5   0.1   0.1  -0.1   0.8  -0.5   2.1  -0.2   0.2   0.9  -5.2  -0.1  -0.8   1.7  -3.9  -0.0  -0.0  19.0   0.0
  -0.0
 p1=

 p2=


 Displacement: in terms of nc of 1 THEN of nc of 2


 total reorg energy (cm**-1, kcal/mol)=        0.        0.      0.00      0.00
 Nber of molecules processed=           2
