 Enter ifcurve (0=recti, 1=orth curvi, 2=apprx curvi, -1 = skip
 And atom ordering flag, 0= never changes, 1= use the first order thenceforth,
  2= deduce it (does read on fail), 3= always read it
 Reading file: 
 ./IDT-A_1_C0S1.log                                                             
                                          
  Entering Gaussian System, Link 0=g16                                          
  
 Gaussian format, type: g94, g98, g03= F F F
  #P Geom=AllCheck Guess=TCheck SCRF=Check GenChk RB3LYP TD(FC,Read)/6-3    
 energy type= TD      
 Original G94 input coords:
  6  1.030191 -1.265445 -1.326948
  6  2.488669 -1.005945 -0.891079
  6  2.708994 -1.489528  0.558698
  6  3.478445 -1.647961 -1.848925
  6  3.786104 -2.957951 -2.277974
  6  4.811286 -2.970377 -3.193185
 16  5.420429 -1.372528 -3.547291
  6  4.273272 -0.680132 -2.443010
  6  3.931868  0.634017 -1.983290
  6  4.449306  1.907216 -2.294605
  6  3.896747  3.003021 -1.672075
  6  2.823372  2.847786 -0.732334
  6  2.306554  1.568545 -0.422855
  6  2.862773  0.475844 -1.048545
  6  2.481670  4.144565 -0.273253
 16  1.332352  4.828312  0.836629
  6  1.937097  6.472997  0.481471
  6  1.364931  7.614586  1.119975
  6  0.261986  7.512209  2.011040
  6 -0.268838  8.616078  2.637141
  6  0.242858  9.923153  2.417404
  6 -0.339301 11.111573  3.025558
  6 -0.447485 12.283609  2.237839
  6 -1.108088 13.407729  2.673044
  6 -1.702762 13.452607  3.956186
  6 -2.426163 14.586851  4.414218
  6 -2.981826 14.622542  5.664283
  6 -2.838466 13.524656  6.564222
  6 -3.383324 13.542682  7.862996
  6 -3.211128 12.463519  8.724333
  6 -2.492713 11.344930  8.323028
  6 -1.931246 11.277352  7.030755
  6 -1.159387 10.166623  6.588018
  6 -0.641530 10.113433  5.321068
  6 -0.857346 11.153058  4.368728
  6 -1.559188 12.319367  4.814608
  6 -2.110627 12.371443  6.131849
  6  1.328845 10.025181  1.504488
  6  1.874001  8.923415  0.889574
  6  2.986956  6.419064 -0.459531
  6  3.282358  5.127273 -0.872186
  6  4.271241  4.483565 -1.831395
  6  4.048488  4.968120 -3.280208
  6  5.729215  4.745261 -1.395888
  1  0.800697 -2.333461 -1.277179
  1  0.860210 -0.925397 -2.350494
  1  0.331718 -0.739788 -0.670266
  1  2.506215 -2.561070  0.639053
  1  2.038041 -0.967196  1.246010
  1  3.736806 -1.309804  0.880361
  1  3.290999 -3.860145 -1.943308
  1  5.253382 -3.821725 -3.687812
  1  5.260954  2.011892 -3.006824
  1  1.494849  1.463004  0.288738
  1 -0.194177  6.544283  2.188460
  1 -1.134603  8.489864  3.273977
  1 -0.059524 12.265367  1.226092
  1 -1.206011 14.266706  2.017621
  1 -2.531588 15.435363  3.745720
  1 -3.534768 15.495820  5.994208
  1 -3.939649 14.415743  8.187296
  1 -3.638082 12.499352  9.720918
  1 -2.352453 10.510898  9.002422
  1 -0.968998  9.355519  7.283425
  1 -0.025890  9.268347  5.045049
  1  1.771611 10.997119  1.322835
  1  2.723822  9.061156  0.232098
  1  3.488587  7.308529 -0.813238
  1  4.720290  4.448237 -3.968664
  1  4.247805  6.040407 -3.358605
  1  3.020705  4.786996 -3.600985
  1  5.900284  4.404625 -0.372783
  1  5.955457  5.814028 -1.443270
  1  6.428421  4.222185 -2.053974
 nber atoms=          74
  Total Energy, E(TD-HF/TD-DFT) =  -2415.30309999                               
  
          32          49 "  -2415.30309999"
After scan for Atom:   Atom  AN      X      Y      Z        X      Y      Z        X      Y      Z   
After scan for Atom:   Atom  AN      X      Y      Z        X      Y      Z        X      Y      Z   
After scan for Atom:   Atom  AN      X      Y      Z        X      Y      Z        X      Y      Z   
After scan for Atom:   Atom  AN      X      Y      Z        X      Y      Z        X      Y      Z   
After scan for Atom:   Atom  AN      X      Y      Z        X      Y      Z        X      Y      Z   
After scan for Atom:   Atom  AN      X      Y      Z        X      Y      Z        X      Y      Z   
After scan for Atom:   Atom  AN      X      Y      Z        X      Y      Z        X      Y      Z   
After scan for Atom:   Atom  AN      X      Y      Z        X      Y      Z        X      Y      Z   
After scan for Atom:   Atom  AN      X      Y      Z        X      Y      Z        X      Y      Z   
After scan for Atom:   Atom  AN      X      Y      Z        X      Y      Z        X      Y      Z   
After scan for Atom:   Atom  AN      X      Y      Z        X      Y      Z        X      Y      Z   
After scan for Atom:   Atom  AN      X      Y      Z        X      Y      Z        X      Y      Z   
After scan for Atom:   Atom  AN      X      Y      Z        X      Y      Z        X      Y      Z   
After scan for Atom:   Atom  AN      X      Y      Z        X      Y      Z        X      Y      Z   
After scan for Atom:   Atom  AN      X      Y      Z        X      Y      Z        X      Y      Z   
After scan for Atom:   Atom  AN      X      Y      Z        X      Y      Z        X      Y      Z   
After scan for Atom:   Atom  AN      X      Y      Z        X      Y      Z        X      Y      Z   
After scan for Atom:   Atom  AN      X      Y      Z        X      Y      Z        X      Y      Z   
After scan for Atom:   Atom  AN      X      Y      Z        X      Y      Z        X      Y      Z   
After scan for Atom:   Atom  AN      X      Y      Z        X      Y      Z        X      Y      Z   
After scan for Atom:   Atom  AN      X      Y      Z        X      Y      Z        X      Y      Z   
After scan for Atom:   Atom  AN      X      Y      Z        X      Y      Z        X      Y      Z   
After scan for Atom:   Atom  AN      X      Y      Z        X      Y      Z        X      Y      Z   
After scan for Atom:   Atom  AN      X      Y      Z        X      Y      Z        X      Y      Z   
After scan for Atom:   Atom  AN      X      Y      Z        X      Y      Z        X      Y      Z   
After scan for Atom:   Atom  AN      X      Y      Z        X      Y      Z        X      Y      Z   
After scan for Atom:   Atom  AN      X      Y      Z        X      Y      Z        X      Y      Z   
After scan for Atom:   Atom  AN      X      Y      Z        X      Y      Z        X      Y      Z   
After scan for Atom:   Atom  AN      X      Y      Z        X      Y      Z        X      Y      Z   
After scan for Atom:   Atom  AN      X      Y      Z        X      Y      Z        X      Y      Z   
After scan for Atom:   Atom  AN      X      Y      Z        X      Y      Z        X      Y      Z   
After scan for Atom:   Atom  AN      X      Y      Z        X      Y      Z        X      Y      Z   
After scan for Atom:   Atom  AN      X      Y      Z        X      Y      Z        X      Y      Z   
After scan for Atom:   Atom  AN      X      Y      Z        X      Y      Z        X      Y      Z   
After scan for Atom:   Atom  AN      X      Y      Z        X      Y      Z        X      Y      Z   
After scan for Atom:   Atom  AN      X      Y      Z        X      Y      Z        X      Y      Z   
After scan for Atom:   Atom  AN      X      Y      Z        X      Y      Z        X      Y      Z   
After scan for Atom:   Atom  AN      X      Y      Z        X      Y      Z        X      Y      Z   
After scan for Atom:   Atom  AN      X      Y      Z        X      Y      Z        X      Y      Z   
After scan for Atom:   Atom  AN      X      Y      Z        X      Y      Z        X      Y      Z   
After scan for Atom:   Atom  AN      X      Y      Z        X      Y      Z        X      Y      Z   
After scan for Atom:   Atom  AN      X      Y      Z        X      Y      Z        X      Y      Z   
After scan for Atom:   Atom  AN      X      Y      Z        X      Y      Z        X      Y      Z   
After scan for Atom:   Atom  AN      X      Y      Z        X      Y      Z        X      Y      Z   
After scan for Atom:   Atom  AN      X      Y      Z        X      Y      Z        X      Y      Z   
After scan for Atom:   Atom  AN      X      Y      Z        X      Y      Z        X      Y      Z   
After scan for Atom:   Atom  AN      X      Y      Z        X      Y      Z        X      Y      Z   
After scan for Atom:   Atom  AN      X      Y      Z        X      Y      Z        X      Y      Z   
After scan for Atom:   Atom  AN      X      Y      Z        X      Y      Z        X      Y      Z   
After scan for Atom:   Atom  AN      X      Y      Z        X      Y      Z        X      Y      Z   
After scan for Atom:   Atom  AN      X      Y      Z        X      Y      Z        X      Y      Z   
After scan for Atom:   Atom  AN      X      Y      Z        X      Y      Z        X      Y      Z   
After scan for Atom:   Atom  AN      X      Y      Z        X      Y      Z        X      Y      Z   
After scan for Atom:   Atom  AN      X      Y      Z        X      Y      Z        X      Y      Z   
After scan for Atom:   Atom  AN      X      Y      Z        X      Y      Z        X      Y      Z   
After scan for Atom:   Atom  AN      X      Y      Z        X      Y      Z        X      Y      Z   
After scan for Atom:   Atom  AN      X      Y      Z        X      Y      Z        X      Y      Z   
After scan for Atom:   Atom  AN      X      Y      Z        X      Y      Z        X      Y      Z   
After scan for Atom:   Atom  AN      X      Y      Z        X      Y      Z        X      Y      Z   
After scan for Atom:   Atom  AN      X      Y      Z        X      Y      Z        X      Y      Z   
After scan for Atom:   Atom  AN      X      Y      Z        X      Y      Z        X      Y      Z   
After scan for Atom:   Atom  AN      X      Y      Z        X      Y      Z        X      Y      Z   
After scan for Atom:   Atom  AN      X      Y      Z        X      Y      Z        X      Y      Z   
After scan for Atom:   Atom  AN      X      Y      Z        X      Y      Z        X      Y      Z   
After scan for Atom:   Atom  AN      X      Y      Z        X      Y      Z        X      Y      Z   
After scan for Atom:   Atom  AN      X      Y      Z        X      Y      Z        X      Y      Z   
After scan for Atom:   Atom  AN      X      Y      Z        X      Y      Z        X      Y      Z   
After scan for Atom:   Atom  AN      X      Y      Z        X      Y      Z        X      Y      Z   
After scan for Atom:   Atom  AN      X      Y      Z        X      Y      Z        X      Y      Z   
After scan for Atom:   Atom  AN      X      Y      Z        X      Y      Z        X      Y      Z   
After scan for Atom:   Atom  AN      X      Y      Z        X      Y      Z        X      Y      Z   
After scan for Atom:   Atom  AN      X      Y      Z        X      Y      Z        X      Y      Z   
 g94    frequencies=
     0.0    0.0    0.0    0.0    0.0    0.0   10.3   11.4   20.4   27.0
    45.3   51.9   66.5   73.1   88.3  104.0  104.3  109.9  120.4  128.4
   142.9  151.8  159.9  185.5  199.1  208.4  221.0  222.7  232.4  243.3
   245.5  245.9  264.7  271.0  278.8  287.0  291.7  303.1  316.1  329.7
   346.4  371.1  372.7  403.6  411.0  413.9  417.0  424.5  431.7  447.1
   450.3  465.7  479.4  487.1  494.6  503.4  504.1  515.5  522.7  541.8
   549.2  554.1  565.9  570.7  573.3  602.5  617.9  618.2  632.9  640.4
   656.6  663.9  667.8  679.1  682.3  699.9  707.9  709.5  720.9  727.6
   732.4  737.5  741.8  754.6  772.5  776.7  792.1  794.8  802.9  812.1
   824.7  828.8  830.2  834.5  840.2  850.6  852.7  864.8  878.6  882.0
   884.8  891.6  898.2  937.6  949.0  949.4  950.9  959.3  962.4  968.1
   972.4  981.7  983.2  990.4  994.2  999.8 1004.8 1016.1 1030.1 1030.8
  1068.8 1093.5 1096.1 1104.4 1127.8 1134.6 1141.9 1154.8 1155.9 1163.3
  1163.4 1170.0 1182.0 1195.0 1200.0 1211.7 1219.3 1229.4 1235.2 1237.2
  1243.0 1248.1 1253.7 1267.5 1271.5 1281.1 1288.7 1307.5 1326.9 1341.9
  1357.1 1361.9 1364.7 1370.3 1376.1 1385.1 1397.1 1398.7 1398.9 1412.8
  1420.6 1422.6 1439.6 1446.3 1448.7 1454.5 1476.6 1484.5 1484.6 1485.8
  1487.2 1488.3 1490.1 1493.8 1495.8 1502.6 1503.8 1506.4 1508.6 1511.5
  1515.1 1525.7 1529.0 1536.5 1549.1 1553.1 1598.6 1605.3 1615.4 1622.5
  1632.2 1648.7 3025.3 3025.3 3029.0 3029.2 3088.6 3088.7 3093.7 3093.8
  3105.5 3105.9 3107.1 3107.6 3151.9 3153.8 3158.5 3158.7 3163.0 3164.9
  3166.3 3169.7 3171.2 3171.9 3179.0 3180.7 3190.9 3194.3 3200.7 3204.1
  3215.5 3242.7
 g94    symmetries=
                                                 A      A      A      A
       A      A      A      A      A      A      A      A      A      A
       A      A      A      A      A      A      A      A      A      A
       A      A      A      A      A      A      A      A      A      A
       A      A      A      A      A      A      A      A      A      A
       A      A      A      A      A      A      A      A      A      A
       A      A      A      A      A      A      A      A      A      A
       A      A      A      A      A      A      A      A      A      A
       A      A      A      A      A      A      A      A      A      A
       A      A      A      A      A      A      A      A      A      A
       A      A      A      A      A      A      A      A      A      A
       A      A      A      A      A      A      A      A      A      A
       A      A      A      A      A      A      A      A      A      A
       A      A      A      A      A      A      A      A      A      A
       A      A      A      A      A      A      A      A      A      A
       A      A      A      A      A      A      A      A      A      A
       A      A      A      A      A      A      A      A      A      A
       A      A      A      A      A      A      A      A      A      A
       A      A      A      A      A      A      A      A      A      A
       A      A      A      A      A      A      A      A      A      A
       A      A      A      A      A      A      A      A      A      A
       A      A      A      A      A      A      A      A      A      A
       A      A
 atomic masses:
 12.0000 12.0000 12.0000 12.0000 12.0000 12.0000 31.9721 12.0000 12.0000 12.0000
 12.0000 12.0000 12.0000 12.0000 12.0000 31.9721 12.0000 12.0000 12.0000 12.0000
 12.0000 12.0000 12.0000 12.0000 12.0000 12.0000 12.0000 12.0000 12.0000 12.0000
 12.0000 12.0000 12.0000 12.0000 12.0000 12.0000 12.0000 12.0000 12.0000 12.0000
 12.0000 12.0000 12.0000 12.0000  1.0078  1.0078  1.0078  1.0078  1.0078  1.0078
  1.0078  1.0078  1.0078  1.0078  1.0078  1.0078  1.0078  1.0078  1.0078  1.0078
  1.0078  1.0078  1.0078  1.0078  1.0078  1.0078  1.0078  1.0078  1.0078  1.0078
  1.0078  1.0078  1.0078  1.0078
 looking for force constants in 
 ./IDT-A_1_C0S1.fchk                                                            
  
 Cartesian Force Constants                  R   N=       24753                  
  
 n3=         222       24753
 g94-fc frequencies=
    -2.8   -0.9   -0.0   -0.0    0.0    0.7   10.3   11.5   20.4   27.0
    45.3   52.0   66.6   73.1   88.4  104.0  104.3  110.0  120.4  128.4
   142.9  151.9  159.9  185.5  199.1  208.4  221.0  222.7  232.4  243.3
   245.5  245.9  264.7  271.0  278.7  287.0  291.7  303.1  316.1  329.7
   346.4  371.1  372.7  403.6  411.0  413.9  417.0  424.5  431.7  447.2
   450.4  465.7  479.4  487.1  494.6  503.4  504.1  515.5  522.7  541.8
   549.2  554.1  565.9  570.7  573.4  602.5  617.9  618.2  632.9  640.4
   656.6  663.9  667.8  679.1  682.3  699.9  707.9  709.5  720.9  727.6
   732.4  737.5  741.8  754.7  772.5  776.7  792.1  794.8  803.0  812.2
   824.8  828.9  830.2  834.5  840.3  850.6  852.7  864.8  878.6  882.1
   884.8  891.6  898.2  937.6  949.1  949.4  950.9  959.3  962.4  968.2
   972.4  981.8  983.2  990.4  994.2  999.8 1004.8 1016.2 1030.2 1030.8
  1068.8 1093.5 1096.2 1104.4 1127.8 1134.7 1141.9 1154.9 1155.9 1163.3
  1163.4 1170.0 1182.0 1195.0 1200.0 1211.7 1219.3 1229.4 1235.2 1237.3
  1243.0 1248.2 1253.8 1267.5 1271.5 1281.1 1288.7 1307.5 1326.9 1341.9
  1357.2 1361.9 1364.7 1370.4 1376.1 1385.1 1397.2 1398.7 1398.9 1412.8
  1420.6 1422.6 1439.6 1446.4 1448.7 1454.6 1476.6 1484.5 1484.6 1485.8
  1487.2 1488.3 1490.1 1493.8 1495.8 1502.6 1503.8 1506.4 1508.6 1511.6
  1515.1 1525.7 1529.0 1536.5 1549.2 1553.2 1598.6 1605.3 1615.4 1622.5
  1632.3 1648.7 3025.4 3025.4 3029.0 3029.3 3088.6 3088.8 3093.8 3093.9
  3105.5 3106.0 3107.2 3107.6 3152.0 3153.8 3158.5 3158.8 3163.0 3164.9
  3166.3 3169.8 3171.3 3171.9 3179.0 3180.8 3191.0 3194.3 3200.8 3204.2
  3215.5 3242.8
 at 99999: n3=         222
 symm operator            1 :  F  nop=           0
 symm operator            2 :  F  nop=           0
 symm operator            3 :  F  nop=           0
 symm operator            4 :  F  nop=           0
 symm operator            5 :  F  nop=           0
 symm operator            6 :  F  nop=           0
 symm operator            7 :  F  nop=           0
 The point group of the molecule is  C1
 Symmetry rotation matrix:
   1.00000   0.00000   0.00000
   0.00000   1.00000   0.00000
   0.00000   0.00000   1.00000

 Projecting out zero-frequency components
 generating redundant internal coords
         300        3600          74
 search for int coords
   1 str   2   1   1.544
   2 str   3   2   1.544
   3 str   4   2   1.520
   4 str   5   4   1.412
   5 str   6   5   1.374
   6 str   7   6   1.746
   7 str   8   4   1.386
   8 str   8   7   1.736
   9 str   9   8   1.433
  10 str  10   9   1.409
  11 str  11  10   1.376
  12 str  12  11   1.435
  13 str  13  12   1.414
  14 str  14   2   1.536
  15 str  14   9   1.429
  16 str  14  13   1.377
  17 str  15  12   1.417
  18 str  16  15   1.738
  19 str  17  16   1.788
  20 str  18  17   1.428
  21 str  19  18   1.422
  22 str  20  19   1.376
  23 str  21  20   1.421
  24 str  22  21   1.456
  25 str  23  22   1.416
  26 str  24  23   1.375
  27 str  25  24   1.415
  28 str  26  25   1.421
  29 str  27  26   1.368
  30 str  28  27   1.427
  31 str  29  28   1.409
  32 str  30  29   1.391
  33 str  31  30   1.389
  34 str  32  31   1.411
  35 str  33  32   1.423
  36 str  34  33   1.370
  37 str  35  22   1.440
  38 str  35  34   1.426
  39 str  36  25   1.429
  40 str  36  35   1.432
  41 str  37  28   1.431
  42 str  37  32   1.427
  43 str  37  36   1.429
  44 str  38  21   1.422
  45 str  39  18   1.423
  46 str  39  38   1.374
  47 str  40  17   1.411
  48 str  41  15   1.402
  49 str  41  40   1.388
  50 str  42  11   1.535
  51 str  42  41   1.521
  52 str  43  42   1.544
  53 str  44  42   1.544
  54 str  45   1   1.094
  55 str  46   1   1.092
  56 str  47   1   1.093
  57 str  48   3   1.094
  58 str  49   3   1.093
  59 str  50   3   1.092
  60 str  51   5   1.082
  61 str  52   6   1.079
  62 str  53  10   1.085
  63 str  54  13   1.085
  64 str  55  19   1.085
  65 str  56  20   1.082
  66 str  57  23   1.084
  67 str  58  24   1.085
  68 str  59  26   1.085
  69 str  60  27   1.085
  70 str  61  29   1.085
  71 str  62  30   1.085
  72 str  63  31   1.085
  73 str  64  33   1.085
  74 str  65  34   1.081
  75 str  66  38   1.083
  76 str  67  39   1.083
  77 str  68  40   1.081
  78 str  69  43   1.093
  79 str  70  43   1.093
  80 str  71  43   1.092
  81 str  72  44   1.092
  82 str  73  44   1.093
  83 str  74  44   1.093
 nber stretches=          83
  84 ben   1   2   3
  85 prop tor   1   2   3  48
  86 prop tor   1   2   3  49
  87 prop tor   1   2   3  50
  88 ben   1   2   4
  89 prop tor   1   2   4   5
  90 prop tor   1   2   4   8
  91 ben   1   2  14
  92 prop tor   1   2  14   9
  93 prop tor   1   2  14  13
  94 ben   2   1  45
  95 ben   2   1  46
  96 ben   2   1  47
  97 ben   2   3  48
  98 ben   2   3  49
  99 ben   2   3  50
 100 ben   2   4   5
 101 prop tor   2   4   5   6
 102 prop tor   2   4   5  51
 103 ben   2   4   8
 104 prop tor   2   4   8   7
 105 prop tor   2   4   8   9
 106 ben   2  14   9
 107 ben   2  14  13
 108 ben   3   2   4
 109 prop tor   3   2   4   5
 110 prop tor   3   2   4   8
 111 ben   3   2  14
 112 prop tor   3   2  14   9
 113 prop tor   3   2  14  13
 114 prop tor   4   2   3  48
 115 prop tor   4   2   3  49
 116 prop tor   4   2   3  50
 117 ben   4   2  14
 118 prop tor   4   2  14   9
 119 prop tor   4   2  14  13
 120 ben   4   5   6
 121 prop tor   4   5   6   7
 122 prop tor   4   5   6  52
 123 ben   4   5  51
 124 ben   4   8   7
 125 ben   4   8   9
 126 prop tor   4   8   9  10
 127 prop tor   4   8   9  14
 128 ben   5   4   8
 129 prop tor   5   4   8   7
 130 prop tor   5   4   8   9
 131 ben   5   6   7
 132 prop tor   5   6   7   8
 133 ben   5   6  52
 134 ben   6   5  51
 135 ben   6   7   8
 136 prop tor   6   7   8   4
 137 prop tor   6   7   8   9
 138 ben   7   6  52
 139 ben   7   8   9
 140 prop tor   7   8   9  10
 141 prop tor   7   8   9  14
 142 prop tor   8   4   5   6
 143 prop tor   8   4   5  51
 144 ben   8   9  10
 145 prop tor   8   9  10  11
 146 prop tor   8   9  10  53
 147 ben   8   9  14
 148 prop tor   8   9  14   2
 149 prop tor   8   9  14  13
 150 ben   9  10  11
 151 prop tor   9  10  11  12
 152 prop tor   9  10  11  42
 153 ben   9  10  53
 154 ben   9  14  13
 155 ben  10   9  14
 156 prop tor  10   9  14   2
 157 prop tor  10   9  14  13
 158 ben  10  11  12
 159 prop tor  10  11  12  13
 160 prop tor  10  11  12  15
 161 ben  10  11  42
 162 prop tor  10  11  42  41
 163 prop tor  10  11  42  43
 164 prop tor  10  11  42  44
 165 ben  11  10  53
 166 ben  11  12  13
 167 prop tor  11  12  13  14
 168 prop tor  11  12  13  54
 169 ben  11  12  15
 170 prop tor  11  12  15  16
 171 prop tor  11  12  15  41
 172 ben  11  42  41
 173 ben  11  42  43
 174 prop tor  11  42  43  69
 175 prop tor  11  42  43  70
 176 prop tor  11  42  43  71
 177 ben  11  42  44
 178 prop tor  11  42  44  72
 179 prop tor  11  42  44  73
 180 prop tor  11  42  44  74
 181 ben  12  11  42
 182 prop tor  12  11  42  41
 183 prop tor  12  11  42  43
 184 prop tor  12  11  42  44
 185 ben  12  13  14
 186 prop tor  12  13  14   2
 187 prop tor  12  13  14   9
 188 ben  12  13  54
 189 ben  12  15  16
 190 prop tor  12  15  16  17
 191 ben  12  15  41
 192 prop tor  12  15  41  40
 193 prop tor  12  15  41  42
 194 ben  13  12  15
 195 prop tor  13  12  15  16
 196 prop tor  13  12  15  41
 197 prop tor  14   2   3  48
 198 prop tor  14   2   3  49
 199 prop tor  14   2   3  50
 200 prop tor  14   2   4   5
 201 prop tor  14   2   4   8
 202 prop tor  14   9  10  11
 203 prop tor  14   9  10  53
 204 ben  14  13  54
 205 prop tor  15  12  13  14
 206 prop tor  15  12  13  54
 207 ben  15  16  17
 208 prop tor  15  16  17  18
 209 prop tor  15  16  17  40
 210 ben  15  41  40
 211 ben  15  41  42
 212 prop tor  15  41  42  11
 213 prop tor  15  41  42  43
 214 prop tor  15  41  42  44
 215 ben  16  15  41
 216 prop tor  16  15  41  40
 217 prop tor  16  15  41  42
 218 ben  16  17  18
 219 prop tor  16  17  18  19
 220 prop tor  16  17  18  39
 221 ben  16  17  40
 222 prop tor  16  17  40  41
 223 prop tor  16  17  40  68
 224 ben  17  18  19
 225 prop tor  17  18  19  20
 226 prop tor  17  18  19  55
 227 ben  17  18  39
 228 prop tor  17  18  39  38
 229 prop tor  17  18  39  67
 230 ben  17  40  41
 231 prop tor  17  40  41  15
 232 prop tor  17  40  41  42
 233 ben  17  40  68
 234 ben  18  17  40
 235 prop tor  18  17  40  41
 236 prop tor  18  17  40  68
 237 ben  18  19  20
 238 prop tor  18  19  20  21
 239 prop tor  18  19  20  56
 240 ben  18  19  55
 241 ben  18  39  38
 242 ben  18  39  67
 243 ben  19  18  39
 244 prop tor  19  18  39  38
 245 prop tor  19  18  39  67
 246 ben  19  20  21
 247 prop tor  19  20  21  22
 248 prop tor  19  20  21  38
 249 ben  19  20  56
 250 ben  20  19  55
 251 ben  20  21  22
 252 prop tor  20  21  22  23
 253 prop tor  20  21  22  35
 254 ben  20  21  38
 255 prop tor  20  21  38  39
 256 prop tor  20  21  38  66
 257 ben  21  20  56
 258 ben  21  22  23
 259 prop tor  21  22  23  24
 260 prop tor  21  22  23  57
 261 ben  21  22  35
 262 prop tor  21  22  35  34
 263 prop tor  21  22  35  36
 264 ben  21  38  39
 265 prop tor  21  38  39  18
 266 prop tor  21  38  39  67
 267 ben  21  38  66
 268 ben  22  21  38
 269 prop tor  22  21  38  39
 270 prop tor  22  21  38  66
 271 ben  22  23  24
 272 prop tor  22  23  24  25
 273 prop tor  22  23  24  58
 274 ben  22  23  57
 275 ben  22  35  34
 276 ben  22  35  36
 277 prop tor  22  35  36  25
 278 prop tor  22  35  36  37
 279 ben  23  22  35
 280 prop tor  23  22  35  34
 281 prop tor  23  22  35  36
 282 ben  23  24  25
 283 prop tor  23  24  25  26
 284 prop tor  23  24  25  36
 285 ben  23  24  58
 286 ben  24  23  57
 287 ben  24  25  26
 288 prop tor  24  25  26  27
 289 prop tor  24  25  26  59
 290 ben  24  25  36
 291 prop tor  24  25  36  35
 292 prop tor  24  25  36  37
 293 ben  25  24  58
 294 ben  25  26  27
 295 prop tor  25  26  27  28
 296 prop tor  25  26  27  60
 297 ben  25  26  59
 298 ben  25  36  35
 299 ben  25  36  37
 300 prop tor  25  36  37  28
 301 prop tor  25  36  37  32
 302 ben  26  25  36
 303 prop tor  26  25  36  35
 304 prop tor  26  25  36  37
 305 ben  26  27  28
 306 prop tor  26  27  28  29
 307 prop tor  26  27  28  37
 308 ben  26  27  60
 309 ben  27  26  59
 310 ben  27  28  29
 311 prop tor  27  28  29  30
 312 prop tor  27  28  29  61
 313 ben  27  28  37
 314 prop tor  27  28  37  32
 315 prop tor  27  28  37  36
 316 ben  28  27  60
 317 ben  28  29  30
 318 prop tor  28  29  30  31
 319 prop tor  28  29  30  62
 320 ben  28  29  61
 321 ben  28  37  32
 322 ben  28  37  36
 323 ben  29  28  37
 324 prop tor  29  28  37  32
 325 prop tor  29  28  37  36
 326 ben  29  30  31
 327 prop tor  29  30  31  32
 328 prop tor  29  30  31  63
 329 ben  29  30  62
 330 ben  30  29  61
 331 ben  30  31  32
 332 prop tor  30  31  32  33
 333 prop tor  30  31  32  37
 334 ben  30  31  63
 335 ben  31  30  62
 336 ben  31  32  33
 337 prop tor  31  32  33  34
 338 prop tor  31  32  33  64
 339 ben  31  32  37
 340 prop tor  31  32  37  28
 341 prop tor  31  32  37  36
 342 ben  32  31  63
 343 ben  32  33  34
 344 prop tor  32  33  34  35
 345 prop tor  32  33  34  65
 346 ben  32  33  64
 347 ben  32  37  36
 348 ben  33  32  37
 349 prop tor  33  32  37  28
 350 prop tor  33  32  37  36
 351 ben  33  34  35
 352 prop tor  33  34  35  22
 353 prop tor  33  34  35  36
 354 ben  33  34  65
 355 ben  34  33  64
 356 ben  34  35  36
 357 prop tor  34  35  36  25
 358 prop tor  34  35  36  37
 359 prop tor  35  22  23  24
 360 prop tor  35  22  23  57
 361 ben  35  34  65
 362 ben  35  36  37
 363 prop tor  35  36  37  28
 364 prop tor  35  36  37  32
 365 prop tor  36  25  26  27
 366 prop tor  36  25  26  59
 367 prop tor  37  28  29  30
 368 prop tor  37  28  29  61
 369 prop tor  37  32  33  34
 370 prop tor  37  32  33  64
 371 prop tor  38  21  22  23
 372 prop tor  38  21  22  35
 373 ben  38  39  67
 374 prop tor  39  18  19  20
 375 prop tor  39  18  19  55
 376 ben  39  38  66
 377 prop tor  40  17  18  19
 378 prop tor  40  17  18  39
 379 ben  40  41  42
 380 prop tor  40  41  42  11
 381 prop tor  40  41  42  43
 382 prop tor  40  41  42  44
 383 prop tor  41  15  16  17
 384 ben  41  40  68
 385 ben  41  42  43
 386 prop tor  41  42  43  69
 387 prop tor  41  42  43  70
 388 prop tor  41  42  43  71
 389 ben  41  42  44
 390 prop tor  41  42  44  72
 391 prop tor  41  42  44  73
 392 prop tor  41  42  44  74
 393 prop tor  42  11  12  13
 394 prop tor  42  11  12  15
 395 ben  42  43  69
 396 ben  42  43  70
 397 ben  42  43  71
 398 ben  42  44  72
 399 ben  42  44  73
 400 ben  42  44  74
 401 ben  43  42  44
 402 prop tor  43  42  44  72
 403 prop tor  43  42  44  73
 404 prop tor  43  42  44  74
 405 prop tor  44  42  43  69
 406 prop tor  44  42  43  70
 407 prop tor  44  42  43  71
 408 prop tor  45   1   2   3
 409 prop tor  45   1   2   4
 410 prop tor  45   1   2  14
 411 ben  45   1  46
 412 ben  45   1  47
 413 prop tor  46   1   2   3
 414 prop tor  46   1   2   4
 415 prop tor  46   1   2  14
 416 ben  46   1  47
 417 prop tor  47   1   2   3
 418 prop tor  47   1   2   4
 419 prop tor  47   1   2  14
 420 ben  48   3  49
 421 ben  48   3  50
 422 ben  49   3  50
 423 prop tor  51   5   6   7
 424 prop tor  51   5   6  52
 425 prop tor  52   6   7   8
 426 prop tor  53  10  11  12
 427 prop tor  53  10  11  42
 428 prop tor  54  13  14   2
 429 prop tor  54  13  14   9
 430 prop tor  55  19  20  21
 431 prop tor  55  19  20  56
 432 prop tor  56  20  21  22
 433 prop tor  56  20  21  38
 434 prop tor  57  23  24  25
 435 prop tor  57  23  24  58
 436 prop tor  58  24  25  26
 437 prop tor  58  24  25  36
 438 prop tor  59  26  27  28
 439 prop tor  59  26  27  60
 440 prop tor  60  27  28  29
 441 prop tor  60  27  28  37
 442 prop tor  61  29  30  31
 443 prop tor  61  29  30  62
 444 prop tor  62  30  31  32
 445 prop tor  62  30  31  63
 446 prop tor  63  31  32  33
 447 prop tor  63  31  32  37
 448 prop tor  64  33  34  35
 449 prop tor  64  33  34  65
 450 prop tor  65  34  35  22
 451 prop tor  65  34  35  36
 452 prop tor  66  38  39  18
 453 prop tor  66  38  39  67
 454 prop tor  68  40  41  15
 455 prop tor  68  40  41  42
 456 ben  69  43  70
 457 ben  69  43  71
 458 ben  70  43  71
 459 ben  72  44  73
 460 ben  72  44  74
 461 ben  73  44  74
 nber bend=             146
 nber lin bend=           0
 nber prop tor=         232
 nber impr tor=           0
 nber tot redund int=         461
 Eigenvalues of G in red int coords
    Gval -0.00000000 -0.00000000 -0.00000000 -0.00000000 -0.00000000 -0.00000000 -0.00000000 -0.00000000
    Gval -0.00000000 -0.00000000 -0.00000000 -0.00000000 -0.00000000 -0.00000000 -0.00000000 -0.00000000
    Gval -0.00000000 -0.00000000 -0.00000000 -0.00000000 -0.00000000 -0.00000000 -0.00000000 -0.00000000
    Gval -0.00000000 -0.00000000 -0.00000000 -0.00000000 -0.00000000 -0.00000000 -0.00000000 -0.00000000
    Gval -0.00000000 -0.00000000 -0.00000000 -0.00000000 -0.00000000 -0.00000000 -0.00000000 -0.00000000
    Gval -0.00000000 -0.00000000 -0.00000000 -0.00000000 -0.00000000 -0.00000000 -0.00000000 -0.00000000
    Gval -0.00000000 -0.00000000 -0.00000000 -0.00000000 -0.00000000 -0.00000000 -0.00000000 -0.00000000
    Gval -0.00000000 -0.00000000 -0.00000000 -0.00000000 -0.00000000 -0.00000000 -0.00000000 -0.00000000
    Gval -0.00000000 -0.00000000 -0.00000000 -0.00000000 -0.00000000 -0.00000000 -0.00000000 -0.00000000
    Gval -0.00000000 -0.00000000 -0.00000000 -0.00000000 -0.00000000 -0.00000000 -0.00000000 -0.00000000
    Gval -0.00000000 -0.00000000 -0.00000000 -0.00000000 -0.00000000 -0.00000000 -0.00000000 -0.00000000
    Gval -0.00000000 -0.00000000 -0.00000000 -0.00000000 -0.00000000 -0.00000000 -0.00000000 -0.00000000
    Gval -0.00000000 -0.00000000 -0.00000000 -0.00000000 -0.00000000 -0.00000000 -0.00000000 -0.00000000
    Gval -0.00000000 -0.00000000 -0.00000000 -0.00000000 -0.00000000 -0.00000000 -0.00000000 -0.00000000
    Gval -0.00000000 -0.00000000 -0.00000000 -0.00000000 -0.00000000 -0.00000000 -0.00000000 -0.00000000
    Gval -0.00000000 -0.00000000 -0.00000000 -0.00000000  0.00000000  0.00000000  0.00000000  0.00000000
    Gval  0.00000000  0.00000000  0.00000000  0.00000000  0.00000000  0.00000000  0.00000000  0.00000000
    Gval  0.00000000  0.00000000  0.00000000  0.00000000  0.00000000  0.00000000  0.00000000  0.00000000
    Gval  0.00000000  0.00000000  0.00000000  0.00000000  0.00000000  0.00000000  0.00000000  0.00000000
    Gval  0.00000000  0.00000000  0.00000000  0.00000000  0.00000000  0.00000000  0.00000000  0.00000000
    Gval  0.00000000  0.00000000  0.00000000  0.00000000  0.00000000  0.00000000  0.00000000  0.00000000
    Gval  0.00000000  0.00000000  0.00000000  0.00000000  0.00000000  0.00000000  0.00000000  0.00000000
    Gval  0.00000000  0.00000000  0.00000000  0.00000000  0.00000000  0.00000000  0.00000000  0.00000000
    Gval  0.00000000  0.00000000  0.00000000  0.00000000  0.00000000  0.00000000  0.00000000  0.00000000
    Gval  0.00000000  0.00000000  0.00000000  0.00000000  0.00000000  0.00000000  0.00000000  0.00000000
    Gval  0.00000000  0.00000000  0.00000000  0.00000000  0.00000000  0.00000000  0.00000000  0.00000000
    Gval  0.00000000  0.00000000  0.00000000  0.00000000  0.00000000  0.00000000  0.00000000  0.00000000
    Gval  0.00000000  0.00000000  0.00000000  0.00000000  0.00000000  0.00000000  0.00000000  0.00000000
    Gval  0.00000000  0.00000000  0.00000000  0.00000000  0.00000000  0.00000000  0.00000000  0.00000000
    Gval  0.00000000  0.00000000  0.00000000  0.00000000  0.00000000  0.00000000  0.00000000  0.00000000
    Gval  0.00000000  0.00000000  0.00000000  0.00000000  0.00000000  0.00000011  0.00000048  0.00000086
    Gval  0.00000108  0.00000158  0.00000264  0.00000386  0.00000475  0.00000723  0.00000864  0.00001106
    Gval  0.00001356  0.00001408  0.00001470  0.00001629  0.00001792  0.00002050  0.00002345  0.00002394
    Gval  0.00002452  0.00002825  0.00002958  0.00002994  0.00003013  0.00003156  0.00003561  0.00003845
    Gval  0.00003868  0.00004086  0.00004199  0.00004259  0.00004385  0.00004754  0.00004855  0.00005024
    Gval  0.00005195  0.00005227  0.00005466  0.00005818  0.00005855  0.00006240  0.00006510  0.00006797
    Gval  0.00006892  0.00007125  0.00007213  0.00007318  0.00007668  0.00007872  0.00007956  0.00008760
    Gval  0.00009115  0.00009535  0.00009676  0.00010100  0.00010562  0.00011604  0.00011881  0.00012029
    Gval  0.00012662  0.00013120  0.00013243  0.00013478  0.00014026  0.00014335  0.00014386  0.00014787
    Gval  0.00015940  0.00016648  0.00017509  0.00017867  0.00017962  0.00019205  0.00020798  0.00021377
    Gval  0.00022930  0.00024011  0.00025016  0.00025061  0.00026089  0.00027175  0.00028916  0.00029822
    Gval  0.00030226  0.00030881  0.00032276  0.00033613  0.00036100  0.00036854  0.00037558  0.00038100
    Gval  0.00039412  0.00040217  0.00041135  0.00041867  0.00042057  0.00042968  0.00043375  0.00043853
    Gval  0.00044781  0.00044992  0.00045884  0.00046104  0.00047410  0.00050667  0.00051047  0.00052231
    Gval  0.00053464  0.00053473  0.00053547  0.00055614  0.00055616  0.00055617  0.00055619  0.00057840
    Gval  0.00057843  0.00058458  0.00058650  0.00059388  0.00059440  0.00059611  0.00059657  0.00059745
    Gval  0.00059860  0.00059886  0.00059962  0.00060005  0.00060818  0.00061501  0.00062468  0.00062555
    Gval  0.00062841  0.00063368  0.00063622  0.00063761  0.00064112  0.00064271  0.00064963  0.00065552
    Gval  0.00066102  0.00067573  0.00067616  0.00073861  0.00076577  0.00080033  0.00083805  0.00085929
    Gval  0.00098593  0.00099044  0.00099740  0.00106416  0.00107420  0.00107952  0.00108289  0.00109070
    Gval  0.00109383  0.00109508  0.00109887  0.00110485  0.00110716  0.00112041  0.00113369  0.00113454
    Gval  0.00113889  0.00114883  0.00115204  0.00115937  0.00116077  0.00116206  0.00116428  0.00116741
    Gval  0.00116930  0.00117883  0.00117938  0.00117960  0.00117970  0.00118483  0.00127611  0.00150430
    Gval  0.00158533  0.00161022  0.00166930  0.00166948  0.00170199  0.00173393  0.00184549  0.00192246
    Gval  0.00192789  0.00203835  0.00215349  0.00221760  0.00232613  0.00234273  0.00240535  0.00250660
    Gval  0.00256165  0.00263468  0.00302644  0.00302907  0.00303324  0.00303460  0.00304604  0.00304642
    Gval  0.00309379  0.00309427  0.00310835  0.00341502  0.00341973  0.00356635  0.00359479  0.00366578
    Gval  0.00368555  0.00370762  0.00374052  0.00392305  0.00403342
  1.113772120790207E-007  1.113772120790207E-007
  4.838783053538818E-007  1.113772120790207E-007
  8.553197301305393E-007  1.113772120790207E-007
  1.081735085839647E-006  1.113772120790207E-007
  1.582547213297337E-006  1.113772120790207E-007
  2.636671594882075E-006  1.113772120790207E-007
  3.856675107978925E-006  1.113772120790207E-007
  4.750420825844150E-006  1.113772120790207E-007
  7.225430708985490E-006  1.113772120790207E-007
  8.643187635122038E-006  1.113772120790207E-007
  1.106034917536864E-005  1.113772120790207E-007
  1.355941362721687E-005  1.113772120790207E-007
  1.407638339400117E-005  1.113772120790207E-007
  1.470239944761126E-005  1.113772120790207E-007
  1.628970266335414E-005  1.113772120790207E-007
  1.792051586408163E-005  1.113772120790207E-007
  2.049668491386446E-005  1.113772120790207E-007
  2.345383602727315E-005  1.113772120790207E-007
  2.394033341938033E-005  1.113772120790207E-007
  2.451508062680760E-005  1.113772120790207E-007
  2.825198533240274E-005  1.113772120790207E-007
  2.958331414876865E-005  1.113772120790207E-007
  2.993736063118477E-005  1.113772120790207E-007
  3.012721163301384E-005  1.113772120790207E-007
  3.155549894354976E-005  1.113772120790207E-007
  3.561161493587785E-005  1.113772120790207E-007
  3.844519900827256E-005  1.113772120790207E-007
  3.867975584959813E-005  1.113772120790207E-007
  4.085837603867615E-005  1.113772120790207E-007
  4.198551095712545E-005  1.113772120790207E-007
  4.258519363021729E-005  1.113772120790207E-007
  4.384813937664542E-005  1.113772120790207E-007
  4.754373246613813E-005  1.113772120790207E-007
  4.855410392303094E-005  1.113772120790207E-007
  5.024425963519612E-005  1.113772120790207E-007
  5.194526342983994E-005  1.113772120790207E-007
  5.226716632700961E-005  1.113772120790207E-007
  5.465727755637387E-005  1.113772120790207E-007
  5.817562476170243E-005  1.113772120790207E-007
  5.854856676569640E-005  1.113772120790207E-007
  6.240334933291759E-005  1.113772120790207E-007
  6.510249502346566E-005  1.113772120790207E-007
  6.796909309646829E-005  1.113772120790207E-007
  6.891576765736702E-005  1.113772120790207E-007
  7.125427431186159E-005  1.113772120790207E-007
  7.213034788068855E-005  1.113772120790207E-007
  7.318497596721619E-005  1.113772120790207E-007
  7.668389533955380E-005  1.113772120790207E-007
  7.872207708734949E-005  1.113772120790207E-007
  7.955707327076486E-005  1.113772120790207E-007
  8.760008140746923E-005  1.113772120790207E-007
  9.115471784878253E-005  1.113772120790207E-007
  9.535373156267150E-005  1.113772120790207E-007
  9.676134189416218E-005  1.113772120790207E-007
  1.010045923416784E-004  1.113772120790207E-007
  1.056202306073080E-004  1.113772120790207E-007
  1.160351655460746E-004  1.113772120790207E-007
  1.188117643868409E-004  1.113772120790207E-007
  1.202927135158410E-004  1.113772120790207E-007
  1.266225604620265E-004  1.113772120790207E-007
  1.311956718261156E-004  1.113772120790207E-007
  1.324318363163823E-004  1.113772120790207E-007
  1.347809515374836E-004  1.113772120790207E-007
  1.402565165916898E-004  1.113772120790207E-007
  1.433509133948357E-004  1.113772120790207E-007
  1.438617789854837E-004  1.113772120790207E-007
  1.478716450289980E-004  1.113772120790207E-007
  1.593976714711936E-004  1.113772120790207E-007
  1.664752750289726E-004  1.113772120790207E-007
  1.750948613222955E-004  1.113772120790207E-007
  1.786673562426642E-004  1.113772120790207E-007
  1.796151300482483E-004  1.113772120790207E-007
  1.920489331661570E-004  1.113772120790207E-007
  2.079795736964126E-004  1.113772120790207E-007
  2.137713358430331E-004  1.113772120790207E-007
  2.292952738180948E-004  1.113772120790207E-007
  2.401112903895001E-004  1.113772120790207E-007
  2.501645863915435E-004  1.113772120790207E-007
  2.506098844130082E-004  1.113772120790207E-007
  2.608910822137383E-004  1.113772120790207E-007
  2.717495564905277E-004  1.113772120790207E-007
  2.891565536008231E-004  1.113772120790207E-007
  2.982176290604099E-004  1.113772120790207E-007
  3.022638124080422E-004  1.113772120790207E-007
  3.088122771895476E-004  1.113772120790207E-007
  3.227585575584725E-004  1.113772120790207E-007
  3.361273002986921E-004  1.113772120790207E-007
  3.610041476460896E-004  1.113772120790207E-007
  3.685390128944894E-004  1.113772120790207E-007
  3.755798003492331E-004  1.113772120790207E-007
  3.810037480915947E-004  1.113772120790207E-007
  3.941168125095331E-004  1.113772120790207E-007
  4.021676946880054E-004  1.113772120790207E-007
  4.113462674849396E-004  1.113772120790207E-007
  4.186682342581039E-004  1.113772120790207E-007
  4.205746010661487E-004  1.113772120790207E-007
  4.296846430252238E-004  1.113772120790207E-007
  4.337529516481093E-004  1.113772120790207E-007
  4.385326570321345E-004  1.113772120790207E-007
  4.478119654049640E-004  1.113772120790207E-007
  4.499198475206756E-004  1.113772120790207E-007
  4.588435491089690E-004  1.113772120790207E-007
  4.610377368984545E-004  1.113772120790207E-007
  4.741017727179594E-004  1.113772120790207E-007
  5.066667402219943E-004  1.113772120790207E-007
  5.104650911480414E-004  1.113772120790207E-007
  5.223123293546394E-004  1.113772120790207E-007
  5.346393638654318E-004  1.113772120790207E-007
  5.347335997666570E-004  1.113772120790207E-007
  5.354731396644346E-004  1.113772120790207E-007
  5.561406251993809E-004  1.113772120790207E-007
  5.561615327991813E-004  1.113772120790207E-007
  5.561692508230020E-004  1.113772120790207E-007
  5.561871604472824E-004  1.113772120790207E-007
  5.783978527166627E-004  1.113772120790207E-007
  5.784291249579695E-004  1.113772120790207E-007
  5.845750295089062E-004  1.113772120790207E-007
  5.864974486814693E-004  1.113772120790207E-007
  5.938776567673010E-004  1.113772120790207E-007
  5.944019476872065E-004  1.113772120790207E-007
  5.961063016867121E-004  1.113772120790207E-007
  5.965730147396412E-004  1.113772120790207E-007
  5.974499534172176E-004  1.113772120790207E-007
  5.986013200818683E-004  1.113772120790207E-007
  5.988562568501067E-004  1.113772120790207E-007
  5.996190762002455E-004  1.113772120790207E-007
  6.000490958541021E-004  1.113772120790207E-007
  6.081807982195264E-004  1.113772120790207E-007
  6.150054422613971E-004  1.113772120790207E-007
  6.246814834378980E-004  1.113772120790207E-007
  6.255472872906956E-004  1.113772120790207E-007
  6.284062963058663E-004  1.113772120790207E-007
  6.336799031226620E-004  1.113772120790207E-007
  6.362179691187427E-004  1.113772120790207E-007
  6.376058951904939E-004  1.113772120790207E-007
  6.411210383206611E-004  1.113772120790207E-007
  6.427085252390450E-004  1.113772120790207E-007
  6.496305060349763E-004  1.113772120790207E-007
  6.555188502893165E-004  1.113772120790207E-007
  6.610213355807539E-004  1.113772120790207E-007
  6.757299584355161E-004  1.113772120790207E-007
  6.761553079074335E-004  1.113772120790207E-007
  7.386076736143063E-004  1.113772120790207E-007
  7.657653142179272E-004  1.113772120790207E-007
  8.003297326950159E-004  1.113772120790207E-007
  8.380499129140305E-004  1.113772120790207E-007
  8.592893651096595E-004  1.113772120790207E-007
  9.859329639291103E-004  1.113772120790207E-007
  9.904437378389435E-004  1.113772120790207E-007
  9.974003050253737E-004  1.113772120790207E-007
  1.064163758826353E-003  1.113772120790207E-007
  1.074202353949366E-003  1.113772120790207E-007
  1.079519895082819E-003  1.113772120790207E-007
  1.082892672581345E-003  1.113772120790207E-007
  1.090697637859757E-003  1.113772120790207E-007
  1.093830827011251E-003  1.113772120790207E-007
  1.095083666780406E-003  1.113772120790207E-007
  1.098873450339026E-003  1.113772120790207E-007
  1.104848989312648E-003  1.113772120790207E-007
  1.107159756762578E-003  1.113772120790207E-007
  1.120410998098409E-003  1.113772120790207E-007
  1.133693822102267E-003  1.113772120790207E-007
  1.134544540329600E-003  1.113772120790207E-007
  1.138886400840952E-003  1.113772120790207E-007
  1.148826608171875E-003  1.113772120790207E-007
  1.152036470310596E-003  1.113772120790207E-007
  1.159371014744396E-003  1.113772120790207E-007
  1.160769202840289E-003  1.113772120790207E-007
  1.162063154270686E-003  1.113772120790207E-007
  1.164279365154920E-003  1.113772120790207E-007
  1.167414922288884E-003  1.113772120790207E-007
  1.169299317634864E-003  1.113772120790207E-007
  1.178826618013448E-003  1.113772120790207E-007
  1.179375304204409E-003  1.113772120790207E-007
  1.179602167735042E-003  1.113772120790207E-007
  1.179701716402110E-003  1.113772120790207E-007
  1.184831091392617E-003  1.113772120790207E-007
  1.276109857644700E-003  1.113772120790207E-007
  1.504295179648988E-003  1.113772120790207E-007
  1.585332994414470E-003  1.113772120790207E-007
  1.610224887070752E-003  1.113772120790207E-007
  1.669301349145006E-003  1.113772120790207E-007
  1.669481651225319E-003  1.113772120790207E-007
  1.701990751574290E-003  1.113772120790207E-007
  1.733928304817817E-003  1.113772120790207E-007
  1.845493369955516E-003  1.113772120790207E-007
  1.922461027513146E-003  1.113772120790207E-007
  1.927887848462138E-003  1.113772120790207E-007
  2.038350571273498E-003  1.113772120790207E-007
  2.153485838548159E-003  1.113772120790207E-007
  2.217602913866818E-003  1.113772120790207E-007
  2.326125099550434E-003  1.113772120790207E-007
  2.342727816550633E-003  1.113772120790207E-007
  2.405353915809536E-003  1.113772120790207E-007
  2.506598836446443E-003  1.113772120790207E-007
  2.561649926336458E-003  1.113772120790207E-007
  2.634683215984904E-003  1.113772120790207E-007
  3.026442906479350E-003  1.113772120790207E-007
  3.029066649876642E-003  1.113772120790207E-007
  3.033240358876859E-003  1.113772120790207E-007
  3.034599007101221E-003  1.113772120790207E-007
  3.046044357034536E-003  1.113772120790207E-007
  3.046417506175806E-003  1.113772120790207E-007
  3.093793696299027E-003  1.113772120790207E-007
  3.094273132168661E-003  1.113772120790207E-007
  3.108353999590901E-003  1.113772120790207E-007
  3.415015136811755E-003  1.113772120790207E-007
  3.419734638488596E-003  1.113772120790207E-007
  3.566350220452964E-003  1.113772120790207E-007
  3.594793711402592E-003  1.113772120790207E-007
  3.665780153675572E-003  1.113772120790207E-007
  3.685551181782562E-003  1.113772120790207E-007
  3.707624483456223E-003  1.113772120790207E-007
  3.740520281778626E-003  1.113772120790207E-007
  3.923047968088244E-003  1.113772120790207E-007
  4.033422602269322E-003  1.113772120790207E-007
 cut=1d-8, nber non-redundant internal coords=         216
 Check on Eigenvals of non-red overlap matrix:
  0.00000011  0.00000048  0.00000086  0.00000108  0.00000158  0.00000264  0.00000386  0.00000475
  0.00000723  0.00000864  0.00001106  0.00001356  0.00001408  0.00001470  0.00001629  0.00001792
  0.00002050  0.00002345  0.00002394  0.00002452  0.00002825  0.00002958  0.00002994  0.00003013
  0.00003156  0.00003561  0.00003845  0.00003868  0.00004086  0.00004199  0.00004259  0.00004385
  0.00004754  0.00004855  0.00005024  0.00005195  0.00005227  0.00005466  0.00005818  0.00005855
  0.00006240  0.00006510  0.00006797  0.00006892  0.00007125  0.00007213  0.00007318  0.00007668
  0.00007872  0.00007956  0.00008760  0.00009115  0.00009535  0.00009676  0.00010100  0.00010562
  0.00011604  0.00011881  0.00012029  0.00012662  0.00013120  0.00013243  0.00013478  0.00014026
  0.00014335  0.00014386  0.00014787  0.00015940  0.00016648  0.00017509  0.00017867  0.00017962
  0.00019205  0.00020798  0.00021377  0.00022930  0.00024011  0.00025016  0.00025061  0.00026089
  0.00027175  0.00028916  0.00029822  0.00030226  0.00030881  0.00032276  0.00033613  0.00036100
  0.00036854  0.00037558  0.00038100  0.00039412  0.00040217  0.00041135  0.00041867  0.00042057
  0.00042968  0.00043375  0.00043853  0.00044781  0.00044992  0.00045884  0.00046104  0.00047410
  0.00050667  0.00051047  0.00052231  0.00053464  0.00053473  0.00053547  0.00055614  0.00055616
  0.00055617  0.00055619  0.00057840  0.00057843  0.00058458  0.00058650  0.00059388  0.00059440
  0.00059611  0.00059657  0.00059745  0.00059860  0.00059886  0.00059962  0.00060005  0.00060818
  0.00061501  0.00062468  0.00062555  0.00062841  0.00063368  0.00063622  0.00063761  0.00064112
  0.00064271  0.00064963  0.00065552  0.00066102  0.00067573  0.00067616  0.00073861  0.00076577
  0.00080033  0.00083805  0.00085929  0.00098593  0.00099044  0.00099740  0.00106416  0.00107420
  0.00107952  0.00108289  0.00109070  0.00109383  0.00109508  0.00109887  0.00110485  0.00110716
  0.00112041  0.00113369  0.00113454  0.00113889  0.00114883  0.00115204  0.00115937  0.00116077
  0.00116206  0.00116428  0.00116741  0.00116930  0.00117883  0.00117938  0.00117960  0.00117970
  0.00118483  0.00127611  0.00150430  0.00158533  0.00161022  0.00166930  0.00166948  0.00170199
  0.00173393  0.00184549  0.00192246  0.00192789  0.00203835  0.00215349  0.00221760  0.00232613
  0.00234273  0.00240535  0.00250660  0.00256165  0.00263468  0.00302644  0.00302907  0.00303324
  0.00303460  0.00304604  0.00304642  0.00309379  0.00309427  0.00310835  0.00341502  0.00341973
  0.00356635  0.00359479  0.00366578  0.00368555  0.00370762  0.00374052  0.00392305  0.00403342
 Checking for correct frequencies
 recalc frequencies=
    -0.0   -0.0   -0.0    0.0    0.0    0.0   10.3   11.5   20.4   27.0
    45.3   52.0   66.6   73.1   88.4  104.0  104.3  110.0  120.4  128.4
   142.9  151.9  159.9  185.5  199.1  208.4  221.0  222.7  232.4  243.3
   245.5  245.9  264.7  271.0  278.7  287.0  291.7  303.1  316.1  329.7
   346.4  371.1  372.7  403.6  411.0  413.9  417.0  424.5  431.7  447.2
   450.4  465.7  479.4  487.1  494.6  503.4  504.1  515.5  522.7  541.8
   549.2  554.1  565.9  570.7  573.4  602.5  617.9  618.2  632.9  640.4
   656.6  663.9  667.8  679.1  682.3  699.9  707.9  709.5  720.9  727.6
   732.4  737.5  741.8  754.7  772.5  776.7  792.1  794.8  803.0  812.2
   824.8  828.9  830.2  834.5  840.3  850.6  852.7  864.8  878.6  882.1
   884.8  891.6  898.2  937.6  949.1  949.4  950.9  959.3  962.4  968.2
   972.4  981.8  983.2  990.4  994.2  999.8 1004.8 1016.2 1030.2 1030.8
  1068.8 1093.5 1096.2 1104.4 1127.8 1134.7 1141.9 1154.9 1155.9 1163.3
  1163.4 1170.0 1182.0 1195.0 1200.0 1211.7 1219.3 1229.4 1235.2 1237.3
  1243.0 1248.2 1253.8 1267.5 1271.5 1281.1 1288.7 1307.5 1326.9 1341.9
  1357.2 1361.9 1364.7 1370.4 1376.1 1385.1 1397.2 1398.7 1398.9 1412.8
  1420.6 1422.6 1439.6 1446.4 1448.7 1454.6 1476.6 1484.5 1484.6 1485.8
  1487.2 1488.3 1490.1 1493.8 1495.8 1502.6 1503.8 1506.4 1508.6 1511.6
  1515.1 1525.7 1529.0 1536.5 1549.2 1553.2 1598.6 1605.3 1615.4 1622.5
  1632.3 1648.7 3025.4 3025.4 3029.0 3029.3 3088.6 3088.8 3093.8 3093.9
  3105.5 3106.0 3107.2 3107.6 3152.0 3153.8 3158.5 3158.8 3163.0 3164.9
  3166.3 3169.8 3171.3 3171.9 3179.0 3180.8 3191.0 3194.3 3200.8 3204.2
  3215.5 3242.8
 recalc symmetries=
                                                                       
                                                                       
                                                                       
                                                                       
                                                                       
                                                                       
                                                                       
                                                                       
                                                                       
                                                                       
                                                                       
                                                                       
                                                                       
                                                                       
                                                                       
                                                                       
                                                                       
                                                                       
                                                                       
                                                                       
                                                                       
                                                                       
               
 recalc freqs check OK
 Zero-point lengths:
 10.0000 10.0000 10.0000 10.0000 10.0000 10.0000 77.2096 73.2385 54.9145 47.6706
 36.8215 34.3876 30.3881 28.9872 26.3721 24.3085 24.2764 23.6421 22.5905 21.8751
 20.7364 20.1174 19.6051 18.2024 17.5704 17.1740 16.6753 16.6132 16.2604 15.8931
 15.8209 15.8086 15.2381 15.0593 14.8487 14.6330 14.5152 14.2403 13.9431 13.6540
 13.3206 12.8691 12.8419 12.3408 12.2289 12.1855 12.1398 12.0328 11.9311 11.7238
 11.6820 11.4884 11.3230 11.2322 11.1471 11.0494 11.0416 10.9187 10.8437 10.6505
 10.5789 10.5319 10.4213 10.3774 10.3534 10.1001  9.9735  9.9707  9.8541  9.7966
  9.6746  9.6215  9.5933  9.5133  9.4906  9.3708  9.3176  9.3069  9.2334  9.1906
  9.1604  9.1288  9.1021  9.0245  8.9197  8.8954  8.8084  8.7936  8.7486  8.6991
  8.6324  8.6111  8.6039  8.5818  8.5524  8.5002  8.4896  8.4302  8.3638  8.3473
  8.3345  8.3025  8.2719  8.0964  8.0472  8.0457  8.0394  8.0040  7.9914  7.9675
  7.9500  7.9121  7.9064  7.8774  7.8625  7.8403  7.8209  7.7771  7.7240  7.7215
  7.5831  7.4969  7.4879  7.4598  7.3821  7.3598  7.3363  7.2950  7.2918  7.2686
  7.2682  7.2477  7.2109  7.1715  7.1565  7.1219  7.0997  7.0705  7.0538  7.0480
  7.0317  7.0171  7.0014  6.9634  6.9524  6.9263  6.9060  6.8560  6.8057  6.7675
  6.7294  6.7177  6.7107  6.6969  6.6830  6.6611  6.6324  6.6287  6.6282  6.5956
  6.5775  6.5729  6.5339  6.5186  6.5133  6.5002  6.4515  6.4343  6.4340  6.4315
  6.4285  6.4261  6.4222  6.4143  6.4099  6.3955  6.3930  6.3874  6.3828  6.3765
  6.3690  6.3468  6.3400  6.3245  6.2986  6.2905  6.2005  6.1874  6.1681  6.1546
  6.1362  6.1055  4.5072  4.5072  4.5045  4.5043  4.4608  4.4607  4.4571  4.4570
  4.4487  4.4483  4.4475  4.4471  4.4158  4.4144  4.4112  4.4110  4.4081  4.4067
  4.4057  4.4033  4.4023  4.4018  4.3969  4.3957  4.3887  4.3864  4.3819  4.3796
  4.3719  4.3535
 highest evec of mol 1
  0.0001  0.0002 -0.0000
  0.0002  0.0002 -0.0001
  0.0001  0.0002 -0.0001
  0.0006 -0.0065 -0.0013
  0.0408  0.0527 -0.0300
 -0.1257  0.2193  0.1381
 -0.0010 -0.0019  0.0007
  0.0015 -0.0026 -0.0016
  0.0002 -0.0001 -0.0002
  0.0004  0.0003 -0.0003
  0.0000 -0.0000 -0.0000
 -0.0001 -0.0000  0.0000
  0.0001  0.0001 -0.0001
 -0.0002  0.0001  0.0002
 -0.0000 -0.0000  0.0000
 -0.0000 -0.0000 -0.0000
 -0.0001  0.0001  0.0001
  0.0001 -0.0001 -0.0001
 -0.0002 -0.0002  0.0001
  0.0001  0.0000 -0.0001
  0.0000 -0.0000  0.0000
 -0.0000 -0.0000  0.0000
  0.0001  0.0000 -0.0003
 -0.0000  0.0000  0.0000
  0.0000 -0.0001 -0.0000
 -0.0000  0.0001 -0.0000
 -0.0000  0.0001 -0.0000
  0.0000 -0.0001  0.0000
 -0.0000  0.0001 -0.0000
 -0.0001  0.0000  0.0002
  0.0000 -0.0001 -0.0000
 -0.0000  0.0001  0.0000
  0.0000 -0.0001  0.0000
  0.0001 -0.0002  0.0000
 -0.0000  0.0001 -0.0000
 -0.0000  0.0000  0.0000
  0.0000  0.0000 -0.0000
 -0.0000 -0.0001 -0.0000
  0.0001  0.0001 -0.0001
 -0.0002 -0.0005  0.0001
  0.0000  0.0002 -0.0000
  0.0000 -0.0000 -0.0000
  0.0000 -0.0001 -0.0000
  0.0000 -0.0001 -0.0000
 -0.0001 -0.0007  0.0000
  0.0000 -0.0000 -0.0000
 -0.0005  0.0003  0.0003
 -0.0001 -0.0007  0.0000
 -0.0003  0.0002  0.0005
  0.0000 -0.0000 -0.0000
 -0.0927 -0.1637  0.0628
  0.3843 -0.7347 -0.4298
 -0.0012 -0.0003  0.0011
 -0.0003 -0.0001  0.0002
  0.0003  0.0006 -0.0001
 -0.0004 -0.0001  0.0002
 -0.0003  0.0000  0.0009
  0.0000 -0.0001  0.0001
  0.0000 -0.0003  0.0003
  0.0002 -0.0003 -0.0001
  0.0001 -0.0002 -0.0000
  0.0003 -0.0000 -0.0007
 -0.0000  0.0002 -0.0002
 -0.0001  0.0003 -0.0003
 -0.0004  0.0005  0.0002
  0.0001  0.0002 -0.0001
 -0.0005 -0.0001  0.0004
  0.0007  0.0012 -0.0005
 -0.0001  0.0001  0.0001
  0.0000  0.0002 -0.0000
 -0.0000 -0.0000 -0.0000
  0.0000 -0.0000  0.0000
  0.0001  0.0002 -0.0000
 -0.0001  0.0001  0.0001
 generating redundant internal coords
         300        3600          74
 Adding extra bonds for z output only
           6           6           6           6           6           6
          16           6           6           6           6           6
           6           6           6          16           6           6
           6           6           6           6           6           6
           6           6           6           6           6           6
           6           6           6           6           6           6
           6           6           6           6           6           6
           6           6           1           1           1           1
           1           1           1           1           1           1
           1           1           1           1           1           1
           1           1           1           1           1           1
           1           1           1           1           1           1
           1           1
 search for int coords
   1 str   2   1   1.544
   2 str   3   2   1.544
   3 str   4   2   1.520
   4 str   5   4   1.412
   5 str   6   5   1.374
   6 str   7   6   1.746
   7 str   8   4   1.386
   8 str   8   7   1.736
   9 str   9   8   1.433
  10 str  10   9   1.409
  11 str  11  10   1.376
  12 str  12  11   1.435
  13 str  13  12   1.414
  14 str  14   2   1.536
  15 str  14   9   1.429
  16 str  14  13   1.377
  17 str  15  12   1.417
  18 str  16  15   1.738
  19 str  17  16   1.788
  20 str  18  17   1.428
  21 str  19  18   1.422
  22 str  20  19   1.376
  23 str  21  20   1.421
  24 str  22  21   1.456
  25 str  23  22   1.416
  26 str  24  23   1.375
  27 str  25  24   1.415
  28 str  26  25   1.421
  29 str  27  26   1.368
  30 str  28  27   1.427
  31 str  29  28   1.409
  32 str  30  29   1.391
  33 str  31  30   1.389
  34 str  32  31   1.411
  35 str  33  32   1.423
  36 str  34  33   1.370
  37 str  35  22   1.440
  38 str  35  34   1.426
  39 str  36  25   1.429
  40 str  36  35   1.432
  41 str  37  28   1.431
  42 str  37  32   1.427
  43 str  37  36   1.429
  44 str  38  21   1.422
  45 str  39  18   1.423
  46 str  39  38   1.374
  47 str  40  17   1.411
  48 str  41  15   1.402
  49 str  41  40   1.388
  50 str  42  11   1.535
  51 str  42  41   1.521
  52 str  43  42   1.544
  53 str  44  42   1.544
  54 str  45   1   1.094
  55 str  46   1   1.092
  56 str  47   1   1.093
  57 str  48   3   1.094
  58 str  49   3   1.093
  59 str  50   3   1.092
  60 str  51   5   1.082
  61 str  52   6   1.079
  62 str  53  10   1.085
  63 str  54  13   1.085
  64 str  55  19   1.085
  65 str  56  20   1.082
  66 str  57  23   1.084
  67 str  58  24   1.085
  68 str  59  26   1.085
  69 str  60  27   1.085
  70 str  61  29   1.085
  71 str  62  30   1.085
  72 str  63  31   1.085
  73 str  64  33   1.085
  74 str  65  34   1.081
  75 str  66  38   1.083
  76 str  67  39   1.083
  77 str  68  40   1.081
  78 str  69  43   1.093
  79 str  70  43   1.093
  80 str  71  43   1.092
  81 str  72  44   1.092
  82 str  73  44   1.093
  83 str  74  44   1.093
 nber stretches=          83
  84 ben   1   2   3
  85 prop tor   1   2   3  48
  86 prop tor   1   2   3  49
  87 prop tor   1   2   3  50
  88 ben   1   2   4
  89 prop tor   1   2   4   5
  90 prop tor   1   2   4   8
  91 ben   1   2  14
  92 prop tor   1   2  14   9
  93 prop tor   1   2  14  13
  94 ben   2   1  45
  95 ben   2   1  46
  96 ben   2   1  47
  97 ben   2   3  48
  98 ben   2   3  49
  99 ben   2   3  50
 100 ben   2   4   5
 101 prop tor   2   4   5   6
 102 prop tor   2   4   5  51
 103 ben   2   4   8
 104 prop tor   2   4   8   7
 105 prop tor   2   4   8   9
 106 ben   2  14   9
 107 ben   2  14  13
 108 ben   3   2   4
 109 prop tor   3   2   4   5
 110 prop tor   3   2   4   8
 111 ben   3   2  14
 112 prop tor   3   2  14   9
 113 prop tor   3   2  14  13
 114 prop tor   4   2   3  48
 115 prop tor   4   2   3  49
 116 prop tor   4   2   3  50
 117 ben   4   2  14
 118 prop tor   4   2  14   9
 119 prop tor   4   2  14  13
 120 ben   4   5   6
 121 prop tor   4   5   6   7
 122 prop tor   4   5   6  52
 123 ben   4   5  51
 124 ben   4   8   7
 125 ben   4   8   9
 126 prop tor   4   8   9  10
 127 prop tor   4   8   9  14
 128 ben   5   4   8
 129 prop tor   5   4   8   7
 130 prop tor   5   4   8   9
 131 ben   5   6   7
 132 prop tor   5   6   7   8
 133 ben   5   6  52
 134 ben   6   5  51
 135 ben   6   7   8
 136 prop tor   6   7   8   4
 137 prop tor   6   7   8   9
 138 ben   7   6  52
 139 ben   7   8   9
 140 prop tor   7   8   9  10
 141 prop tor   7   8   9  14
 142 prop tor   8   4   5   6
 143 prop tor   8   4   5  51
 144 ben   8   9  10
 145 prop tor   8   9  10  11
 146 prop tor   8   9  10  53
 147 ben   8   9  14
 148 prop tor   8   9  14   2
 149 prop tor   8   9  14  13
 150 ben   9  10  11
 151 prop tor   9  10  11  12
 152 prop tor   9  10  11  42
 153 ben   9  10  53
 154 ben   9  14  13
 155 ben  10   9  14
 156 prop tor  10   9  14   2
 157 prop tor  10   9  14  13
 158 ben  10  11  12
 159 prop tor  10  11  12  13
 160 prop tor  10  11  12  15
 161 ben  10  11  42
 162 prop tor  10  11  42  41
 163 prop tor  10  11  42  43
 164 prop tor  10  11  42  44
 165 ben  11  10  53
 166 ben  11  12  13
 167 prop tor  11  12  13  14
 168 prop tor  11  12  13  54
 169 ben  11  12  15
 170 prop tor  11  12  15  16
 171 prop tor  11  12  15  41
 172 ben  11  42  41
 173 ben  11  42  43
 174 prop tor  11  42  43  69
 175 prop tor  11  42  43  70
 176 prop tor  11  42  43  71
 177 ben  11  42  44
 178 prop tor  11  42  44  72
 179 prop tor  11  42  44  73
 180 prop tor  11  42  44  74
 181 ben  12  11  42
 182 prop tor  12  11  42  41
 183 prop tor  12  11  42  43
 184 prop tor  12  11  42  44
 185 ben  12  13  14
 186 prop tor  12  13  14   2
 187 prop tor  12  13  14   9
 188 ben  12  13  54
 189 ben  12  15  16
 190 prop tor  12  15  16  17
 191 ben  12  15  41
 192 prop tor  12  15  41  40
 193 prop tor  12  15  41  42
 194 ben  13  12  15
 195 prop tor  13  12  15  16
 196 prop tor  13  12  15  41
 197 prop tor  14   2   3  48
 198 prop tor  14   2   3  49
 199 prop tor  14   2   3  50
 200 prop tor  14   2   4   5
 201 prop tor  14   2   4   8
 202 prop tor  14   9  10  11
 203 prop tor  14   9  10  53
 204 ben  14  13  54
 205 prop tor  15  12  13  14
 206 prop tor  15  12  13  54
 207 ben  15  16  17
 208 prop tor  15  16  17  18
 209 prop tor  15  16  17  40
 210 ben  15  41  40
 211 ben  15  41  42
 212 prop tor  15  41  42  11
 213 prop tor  15  41  42  43
 214 prop tor  15  41  42  44
 215 ben  16  15  41
 216 prop tor  16  15  41  40
 217 prop tor  16  15  41  42
 218 ben  16  17  18
 219 prop tor  16  17  18  19
 220 prop tor  16  17  18  39
 221 ben  16  17  40
 222 prop tor  16  17  40  41
 223 prop tor  16  17  40  68
 224 ben  17  18  19
 225 prop tor  17  18  19  20
 226 prop tor  17  18  19  55
 227 ben  17  18  39
 228 prop tor  17  18  39  38
 229 prop tor  17  18  39  67
 230 ben  17  40  41
 231 prop tor  17  40  41  15
 232 prop tor  17  40  41  42
 233 ben  17  40  68
 234 ben  18  17  40
 235 prop tor  18  17  40  41
 236 prop tor  18  17  40  68
 237 ben  18  19  20
 238 prop tor  18  19  20  21
 239 prop tor  18  19  20  56
 240 ben  18  19  55
 241 ben  18  39  38
 242 ben  18  39  67
 243 ben  19  18  39
 244 prop tor  19  18  39  38
 245 prop tor  19  18  39  67
 246 ben  19  20  21
 247 prop tor  19  20  21  22
 248 prop tor  19  20  21  38
 249 ben  19  20  56
 250 ben  20  19  55
 251 ben  20  21  22
 252 prop tor  20  21  22  23
 253 prop tor  20  21  22  35
 254 ben  20  21  38
 255 prop tor  20  21  38  39
 256 prop tor  20  21  38  66
 257 ben  21  20  56
 258 ben  21  22  23
 259 prop tor  21  22  23  24
 260 prop tor  21  22  23  57
 261 ben  21  22  35
 262 prop tor  21  22  35  34
 263 prop tor  21  22  35  36
 264 ben  21  38  39
 265 prop tor  21  38  39  18
 266 prop tor  21  38  39  67
 267 ben  21  38  66
 268 ben  22  21  38
 269 prop tor  22  21  38  39
 270 prop tor  22  21  38  66
 271 ben  22  23  24
 272 prop tor  22  23  24  25
 273 prop tor  22  23  24  58
 274 ben  22  23  57
 275 ben  22  35  34
 276 ben  22  35  36
 277 prop tor  22  35  36  25
 278 prop tor  22  35  36  37
 279 ben  23  22  35
 280 prop tor  23  22  35  34
 281 prop tor  23  22  35  36
 282 ben  23  24  25
 283 prop tor  23  24  25  26
 284 prop tor  23  24  25  36
 285 ben  23  24  58
 286 ben  24  23  57
 287 ben  24  25  26
 288 prop tor  24  25  26  27
 289 prop tor  24  25  26  59
 290 ben  24  25  36
 291 prop tor  24  25  36  35
 292 prop tor  24  25  36  37
 293 ben  25  24  58
 294 ben  25  26  27
 295 prop tor  25  26  27  28
 296 prop tor  25  26  27  60
 297 ben  25  26  59
 298 ben  25  36  35
 299 ben  25  36  37
 300 prop tor  25  36  37  28
 301 prop tor  25  36  37  32
 302 ben  26  25  36
 303 prop tor  26  25  36  35
 304 prop tor  26  25  36  37
 305 ben  26  27  28
 306 prop tor  26  27  28  29
 307 prop tor  26  27  28  37
 308 ben  26  27  60
 309 ben  27  26  59
 310 ben  27  28  29
 311 prop tor  27  28  29  30
 312 prop tor  27  28  29  61
 313 ben  27  28  37
 314 prop tor  27  28  37  32
 315 prop tor  27  28  37  36
 316 ben  28  27  60
 317 ben  28  29  30
 318 prop tor  28  29  30  31
 319 prop tor  28  29  30  62
 320 ben  28  29  61
 321 ben  28  37  32
 322 ben  28  37  36
 323 ben  29  28  37
 324 prop tor  29  28  37  32
 325 prop tor  29  28  37  36
 326 ben  29  30  31
 327 prop tor  29  30  31  32
 328 prop tor  29  30  31  63
 329 ben  29  30  62
 330 ben  30  29  61
 331 ben  30  31  32
 332 prop tor  30  31  32  33
 333 prop tor  30  31  32  37
 334 ben  30  31  63
 335 ben  31  30  62
 336 ben  31  32  33
 337 prop tor  31  32  33  34
 338 prop tor  31  32  33  64
 339 ben  31  32  37
 340 prop tor  31  32  37  28
 341 prop tor  31  32  37  36
 342 ben  32  31  63
 343 ben  32  33  34
 344 prop tor  32  33  34  35
 345 prop tor  32  33  34  65
 346 ben  32  33  64
 347 ben  32  37  36
 348 ben  33  32  37
 349 prop tor  33  32  37  28
 350 prop tor  33  32  37  36
 351 ben  33  34  35
 352 prop tor  33  34  35  22
 353 prop tor  33  34  35  36
 354 ben  33  34  65
 355 ben  34  33  64
 356 ben  34  35  36
 357 prop tor  34  35  36  25
 358 prop tor  34  35  36  37
 359 prop tor  35  22  23  24
 360 prop tor  35  22  23  57
 361 ben  35  34  65
 362 ben  35  36  37
 363 prop tor  35  36  37  28
 364 prop tor  35  36  37  32
 365 prop tor  36  25  26  27
 366 prop tor  36  25  26  59
 367 prop tor  37  28  29  30
 368 prop tor  37  28  29  61
 369 prop tor  37  32  33  34
 370 prop tor  37  32  33  64
 371 prop tor  38  21  22  23
 372 prop tor  38  21  22  35
 373 ben  38  39  67
 374 prop tor  39  18  19  20
 375 prop tor  39  18  19  55
 376 ben  39  38  66
 377 prop tor  40  17  18  19
 378 prop tor  40  17  18  39
 379 ben  40  41  42
 380 prop tor  40  41  42  11
 381 prop tor  40  41  42  43
 382 prop tor  40  41  42  44
 383 prop tor  41  15  16  17
 384 ben  41  40  68
 385 ben  41  42  43
 386 prop tor  41  42  43  69
 387 prop tor  41  42  43  70
 388 prop tor  41  42  43  71
 389 ben  41  42  44
 390 prop tor  41  42  44  72
 391 prop tor  41  42  44  73
 392 prop tor  41  42  44  74
 393 prop tor  42  11  12  13
 394 prop tor  42  11  12  15
 395 ben  42  43  69
 396 ben  42  43  70
 397 ben  42  43  71
 398 ben  42  44  72
 399 ben  42  44  73
 400 ben  42  44  74
 401 ben  43  42  44
 402 prop tor  43  42  44  72
 403 prop tor  43  42  44  73
 404 prop tor  43  42  44  74
 405 prop tor  44  42  43  69
 406 prop tor  44  42  43  70
 407 prop tor  44  42  43  71
 408 prop tor  45   1   2   3
 409 prop tor  45   1   2   4
 410 prop tor  45   1   2  14
 411 ben  45   1  46
 412 ben  45   1  47
 413 prop tor  46   1   2   3
 414 prop tor  46   1   2   4
 415 prop tor  46   1   2  14
 416 ben  46   1  47
 417 prop tor  47   1   2   3
 418 prop tor  47   1   2   4
 419 prop tor  47   1   2  14
 420 ben  48   3  49
 421 ben  48   3  50
 422 ben  49   3  50
 423 prop tor  51   5   6   7
 424 prop tor  51   5   6  52
 425 prop tor  52   6   7   8
 426 prop tor  53  10  11  12
 427 prop tor  53  10  11  42
 428 prop tor  54  13  14   2
 429 prop tor  54  13  14   9
 430 prop tor  55  19  20  21
 431 prop tor  55  19  20  56
 432 prop tor  56  20  21  22
 433 prop tor  56  20  21  38
 434 prop tor  57  23  24  25
 435 prop tor  57  23  24  58
 436 prop tor  58  24  25  26
 437 prop tor  58  24  25  36
 438 prop tor  59  26  27  28
 439 prop tor  59  26  27  60
 440 prop tor  60  27  28  29
 441 prop tor  60  27  28  37
 442 prop tor  61  29  30  31
 443 prop tor  61  29  30  62
 444 prop tor  62  30  31  32
 445 prop tor  62  30  31  63
 446 prop tor  63  31  32  33
 447 prop tor  63  31  32  37
 448 prop tor  64  33  34  35
 449 prop tor  64  33  34  65
 450 prop tor  65  34  35  22
 451 prop tor  65  34  35  36
 452 prop tor  66  38  39  18
 453 prop tor  66  38  39  67
 454 prop tor  68  40  41  15
 455 prop tor  68  40  41  42
 456 ben  69  43  70
 457 ben  69  43  71
 458 ben  70  43  71
 459 ben  72  44  73
 460 ben  72  44  74
 461 ben  73  44  74
 nber bend=             146
 nber lin bend=           0
 nber prop tor=         232
 nber impr tor=           0
 nber tot redund int=         461
 Reading file: 
 ./IDT-A_1_C0S0.log                                                             
                                          
  Entering Gaussian System, Link 0=g16                                          
  
 Gaussian format, type: g94, g98, g03= F F F
  #P Geom=AllCheck Guess=TCheck SCRF=Check GenChk RB3LYP/6-311G(d,p) Fre    
 energy type= B3LYP   
 Original G94 input coords:
  6  1.305300 -1.268610 -1.174537
  6  2.775859 -0.963538 -0.817039
  6  3.080064 -1.416542  0.627197
  6  3.734370 -1.597927 -1.813127
  6  4.052942 -2.915495 -2.235727
  6  5.028686 -2.921163 -3.196593
 16  5.575875 -1.312430 -3.602186
  6  4.469401 -0.631100 -2.456626
  6  4.110912  0.697580 -1.994019
  6  4.573489  1.970883 -2.344401
  6  4.016042  3.067374 -1.705502
  6  3.006932  2.894010 -0.726450
  6  2.544022  1.620239 -0.376336
  6  3.101790  0.524149 -1.015470
  6  2.649025  4.220947 -0.264557
 16  1.543135  4.900490  0.879745
  6  2.078934  6.535797  0.473256
  6  1.495861  7.702173  1.137181
  6  0.189530  7.686752  1.654237
  6 -0.350698  8.802998  2.278325
  6  0.382675  9.991620  2.405001
  6 -0.203228 11.211889  3.021397
  6 -0.230964 12.391435  2.265761
  6 -0.798487 13.559681  2.751210
  6 -1.368061 13.601833  4.029778
  6 -1.981718 14.788513  4.553514
  6 -2.524013 14.813054  5.798025
  6 -2.498093 13.652554  6.642182
  6 -3.045303 13.656863  7.933188
  6 -2.997990 12.518588  8.731488
  6 -2.403190 11.352352  8.262531
  6 -1.844854 11.299567  6.977161
  6 -1.207656 10.122747  6.463798
  6 -0.680982 10.086863  5.211918
  6 -0.739963 11.224305  4.333170
  6 -1.333531 12.425234  4.834850
  6 -1.892155 12.458187  6.148277
  6  1.683165 10.011099  1.879971
  6  2.232470  8.891728  1.270500
  6  3.065555  6.501537 -0.491505
  6  3.385735  5.188894 -0.906308
  6  4.341580  4.554876 -1.905251
  6  4.033042  5.007527 -3.348661
  6  5.812981  4.860425 -1.551816
  1  1.107032 -2.341520 -1.097752
  1  1.076698 -0.950043 -2.193648
  1  0.625100 -0.751103 -0.492360
  1  2.912307 -2.492015  0.734833
  1  2.430018 -0.901568  1.339999
  1  4.117384 -1.203275  0.893292
  1  3.595277 -3.821606 -1.860262
  1  5.468841 -3.768184 -3.699898
  1  5.346749  2.090761 -3.096220
  1  1.770263  1.500388  0.374943
  1 -0.421080  6.798052  1.540914
  1 -1.369602  8.764265  2.646115
  1  0.177395 12.374565  1.261592
  1 -0.817353 14.450124  2.131745
  1 -2.003528 15.674162  3.927075
  1 -2.986012 15.717814  6.178963
  1 -3.508000 14.564257  8.306626
  1 -3.425831 12.541900  9.727486
  1 -2.364562 10.469317  8.891514
  1 -1.142268  9.250332  7.105732
  1 -0.189350  9.188002  4.864453
  1  2.281518 10.909879  1.980348
  1  3.256173  8.928905  0.917089
  1  3.508831  7.402598 -0.895067
  1  4.681102  4.492210 -4.062963
  1  4.200379  6.082954 -3.457322
  1  2.995004  4.794130 -3.611777
  1  6.044474  4.542721 -0.533083
  1  6.011007  5.933280 -1.630184
  1  6.491290  4.342338 -2.235364
 nber atoms=          74
  SCF Done:  E(RB3LYP) =  -2415.39777043     A.U. after    1 cycles             
  
          23          40 "  -2415.39777043"
After scan for Atom:   Atom  AN      X      Y      Z        X      Y      Z        X      Y      Z   
After scan for Atom:   Atom  AN      X      Y      Z        X      Y      Z        X      Y      Z   
After scan for Atom:   Atom  AN      X      Y      Z        X      Y      Z        X      Y      Z   
After scan for Atom:   Atom  AN      X      Y      Z        X      Y      Z        X      Y      Z   
After scan for Atom:   Atom  AN      X      Y      Z        X      Y      Z        X      Y      Z   
After scan for Atom:   Atom  AN      X      Y      Z        X      Y      Z        X      Y      Z   
After scan for Atom:   Atom  AN      X      Y      Z        X      Y      Z        X      Y      Z   
After scan for Atom:   Atom  AN      X      Y      Z        X      Y      Z        X      Y      Z   
After scan for Atom:   Atom  AN      X      Y      Z        X      Y      Z        X      Y      Z   
After scan for Atom:   Atom  AN      X      Y      Z        X      Y      Z        X      Y      Z   
After scan for Atom:   Atom  AN      X      Y      Z        X      Y      Z        X      Y      Z   
After scan for Atom:   Atom  AN      X      Y      Z        X      Y      Z        X      Y      Z   
After scan for Atom:   Atom  AN      X      Y      Z        X      Y      Z        X      Y      Z   
After scan for Atom:   Atom  AN      X      Y      Z        X      Y      Z        X      Y      Z   
After scan for Atom:   Atom  AN      X      Y      Z        X      Y      Z        X      Y      Z   
After scan for Atom:   Atom  AN      X      Y      Z        X      Y      Z        X      Y      Z   
After scan for Atom:   Atom  AN      X      Y      Z        X      Y      Z        X      Y      Z   
After scan for Atom:   Atom  AN      X      Y      Z        X      Y      Z        X      Y      Z   
After scan for Atom:   Atom  AN      X      Y      Z        X      Y      Z        X      Y      Z   
After scan for Atom:   Atom  AN      X      Y      Z        X      Y      Z        X      Y      Z   
After scan for Atom:   Atom  AN      X      Y      Z        X      Y      Z        X      Y      Z   
After scan for Atom:   Atom  AN      X      Y      Z        X      Y      Z        X      Y      Z   
After scan for Atom:   Atom  AN      X      Y      Z        X      Y      Z        X      Y      Z   
After scan for Atom:   Atom  AN      X      Y      Z        X      Y      Z        X      Y      Z   
After scan for Atom:   Atom  AN      X      Y      Z        X      Y      Z        X      Y      Z   
After scan for Atom:   Atom  AN      X      Y      Z        X      Y      Z        X      Y      Z   
After scan for Atom:   Atom  AN      X      Y      Z        X      Y      Z        X      Y      Z   
After scan for Atom:   Atom  AN      X      Y      Z        X      Y      Z        X      Y      Z   
After scan for Atom:   Atom  AN      X      Y      Z        X      Y      Z        X      Y      Z   
After scan for Atom:   Atom  AN      X      Y      Z        X      Y      Z        X      Y      Z   
After scan for Atom:   Atom  AN      X      Y      Z        X      Y      Z        X      Y      Z   
After scan for Atom:   Atom  AN      X      Y      Z        X      Y      Z        X      Y      Z   
After scan for Atom:   Atom  AN      X      Y      Z        X      Y      Z        X      Y      Z   
After scan for Atom:   Atom  AN      X      Y      Z        X      Y      Z        X      Y      Z   
After scan for Atom:   Atom  AN      X      Y      Z        X      Y      Z        X      Y      Z   
After scan for Atom:   Atom  AN      X      Y      Z        X      Y      Z        X      Y      Z   
After scan for Atom:   Atom  AN      X      Y      Z        X      Y      Z        X      Y      Z   
After scan for Atom:   Atom  AN      X      Y      Z        X      Y      Z        X      Y      Z   
After scan for Atom:   Atom  AN      X      Y      Z        X      Y      Z        X      Y      Z   
After scan for Atom:   Atom  AN      X      Y      Z        X      Y      Z        X      Y      Z   
After scan for Atom:   Atom  AN      X      Y      Z        X      Y      Z        X      Y      Z   
After scan for Atom:   Atom  AN      X      Y      Z        X      Y      Z        X      Y      Z   
After scan for Atom:   Atom  AN      X      Y      Z        X      Y      Z        X      Y      Z   
After scan for Atom:   Atom  AN      X      Y      Z        X      Y      Z        X      Y      Z   
After scan for Atom:   Atom  AN      X      Y      Z        X      Y      Z        X      Y      Z   
After scan for Atom:   Atom  AN      X      Y      Z        X      Y      Z        X      Y      Z   
After scan for Atom:   Atom  AN      X      Y      Z        X      Y      Z        X      Y      Z   
After scan for Atom:   Atom  AN      X      Y      Z        X      Y      Z        X      Y      Z   
After scan for Atom:   Atom  AN      X      Y      Z        X      Y      Z        X      Y      Z   
After scan for Atom:   Atom  AN      X      Y      Z        X      Y      Z        X      Y      Z   
After scan for Atom:   Atom  AN      X      Y      Z        X      Y      Z        X      Y      Z   
After scan for Atom:   Atom  AN      X      Y      Z        X      Y      Z        X      Y      Z   
After scan for Atom:   Atom  AN      X      Y      Z        X      Y      Z        X      Y      Z   
After scan for Atom:   Atom  AN      X      Y      Z        X      Y      Z        X      Y      Z   
After scan for Atom:   Atom  AN      X      Y      Z        X      Y      Z        X      Y      Z   
After scan for Atom:   Atom  AN      X      Y      Z        X      Y      Z        X      Y      Z   
After scan for Atom:   Atom  AN      X      Y      Z        X      Y      Z        X      Y      Z   
After scan for Atom:   Atom  AN      X      Y      Z        X      Y      Z        X      Y      Z   
After scan for Atom:   Atom  AN      X      Y      Z        X      Y      Z        X      Y      Z   
After scan for Atom:   Atom  AN      X      Y      Z        X      Y      Z        X      Y      Z   
After scan for Atom:   Atom  AN      X      Y      Z        X      Y      Z        X      Y      Z   
After scan for Atom:   Atom  AN      X      Y      Z        X      Y      Z        X      Y      Z   
After scan for Atom:   Atom  AN      X      Y      Z        X      Y      Z        X      Y      Z   
After scan for Atom:   Atom  AN      X      Y      Z        X      Y      Z        X      Y      Z   
After scan for Atom:   Atom  AN      X      Y      Z        X      Y      Z        X      Y      Z   
After scan for Atom:   Atom  AN      X      Y      Z        X      Y      Z        X      Y      Z   
After scan for Atom:   Atom  AN      X      Y      Z        X      Y      Z        X      Y      Z   
After scan for Atom:   Atom  AN      X      Y      Z        X      Y      Z        X      Y      Z   
After scan for Atom:   Atom  AN      X      Y      Z        X      Y      Z        X      Y      Z   
After scan for Atom:   Atom  AN      X      Y      Z        X      Y      Z        X      Y      Z   
After scan for Atom:   Atom  AN      X      Y      Z        X      Y      Z        X      Y      Z   
After scan for Atom:   Atom  AN      X      Y      Z        X      Y      Z        X      Y      Z   
 g94    frequencies=
     0.0    0.0    0.0    0.0    0.0    0.0   11.2   11.9   18.4   29.2
    48.5   53.0   54.5   68.8   94.9   98.8  105.5  107.8  115.9  121.3
   144.4  151.6  163.6  180.0  206.9  209.4  220.3  223.7  241.1  248.4
   248.7  250.1  263.7  273.0  283.4  290.0  294.5  316.7  321.7  334.9
   355.8  373.7  377.8  402.1  416.0  418.5  420.6  430.8  433.3  451.5
   453.4  468.7  480.8  498.5  500.5  509.1  514.3  520.7  522.2  552.3
   554.3  556.5  575.5  576.2  582.9  603.8  622.6  630.5  636.3  652.3
   658.3  660.0  674.8  691.6  694.0  705.0  717.2  723.3  730.7  735.2
[...]
    0.    0.    0.    0.    0.    0.    0.    0.    0.    0.    0.    0.    0.    0.    0.    0.    0.    0.    0.    0.
    0.    0.    0.    0.    0.    0.    0.    0.    0.    0.    0.    0.    0.    0.    0.    0.    0.    0.    0.    0.
    0.    0.    0.    0.    0.    0.    0.    0.    0.    0.    0.    0.    0.    0.    0.    0.    0.    0.    0.    0.
    0.    0.    0.    0.    0.    0.    0.    0.    0.    0.    0.    0.    0.    0.    0.    0.    0.    0.    0.    0.
    0.    0.    0.    0.    0.    0.    0.    0.    0.    0.    0.    0.    0.    0.    0.    0.    0.    0.    0.    0.
    0.    0.    0.    0.    0.    0.    0.    0.    0.    0.    0.    0.    0.    0.    0.    0.    0.    0.    0.    0.
    0.    0.    0.    0.    0.    0.    0.    0.    0.    0.    0.    0.    0.    0.    0.    0.    0.    0.    0.    0.
    0.    0.

 Displacement: in terms of nc of 1 THEN of nc of 2

   1     freq=    -0. Q=  0.000 lam=    -0.0     freq=     0. Q=  0.000 lam=     0.0
   2     freq=    -0. Q= -0.000 lam=    -0.0     freq=     0. Q= -0.000 lam=     0.0
   3     freq=    -0. Q=  0.000 lam=    -0.0     freq=     0. Q=  0.000 lam=     0.0
   4     freq=     0. Q=  0.000 lam=     0.0     freq=     0. Q=  0.000 lam=     0.0
   5     freq=     0. Q= -0.000 lam=     0.0     freq=     0. Q= -0.000 lam=     0.0
   6     freq=     0. Q= -0.000 lam=     0.0     freq=     0. Q= -0.000 lam=     0.0
   7     freq=    10. Q=  0.336 lam=     0.6     freq=     0. Q=  0.000 lam=     0.0
   8     freq=    11. Q=  1.765 lam=    17.8     freq=     0. Q=  0.000 lam=     0.0
   9     freq=    20. Q=  1.369 lam=    19.1     freq=     0. Q=  0.000 lam=     0.0
  10     freq=    27. Q= -1.171 lam=    18.5     freq=     0. Q= -0.000 lam=     0.0
  11     freq=    45. Q=  1.088 lam=    26.8     freq=     0. Q=  0.000 lam=     0.0
  12     freq=    52. Q=  0.538 lam=     7.5     freq=     0. Q=  0.000 lam=     0.0
  13     freq=    67. Q= -1.787 lam=   106.3     freq=     0. Q= -0.000 lam=     0.0
  14     freq=    73. Q=  2.784 lam=   283.4     freq=     0. Q=  0.000 lam=     0.0
  15     freq=    88. Q=  0.715 lam=    22.6     freq=     0. Q=  0.000 lam=     0.0
  16     freq=   104. Q=  0.287 lam=     4.3     freq=     0. Q=  0.000 lam=     0.0
  17     freq=   104. Q=  0.148 lam=     1.1     freq=     0. Q=  0.000 lam=     0.0
  18     freq=   110. Q= -0.041 lam=     0.1     freq=     0. Q= -0.000 lam=     0.0
  19     freq=   120. Q=  2.590 lam=   403.9     freq=     0. Q=  0.000 lam=     0.0
  20     freq=   128. Q=  0.401 lam=    10.3     freq=     0. Q=  0.000 lam=     0.0
  21     freq=   143. Q=  0.082 lam=     0.5     freq=     0. Q=  0.000 lam=     0.0
  22     freq=   152. Q= -0.156 lam=     1.8     freq=     0. Q= -0.000 lam=     0.0
  23     freq=   160. Q= -0.123 lam=     1.2     freq=     0. Q= -0.000 lam=     0.0
  24     freq=   185. Q= -0.001 lam=     0.0     freq=     0. Q= -0.000 lam=     0.0
  25     freq=   199. Q= -0.073 lam=     0.5     freq=     0. Q= -0.000 lam=     0.0
  26     freq=   208. Q=  0.079 lam=     0.7     freq=     0. Q=  0.000 lam=     0.0
  27     freq=   221. Q=  0.154 lam=     2.6     freq=     0. Q=  0.000 lam=     0.0
  28     freq=   223. Q= -0.119 lam=     1.6     freq=     0. Q= -0.000 lam=     0.0
  29     freq=   232. Q= -0.076 lam=     0.7     freq=     0. Q= -0.000 lam=     0.0
  30     freq=   243. Q=  0.012 lam=     0.0     freq=     0. Q=  0.000 lam=     0.0
  31     freq=   246. Q=  0.080 lam=     0.8     freq=     0. Q=  0.000 lam=     0.0
  32     freq=   246. Q=  0.047 lam=     0.3     freq=     0. Q=  0.000 lam=     0.0
  33     freq=   265. Q= -0.502 lam=    33.4     freq=     0. Q= -0.000 lam=     0.0
  34     freq=   271. Q= -0.185 lam=     4.6     freq=     0. Q= -0.000 lam=     0.0
  35     freq=   279. Q= -0.107 lam=     1.6     freq=     0. Q= -0.000 lam=     0.0
  36     freq=   287. Q=  0.003 lam=     0.0     freq=     0. Q=  0.000 lam=     0.0
  37     freq=   292. Q= -0.086 lam=     1.1     freq=     0. Q= -0.000 lam=     0.0
  38     freq=   303. Q= -0.083 lam=     1.0     freq=     0. Q= -0.000 lam=     0.0
  39     freq=   316. Q=  0.087 lam=     1.2     freq=     0. Q=  0.000 lam=     0.0
  40     freq=   330. Q=  0.269 lam=    12.0     freq=     0. Q=  0.000 lam=     0.0
  41     freq=   346. Q=  0.151 lam=     3.9     freq=     0. Q=  0.000 lam=     0.0
  42     freq=   371. Q=  0.034 lam=     0.2     freq=     0. Q=  0.000 lam=     0.0
  43     freq=   373. Q= -0.059 lam=     0.6     freq=     0. Q= -0.000 lam=     0.0
  44     freq=   404. Q= -0.045 lam=     0.4     freq=     0. Q= -0.000 lam=     0.0
  45     freq=   411. Q=  0.068 lam=     1.0     freq=     0. Q=  0.000 lam=     0.0
  46     freq=   414. Q=  0.311 lam=    20.0     freq=     0. Q=  0.000 lam=     0.0
  47     freq=   417. Q= -0.004 lam=     0.0     freq=     0. Q= -0.000 lam=     0.0
  48     freq=   424. Q= -0.235 lam=    11.8     freq=     0. Q= -0.000 lam=     0.0
  49     freq=   432. Q= -0.114 lam=     2.8     freq=     0. Q= -0.000 lam=     0.0
  50     freq=   447. Q= -0.036 lam=     0.3     freq=     0. Q= -0.000 lam=     0.0
  51     freq=   450. Q= -0.266 lam=    15.9     freq=     0. Q= -0.000 lam=     0.0
  52     freq=   466. Q=  0.069 lam=     1.1     freq=     0. Q=  0.000 lam=     0.0
  53     freq=   479. Q= -0.075 lam=     1.3     freq=     0. Q= -0.000 lam=     0.0
  54     freq=   487. Q= -0.007 lam=     0.0     freq=     0. Q= -0.000 lam=     0.0
  55     freq=   495. Q=  0.262 lam=    17.0     freq=     0. Q=  0.000 lam=     0.0
  56     freq=   503. Q= -0.038 lam=     0.4     freq=     0. Q= -0.000 lam=     0.0
  57     freq=   504. Q= -0.071 lam=     1.3     freq=     0. Q= -0.000 lam=     0.0
  58     freq=   516. Q=  0.081 lam=     1.7     freq=     0. Q=  0.000 lam=     0.0
  59     freq=   523. Q=  0.005 lam=     0.0     freq=     0. Q=  0.000 lam=     0.0
  60     freq=   542. Q=  0.034 lam=     0.3     freq=     0. Q=  0.000 lam=     0.0
  61     freq=   549. Q=  0.168 lam=     7.8     freq=     0. Q=  0.000 lam=     0.0
  62     freq=   554. Q=  0.084 lam=     1.9     freq=     0. Q=  0.000 lam=     0.0
  63     freq=   566. Q=  0.064 lam=     1.2     freq=     0. Q=  0.000 lam=     0.0
  64     freq=   571. Q=  0.225 lam=    14.5     freq=     0. Q=  0.000 lam=     0.0
  65     freq=   573. Q= -0.023 lam=     0.1     freq=     0. Q= -0.000 lam=     0.0
  66     freq=   602. Q= -0.096 lam=     2.8     freq=     0. Q= -0.000 lam=     0.0
  67     freq=   618. Q= -0.098 lam=     3.0     freq=     0. Q= -0.000 lam=     0.0
  68     freq=   618. Q=  0.120 lam=     4.5     freq=     0. Q=  0.000 lam=     0.0
  69     freq=   633. Q=  0.320 lam=    32.4     freq=     0. Q=  0.000 lam=     0.0
  70     freq=   640. Q= -0.011 lam=     0.0     freq=     0. Q= -0.000 lam=     0.0
  71     freq=   657. Q= -0.154 lam=     7.8     freq=     0. Q= -0.000 lam=     0.0
  72     freq=   664. Q= -0.006 lam=     0.0     freq=     0. Q= -0.000 lam=     0.0
  73     freq=   668. Q=  0.183 lam=    11.2     freq=     0. Q=  0.000 lam=     0.0
  74     freq=   679. Q=  0.099 lam=     3.3     freq=     0. Q=  0.000 lam=     0.0
  75     freq=   682. Q=  0.102 lam=     3.6     freq=     0. Q=  0.000 lam=     0.0
  76     freq=   700. Q=  0.123 lam=     5.3     freq=     0. Q=  0.000 lam=     0.0
  77     freq=   708. Q=  0.188 lam=    12.5     freq=     0. Q=  0.000 lam=     0.0
  78     freq=   710. Q=  0.036 lam=     0.5     freq=     0. Q=  0.000 lam=     0.0
  79     freq=   721. Q= -0.195 lam=    13.7     freq=     0. Q= -0.000 lam=     0.0
  80     freq=   728. Q=  0.027 lam=     0.3     freq=     0. Q=  0.000 lam=     0.0
  81     freq=   732. Q= -0.051 lam=     1.0     freq=     0. Q= -0.000 lam=     0.0
  82     freq=   737. Q= -0.009 lam=     0.0     freq=     0. Q= -0.000 lam=     0.0
  83     freq=   742. Q= -0.044 lam=     0.7     freq=     0. Q= -0.000 lam=     0.0
  84     freq=   755. Q= -0.016 lam=     0.1     freq=     0. Q= -0.000 lam=     0.0
  85     freq=   772. Q=  0.072 lam=     2.0     freq=     0. Q=  0.000 lam=     0.0
  86     freq=   777. Q= -0.001 lam=     0.0     freq=     0. Q= -0.000 lam=     0.0
  87     freq=   792. Q= -0.079 lam=     2.5     freq=     0. Q= -0.000 lam=     0.0
  88     freq=   795. Q= -0.122 lam=     6.0     freq=     0. Q= -0.000 lam=     0.0
  89     freq=   803. Q= -0.300 lam=    36.0     freq=     0. Q= -0.000 lam=     0.0
  90     freq=   812. Q=  0.048 lam=     0.9     freq=     0. Q=  0.000 lam=     0.0
  91     freq=   825. Q= -0.057 lam=     1.3     freq=     0. Q= -0.000 lam=     0.0
  92     freq=   829. Q=  0.022 lam=     0.2     freq=     0. Q=  0.000 lam=     0.0
  93     freq=   830. Q= -0.075 lam=     2.3     freq=     0. Q= -0.000 lam=     0.0
  94     freq=   834. Q= -0.006 lam=     0.0     freq=     0. Q= -0.000 lam=     0.0
  95     freq=   840. Q= -0.068 lam=     1.9     freq=     0. Q= -0.000 lam=     0.0
  96     freq=   851. Q=  0.020 lam=     0.2     freq=     0. Q=  0.000 lam=     0.0
  97     freq=   853. Q=  0.009 lam=     0.0     freq=     0. Q=  0.000 lam=     0.0
  98     freq=   865. Q= -0.168 lam=    12.2     freq=     0. Q= -0.000 lam=     0.0
  99     freq=   879. Q=  0.002 lam=     0.0     freq=     0. Q=  0.000 lam=     0.0
 100     freq=   882. Q=  0.003 lam=     0.0     freq=     0. Q=  0.000 lam=     0.0
 101     freq=   885. Q=  0.000 lam=     0.0     freq=     0. Q=  0.000 lam=     0.0
 102     freq=   892. Q= -0.004 lam=     0.0     freq=     0. Q= -0.000 lam=     0.0
 103     freq=   898. Q=  0.069 lam=     2.1     freq=     0. Q=  0.000 lam=     0.0
 104     freq=   938. Q= -0.026 lam=     0.3     freq=     0. Q= -0.000 lam=     0.0
 105     freq=   949. Q=  0.001 lam=     0.0     freq=     0. Q=  0.000 lam=     0.0
 106     freq=   949. Q=  0.000 lam=     0.0     freq=     0. Q=  0.000 lam=     0.0
 107     freq=   951. Q=  0.019 lam=     0.2     freq=     0. Q=  0.000 lam=     0.0
 108     freq=   959. Q= -0.008 lam=     0.0     freq=     0. Q= -0.000 lam=     0.0
 109     freq=   962. Q= -0.032 lam=     0.5     freq=     0. Q= -0.000 lam=     0.0
 110     freq=   968. Q=  0.003 lam=     0.0     freq=     0. Q=  0.000 lam=     0.0
 111     freq=   972. Q=  0.019 lam=     0.2     freq=     0. Q=  0.000 lam=     0.0
 112     freq=   982. Q= -0.054 lam=     1.4     freq=     0. Q= -0.000 lam=     0.0
 113     freq=   983. Q= -0.062 lam=     1.9     freq=     0. Q= -0.000 lam=     0.0
 114     freq=   990. Q=  0.033 lam=     0.5     freq=     0. Q=  0.000 lam=     0.0
 115     freq=   994. Q= -0.087 lam=     3.7     freq=     0. Q= -0.000 lam=     0.0
 116     freq=  1000. Q= -0.062 lam=     1.9     freq=     0. Q= -0.000 lam=     0.0
 117     freq=  1005. Q=  0.082 lam=     3.4     freq=     0. Q=  0.000 lam=     0.0
 118     freq=  1016. Q= -0.034 lam=     0.6     freq=     0. Q= -0.000 lam=     0.0
 119     freq=  1030. Q=  0.002 lam=     0.0     freq=     0. Q=  0.000 lam=     0.0
 120     freq=  1031. Q= -0.000 lam=     0.0     freq=     0. Q= -0.000 lam=     0.0
 121     freq=  1069. Q=  0.134 lam=     9.6     freq=     0. Q=  0.000 lam=     0.0
 122     freq=  1094. Q= -0.013 lam=     0.1     freq=     0. Q= -0.000 lam=     0.0
 123     freq=  1096. Q=  0.057 lam=     1.8     freq=     0. Q=  0.000 lam=     0.0
 124     freq=  1104. Q= -0.053 lam=     1.5     freq=     0. Q= -0.000 lam=     0.0
 125     freq=  1128. Q= -0.072 lam=     2.9     freq=     0. Q= -0.000 lam=     0.0
 126     freq=  1135. Q=  0.007 lam=     0.0     freq=     0. Q=  0.000 lam=     0.0
 127     freq=  1142. Q=  0.068 lam=     2.6     freq=     0. Q=  0.000 lam=     0.0
 128     freq=  1155. Q=  0.002 lam=     0.0     freq=     0. Q=  0.000 lam=     0.0
 129     freq=  1156. Q= -0.005 lam=     0.0     freq=     0. Q= -0.000 lam=     0.0
 130     freq=  1163. Q=  0.054 lam=     1.7     freq=     0. Q=  0.000 lam=     0.0
 131     freq=  1163. Q=  0.048 lam=     1.3     freq=     0. Q=  0.000 lam=     0.0
 132     freq=  1170. Q=  0.043 lam=     1.1     freq=     0. Q=  0.000 lam=     0.0
 133     freq=  1182. Q=  0.036 lam=     0.8     freq=     0. Q=  0.000 lam=     0.0
 134     freq=  1195. Q=  0.002 lam=     0.0     freq=     0. Q=  0.000 lam=     0.0
 135     freq=  1200. Q=  0.000 lam=     0.0     freq=     0. Q=  0.000 lam=     0.0
 136     freq=  1212. Q=  0.065 lam=     2.5     freq=     0. Q=  0.000 lam=     0.0
 137     freq=  1219. Q=  0.240 lam=    35.1     freq=     0. Q=  0.000 lam=     0.0
 138     freq=  1229. Q= -0.123 lam=     9.3     freq=     0. Q= -0.000 lam=     0.0
 139     freq=  1235. Q=  0.119 lam=     8.8     freq=     0. Q=  0.000 lam=     0.0
 140     freq=  1237. Q= -0.092 lam=     5.2     freq=     0. Q= -0.000 lam=     0.0
 141     freq=  1243. Q= -0.059 lam=     2.2     freq=     0. Q= -0.000 lam=     0.0
 142     freq=  1248. Q=  0.199 lam=    24.7     freq=     0. Q=  0.000 lam=     0.0
 143     freq=  1254. Q= -0.066 lam=     2.7     freq=     0. Q= -0.000 lam=     0.0
 144     freq=  1267. Q=  0.008 lam=     0.0     freq=     0. Q=  0.000 lam=     0.0
 145     freq=  1272. Q=  0.009 lam=     0.0     freq=     0. Q=  0.000 lam=     0.0
 146     freq=  1281. Q=  0.008 lam=     0.0     freq=     0. Q=  0.000 lam=     0.0
 147     freq=  1289. Q= -0.041 lam=     1.1     freq=     0. Q= -0.000 lam=     0.0
 148     freq=  1307. Q=  0.068 lam=     3.1     freq=     0. Q=  0.000 lam=     0.0
 149     freq=  1327. Q= -0.005 lam=     0.0     freq=     0. Q= -0.000 lam=     0.0
 150     freq=  1342. Q=  0.055 lam=     2.0     freq=     0. Q=  0.000 lam=     0.0
 151     freq=  1357. Q=  0.039 lam=     1.0     freq=     0. Q=  0.000 lam=     0.0
 152     freq=  1362. Q=  0.110 lam=     8.2     freq=     0. Q=  0.000 lam=     0.0
 153     freq=  1365. Q=  0.032 lam=     0.7     freq=     0. Q=  0.000 lam=     0.0
 154     freq=  1370. Q=  0.170 lam=    19.7     freq=     0. Q=  0.000 lam=     0.0
 155     freq=  1376. Q=  0.107 lam=     7.9     freq=     0. Q=  0.000 lam=     0.0
 156     freq=  1385. Q= -0.247 lam=    42.2     freq=     0. Q= -0.000 lam=     0.0
 157     freq=  1397. Q=  0.489 lam=   167.2     freq=     0. Q=  0.000 lam=     0.0
 158     freq=  1399. Q= -0.003 lam=     0.0     freq=     0. Q= -0.000 lam=     0.0
 159     freq=  1399. Q=  0.001 lam=     0.0     freq=     0. Q=  0.000 lam=     0.0
 160     freq=  1413. Q=  0.150 lam=    15.9     freq=     0. Q=  0.000 lam=     0.0
 161     freq=  1421. Q= -0.006 lam=     0.0     freq=     0. Q= -0.000 lam=     0.0
 162     freq=  1423. Q= -0.218 lam=    33.8     freq=     0. Q= -0.000 lam=     0.0
 163     freq=  1440. Q=  0.057 lam=     2.3     freq=     0. Q=  0.000 lam=     0.0
 164     freq=  1446. Q= -0.093 lam=     6.2     freq=     0. Q= -0.000 lam=     0.0
 165     freq=  1449. Q=  0.162 lam=    19.0     freq=     0. Q=  0.000 lam=     0.0
 166     freq=  1455. Q= -0.235 lam=    40.3     freq=     0. Q= -0.000 lam=     0.0
 167     freq=  1477. Q= -0.006 lam=     0.0     freq=     0. Q= -0.000 lam=     0.0
 168     freq=  1484. Q=  0.000 lam=     0.0     freq=     0. Q=  0.000 lam=     0.0
 169     freq=  1485. Q= -0.001 lam=     0.0     freq=     0. Q= -0.000 lam=     0.0
 170     freq=  1486. Q= -0.099 lam=     7.2     freq=     0. Q= -0.000 lam=     0.0
 171     freq=  1487. Q=  0.000 lam=     0.0     freq=     0. Q=  0.000 lam=     0.0
 172     freq=  1488. Q= -0.002 lam=     0.0     freq=     0. Q= -0.000 lam=     0.0
 173     freq=  1490. Q=  0.330 lam=    81.2     freq=     0. Q=  0.000 lam=     0.0
 174     freq=  1494. Q= -0.061 lam=     2.8     freq=     0. Q= -0.000 lam=     0.0
 175     freq=  1496. Q= -0.128 lam=    12.2     freq=     0. Q= -0.000 lam=     0.0
 176     freq=  1503. Q=  0.004 lam=     0.0     freq=     0. Q=  0.000 lam=     0.0
 177     freq=  1504. Q=  0.039 lam=     1.1     freq=     0. Q=  0.000 lam=     0.0
 178     freq=  1506. Q= -0.055 lam=     2.3     freq=     0. Q= -0.000 lam=     0.0
 179     freq=  1509. Q=  0.017 lam=     0.2     freq=     0. Q=  0.000 lam=     0.0
 180     freq=  1512. Q= -0.063 lam=     3.0     freq=     0. Q= -0.000 lam=     0.0
 181     freq=  1515. Q= -0.043 lam=     1.4     freq=     0. Q= -0.000 lam=     0.0
 182     freq=  1526. Q= -0.162 lam=    20.1     freq=     0. Q= -0.000 lam=     0.0
 183     freq=  1529. Q= -0.101 lam=     7.8     freq=     0. Q= -0.000 lam=     0.0
 184     freq=  1536. Q= -0.244 lam=    45.7     freq=     0. Q= -0.000 lam=     0.0
 185     freq=  1549. Q=  0.080 lam=     5.0     freq=     0. Q=  0.000 lam=     0.0
 186     freq=  1553. Q=  0.069 lam=     3.7     freq=     0. Q=  0.000 lam=     0.0
 187     freq=  1599. Q=  0.017 lam=     0.2     freq=     0. Q=  0.000 lam=     0.0
 188     freq=  1605. Q=  0.211 lam=    35.6     freq=     0. Q=  0.000 lam=     0.0
 189     freq=  1615. Q=  0.055 lam=     2.4     freq=     0. Q=  0.000 lam=     0.0
 190     freq=  1622. Q= -0.052 lam=     2.2     freq=     0. Q= -0.000 lam=     0.0
 191     freq=  1632. Q= -0.126 lam=    13.0     freq=     0. Q= -0.000 lam=     0.0
 192     freq=  1649. Q= -0.619 lam=   316.1     freq=     0. Q= -0.000 lam=     0.0
 193     freq=  3025. Q=  0.000 lam=     0.0     freq=     0. Q=  0.000 lam=     0.0
 194     freq=  3025. Q=  0.000 lam=     0.0     freq=     0. Q=  0.000 lam=     0.0
 195     freq=  3029. Q= -0.008 lam=     0.1     freq=     0. Q= -0.000 lam=     0.0
 196     freq=  3029. Q= -0.002 lam=     0.0     freq=     0. Q= -0.000 lam=     0.0
 197     freq=  3089. Q= -0.000 lam=     0.0     freq=     0. Q= -0.000 lam=     0.0
 198     freq=  3089. Q=  0.000 lam=     0.0     freq=     0. Q=  0.000 lam=     0.0
 199     freq=  3094. Q= -0.002 lam=     0.0     freq=     0. Q= -0.000 lam=     0.0
 200     freq=  3094. Q= -0.004 lam=     0.0     freq=     0. Q= -0.000 lam=     0.0
 201     freq=  3105. Q= -0.000 lam=     0.0     freq=     0. Q= -0.000 lam=     0.0
 202     freq=  3106. Q=  0.000 lam=     0.0     freq=     0. Q=  0.000 lam=     0.0
 203     freq=  3107. Q= -0.004 lam=     0.0     freq=     0. Q= -0.000 lam=     0.0
 204     freq=  3108. Q= -0.002 lam=     0.0     freq=     0. Q= -0.000 lam=     0.0
 205     freq=  3152. Q=  0.001 lam=     0.0     freq=     0. Q=  0.000 lam=     0.0
 206     freq=  3154. Q=  0.009 lam=     0.1     freq=     0. Q=  0.000 lam=     0.0
 207     freq=  3158. Q= -0.012 lam=     0.2     freq=     0. Q= -0.000 lam=     0.0
 208     freq=  3159. Q=  0.002 lam=     0.0     freq=     0. Q=  0.000 lam=     0.0
 209     freq=  3163. Q= -0.002 lam=     0.0     freq=     0. Q= -0.000 lam=     0.0
 210     freq=  3165. Q= -0.003 lam=     0.0     freq=     0. Q= -0.000 lam=     0.0
 211     freq=  3166. Q= -0.006 lam=     0.0     freq=     0. Q= -0.000 lam=     0.0
 212     freq=  3170. Q= -0.012 lam=     0.2     freq=     0. Q= -0.000 lam=     0.0
 213     freq=  3171. Q= -0.002 lam=     0.0     freq=     0. Q= -0.000 lam=     0.0
 214     freq=  3172. Q=  0.001 lam=     0.0     freq=     0. Q=  0.000 lam=     0.0
 215     freq=  3179. Q=  0.001 lam=     0.0     freq=     0. Q=  0.000 lam=     0.0
 216     freq=  3181. Q= -0.013 lam=     0.3     freq=     0. Q= -0.000 lam=     0.0
 217     freq=  3191. Q=  0.003 lam=     0.0     freq=     0. Q=  0.000 lam=     0.0
 218     freq=  3194. Q=  0.008 lam=     0.1     freq=     0. Q=  0.000 lam=     0.0
 219     freq=  3201. Q= -0.004 lam=     0.0     freq=     0. Q= -0.000 lam=     0.0
 220     freq=  3204. Q= -0.006 lam=     0.1     freq=     0. Q= -0.000 lam=     0.0
 221     freq=  3215. Q= -0.021 lam=     0.7     freq=     0. Q= -0.000 lam=     0.0
 222     freq=  3243. Q= -0.000 lam=     0.0     freq=     0. Q= -0.000 lam=     0.0

 total reorg energy (cm**-1, kcal/mol)=     2328.        0.      6.66      0.00
 Nber of molecules processed=           2
