 Enter ifcurve (0=recti, 1=orth curvi, 2=apprx curvi, -1 = skip
 And atom ordering flag, 0= never changes, 1= use the first order thenceforth,
  2= deduce it (does read on fail), 3= always read it
 Reading file: 
 ./conjugated_carbonyls_2_C0S0.log                                              
                                          
  Entering Gaussian System, Link 0=g16                                          
  
 Gaussian format, type: g94, g98, g03= F F F
  #P Geom=AllCheck Guess=TCheck SCRF=Check Test GenChk RB3LYP/6-311G(d,p    
 energy type= B3LYP   
 Original G94 input coords:
  8  1.388478 -3.252945  0.000000
  6  0.787599 -2.202256  0.000000
  6 -0.787599 -2.202256  0.000000
  8 -1.388478 -3.252945  0.000000
  6 -1.416693 -0.885435  0.000000
 16 -3.137612 -0.650581  0.000000
  6 -2.926761  1.060352  0.000000
  6 -1.609300  1.437185  0.000000
  6 -0.730531  0.319859  0.000000
  6  0.730531  0.319859  0.000000
  6  1.609300  1.437185  0.000000
  6  2.926761  1.060352  0.000000
 16  3.137612 -0.650581  0.000000
  6  1.416693 -0.885435  0.000000
  1 -3.793756  1.703919  0.000000
  1 -1.288787  2.469902  0.000000
  1  1.288787  2.469902  0.000000
  1  3.793756  1.703919  0.000000
 nber atoms=          18
  SCF Done:  E(RB3LYP) =  -1330.45420980     A.U. after    1 cycles             
  
          23          40 "  -1330.45420980"
After scan for Atom:   Atom  AN      X      Y      Z        X      Y      Z        X      Y      Z   
After scan for Atom:   Atom  AN      X      Y      Z        X      Y      Z        X      Y      Z   
After scan for Atom:   Atom  AN      X      Y      Z        X      Y      Z        X      Y      Z   
After scan for Atom:   Atom  AN      X      Y      Z        X      Y      Z        X      Y      Z   
After scan for Atom:   Atom  AN      X      Y      Z        X      Y      Z        X      Y      Z   
After scan for Atom:   Atom  AN      X      Y      Z        X      Y      Z        X      Y      Z   
After scan for Atom:   Atom  AN      X      Y      Z        X      Y      Z        X      Y      Z   
After scan for Atom:   Atom  AN      X      Y      Z        X      Y      Z        X      Y      Z   
After scan for Atom:   Atom  AN      X      Y      Z        X      Y      Z        X      Y      Z   
After scan for Atom:   Atom  AN      X      Y      Z        X      Y      Z        X      Y      Z   
After scan for Atom:   Atom  AN      X      Y      Z        X      Y      Z        X      Y      Z   
After scan for Atom:   Atom  AN      X      Y      Z        X      Y      Z        X      Y      Z   
After scan for Atom:   Atom  AN      X      Y      Z        X      Y      Z        X      Y      Z   
After scan for Atom:   Atom  AN      X      Y      Z        X      Y      Z        X      Y      Z   
After scan for Atom:   Atom  AN      X      Y      Z        X      Y      Z        X      Y      Z   
After scan for Atom:   Atom  AN      X      Y      Z        X      Y      Z        X      Y      Z   
 g94    frequencies=
     0.0    0.0    0.0    0.0    0.0    0.0   67.4   96.2  139.6  148.5
   201.9  265.4  297.1  327.0  361.2  386.7  416.9  468.7  489.9  539.7
   539.9  618.0  673.8  691.1  696.0  743.0  753.9  778.6  825.2  832.9
   855.6  877.0  891.4  891.8  895.3 1006.2 1104.7 1124.0 1197.2 1232.0
  1256.8 1301.2 1383.0 1434.1 1444.6 1454.5 1560.2 1562.1 1742.2 1765.4
  3207.7 3212.1 3240.2 3240.6
 g94    symmetries=
                                                 A      A      A      A
       A      A      A      A      A      A      A      A      A      A
       A      A      A      A      A      A      A      A      A      A
       A      A      A      A      A      A      A      A      A      A
       A      A      A      A      A      A      A      A      A      A
       A      A      A      A
 atomic masses:
 15.9949 12.0000 12.0000 15.9949 12.0000 31.9721 12.0000 12.0000 12.0000 12.0000
 12.0000 12.0000 31.9721 12.0000  1.0078  1.0078  1.0078  1.0078
 looking for force constants in 
 ./conjugated_carbonyls_2_C0S0.fchk                                             
  
 Cartesian Force Constants                  R   N=        1485                  
  
 n3=          54        1485
 g94-fc frequencies=
    -6.8   -1.3    0.0    0.0    0.0    2.9   67.4   96.2  139.7  148.5
   201.9  265.4  297.1  327.0  361.2  386.7  417.0  468.7  489.9  539.7
   539.9  618.0  673.8  691.1  696.0  743.0  753.9  778.7  825.2  832.9
   855.7  877.0  891.4  891.8  895.3 1006.2 1104.7 1124.0 1197.3 1232.0
  1256.8 1301.2 1383.1 1434.1 1444.7 1454.6 1560.2 1562.2 1742.2 1765.4
  3207.8 3212.2 3240.3 3240.7
 at 99999: n3=          54
 symm operator            1 :  F  nop=           0
 symm operator            2 :  T  nop=           1
 symm operator            3 :  F  nop=           1
 symm operator            4 :  F  nop=           1
 symm operator            5 :  T  nop=           2
 symm operator            6 :  F  nop=           2
 symm operator            7 :  T  nop=           3
 swap           2           3
   1   1.38848   0.00000  -3.25294
   2   0.78760   0.00000  -2.20226
   3  -0.78760   0.00000  -2.20226
   4  -1.38848   0.00000  -3.25294
   5  -1.41669   0.00000  -0.88543
   6  -3.13761   0.00000  -0.65058
   7  -2.92676   0.00000   1.06035
   8  -1.60930   0.00000   1.43718
   9  -0.73053   0.00000   0.31986
  10   0.73053   0.00000   0.31986
  11   1.60930   0.00000   1.43718
  12   2.92676   0.00000   1.06035
  13   3.13761   0.00000  -0.65058
  14   1.41669   0.00000  -0.88543
  15  -3.79376   0.00000   1.70392
  16  -1.28879   0.00000   2.46990
  17   1.28879   0.00000   2.46990
  18   3.79376   0.00000   1.70392
 swap           1           2
   1   0.00000   1.38848  -3.25294
   2   0.00000   0.78760  -2.20226
   3   0.00000  -0.78760  -2.20226
   4   0.00000  -1.38848  -3.25294
   5   0.00000  -1.41669  -0.88543
   6   0.00000  -3.13761  -0.65058
   7   0.00000  -2.92676   1.06035
   8   0.00000  -1.60930   1.43718
   9   0.00000  -0.73053   0.31986
  10   0.00000   0.73053   0.31986
  11   0.00000   1.60930   1.43718
  12   0.00000   2.92676   1.06035
  13   0.00000   3.13761  -0.65058
  14   0.00000   1.41669  -0.88543
  15   0.00000  -3.79376   1.70392
  16   0.00000  -1.28879   2.46990
  17   0.00000   1.28879   2.46990
  18   0.00000   3.79376   1.70392
 The point group of the molecule is C2V
 enforcing symm op           1  jsymt=          -1          -1           1
 enforcing symm op           6  jsymt=           1          -1           1
 enforcing symm op           7  jsymt=          -1           1           1
 cartesian coord symmetries:
 A1 :   18 A2 :    9 B1 :    9 B2 :   18
 Symmetry rotation matrix:
   0.00000   0.00000   1.00000
  -1.00000   0.00000   0.00000
   0.00000  -1.00000   0.00000

 Projecting out zero-frequency components
 generating redundant internal coords
         300        3600          18
 search for int coords
   1 str   2   1   1.210
   2 str   3   2   1.575
   3 str   4   3   1.210
   4 str   5   3   1.459
   5 str   6   5   1.737
   6 str   7   6   1.724
   7 str   8   7   1.370
   8 str   9   5   1.387
   9 str   9   8   1.421
  10 str  10   9   1.461
  11 str  11  10   1.421
  12 str  12  11   1.370
  13 str  13  12   1.724
  14 str  14   2   1.459
  15 str  14  10   1.387
  16 str  14  13   1.737
  17 str  15   7   1.080
  18 str  16   8   1.081
  19 str  17  11   1.081
  20 str  18  12   1.080
 nber stretches=          20
  21 ben   1   2   3
  22 prop tor   1   2   3   4
  23 prop tor   1   2   3   5
  24 ben   1   2  14
  25 prop tor   1   2  14  10
  26 prop tor   1   2  14  13
  27 ben   2   3   4
  28 ben   2   3   5
  29 prop tor   2   3   5   6
  30 prop tor   2   3   5   9
  31 ben   2  14  10
  32 ben   2  14  13
  33 ben   3   2  14
  34 prop tor   3   2  14  10
  35 prop tor   3   2  14  13
  36 ben   3   5   6
  37 prop tor   3   5   6   7
  38 ben   3   5   9
  39 prop tor   3   5   9   8
  40 prop tor   3   5   9  10
  41 ben   4   3   5
  42 prop tor   4   3   5   6
  43 prop tor   4   3   5   9
  44 ben   5   6   7
  45 prop tor   5   6   7   8
  46 prop tor   5   6   7  15
  47 ben   5   9   8
  48 ben   5   9  10
  49 prop tor   5   9  10  11
  50 prop tor   5   9  10  14
  51 ben   6   5   9
  52 prop tor   6   5   9   8
  53 prop tor   6   5   9  10
  54 ben   6   7   8
  55 prop tor   6   7   8   9
  56 prop tor   6   7   8  16
  57 ben   6   7  15
  58 ben   7   8   9
  59 prop tor   7   8   9   5
  60 prop tor   7   8   9  10
  61 ben   7   8  16
  62 ben   8   7  15
  63 ben   8   9  10
  64 prop tor   8   9  10  11
  65 prop tor   8   9  10  14
  66 prop tor   9   5   6   7
  67 ben   9   8  16
  68 ben   9  10  11
  69 prop tor   9  10  11  12
  70 prop tor   9  10  11  17
  71 ben   9  10  14
  72 prop tor   9  10  14   2
  73 prop tor   9  10  14  13
  74 ben  10  11  12
  75 prop tor  10  11  12  13
  76 prop tor  10  11  12  18
  77 ben  10  11  17
  78 ben  10  14  13
  79 ben  11  10  14
  80 prop tor  11  10  14   2
  81 prop tor  11  10  14  13
  82 ben  11  12  13
  83 prop tor  11  12  13  14
  84 ben  11  12  18
  85 ben  12  11  17
  86 ben  12  13  14
  87 prop tor  12  13  14   2
  88 prop tor  12  13  14  10
  89 ben  13  12  18
  90 prop tor  14   2   3   4
  91 prop tor  14   2   3   5
  92 prop tor  14  10  11  12
  93 prop tor  14  10  11  17
  94 prop tor  15   7   8   9
  95 prop tor  15   7   8  16
  96 prop tor  16   8   9   5
  97 prop tor  16   8   9  10
  98 prop tor  17  11  12  13
  99 prop tor  17  11  12  18
 100 prop tor  18  12  13  14
 nber bend=              32
 nber lin bend=           0
 nber prop tor=          48
 nber impr tor=           0
 nber tot redund int=         100
 Eigenvalues of G in red int coords
    Gval -0.00000000 -0.00000000 -0.00000000 -0.00000000 -0.00000000 -0.00000000 -0.00000000 -0.00000000
    Gval -0.00000000 -0.00000000 -0.00000000 -0.00000000 -0.00000000 -0.00000000 -0.00000000 -0.00000000
    Gval -0.00000000 -0.00000000 -0.00000000 -0.00000000 -0.00000000 -0.00000000 -0.00000000  0.00000000
    Gval  0.00000000  0.00000000  0.00000000  0.00000000  0.00000000  0.00000000  0.00000000  0.00000000
    Gval  0.00000000  0.00000000  0.00000000  0.00000000  0.00000000  0.00000000  0.00000000  0.00000000
    Gval  0.00000000  0.00000000  0.00000000  0.00000000  0.00000000  0.00000000  0.00000000  0.00000000
    Gval  0.00000000  0.00000000  0.00000000  0.00000000  0.00000835  0.00000986  0.00001161  0.00002159
    Gval  0.00002160  0.00002499  0.00003240  0.00004469  0.00004833  0.00004893  0.00005456  0.00006103
    Gval  0.00007133  0.00009346  0.00010349  0.00010555  0.00010557  0.00010876  0.00011007  0.00013436
    Gval  0.00017065  0.00017826  0.00025596  0.00025895  0.00031466  0.00034586  0.00034722  0.00035256
    Gval  0.00040572  0.00044681  0.00045413  0.00052845  0.00059654  0.00059693  0.00062277  0.00062710
    Gval  0.00067771  0.00108058  0.00108202  0.00118357  0.00118379  0.00118431  0.00130368  0.00187314
    Gval  0.00200791  0.00242004  0.00387947  0.00398403
  8.347996235077829E-006  8.347996235077829E-006
  9.855769377312168E-006  8.347996235077829E-006
  1.161226025952726E-005  8.347996235077829E-006
  2.158607405055654E-005  8.347996235077829E-006
  2.160069753841590E-005  8.347996235077829E-006
  2.499172676621180E-005  8.347996235077829E-006
  3.240318830192805E-005  8.347996235077829E-006
  4.469064977461957E-005  8.347996235077829E-006
  4.832975962698517E-005  8.347996235077829E-006
  4.892984031412759E-005  8.347996235077829E-006
  5.455720939154425E-005  8.347996235077829E-006
  6.102901645193504E-005  8.347996235077829E-006
  7.132848522861675E-005  8.347996235077829E-006
  9.346265152047087E-005  8.347996235077829E-006
  1.034869863756765E-004  8.347996235077829E-006
  1.055541295191989E-004  8.347996235077829E-006
  1.055748175545196E-004  8.347996235077829E-006
  1.087608507859427E-004  8.347996235077829E-006
  1.100729038544622E-004  8.347996235077829E-006
  1.343627576073804E-004  8.347996235077829E-006
  1.706518679118471E-004  8.347996235077829E-006
  1.782618433422934E-004  8.347996235077829E-006
  2.559575624785269E-004  8.347996235077829E-006
  2.589484668864469E-004  8.347996235077829E-006
  3.146557836129314E-004  8.347996235077829E-006
  3.458627433878557E-004  8.347996235077829E-006
  3.472249424236937E-004  8.347996235077829E-006
  3.525599474121134E-004  8.347996235077829E-006
  4.057197689976250E-004  8.347996235077829E-006
  4.468088438019296E-004  8.347996235077829E-006
  4.541313064704944E-004  8.347996235077829E-006
  5.284459784464437E-004  8.347996235077829E-006
  5.965362213610420E-004  8.347996235077829E-006
  5.969276931474589E-004  8.347996235077829E-006
  6.227735132246877E-004  8.347996235077829E-006
  6.270991983256970E-004  8.347996235077829E-006
  6.777128472443475E-004  8.347996235077829E-006
  1.080578142466018E-003  8.347996235077829E-006
  1.082022443221575E-003  8.347996235077829E-006
  1.183570199188544E-003  8.347996235077829E-006
  1.183788636636377E-003  8.347996235077829E-006
  1.184311861157680E-003  8.347996235077829E-006
  1.303679530314870E-003  8.347996235077829E-006
  1.873139235889150E-003  8.347996235077829E-006
  2.007905423205384E-003  8.347996235077829E-006
  2.420035913285542E-003  8.347996235077829E-006
  3.879473670982911E-003  8.347996235077829E-006
  3.984028078138240E-003  8.347996235077829E-006
 cut=1d-8, nber non-redundant internal coords=          48
 Check on Eigenvals of non-red overlap matrix:
  0.00000835  0.00000986  0.00001161  0.00002159  0.00002160  0.00002499  0.00003240  0.00004469
  0.00004833  0.00004893  0.00005456  0.00006103  0.00007133  0.00009346  0.00010349  0.00010555
  0.00010557  0.00010876  0.00011007  0.00013436  0.00017065  0.00017826  0.00025596  0.00025895
  0.00031466  0.00034586  0.00034722  0.00035256  0.00040572  0.00044681  0.00045413  0.00052845
  0.00059654  0.00059693  0.00062277  0.00062710  0.00067771  0.00108058  0.00108202  0.00118357
  0.00118379  0.00118431  0.00130368  0.00187314  0.00200791  0.00242004  0.00387947  0.00398403
 Checking for correct frequencies
 recalc frequencies=
    -0.0   -0.0   -0.0   -0.0    0.0    0.0   67.4   96.2  139.7  148.5
   201.9  265.4  297.1  327.0  361.2  386.7  417.0  468.7  489.9  539.7
   539.9  618.0  673.8  691.1  696.0  743.0  753.9  778.7  825.2  832.9
   855.7  877.0  891.4  891.8  895.3 1006.2 1104.7 1124.0 1197.3 1232.0
  1256.8 1301.2 1383.1 1434.1 1444.7 1454.6 1560.2 1562.2 1742.2 1765.4
  3207.8 3212.2 3240.3 3240.7
 recalc symmetries=
     B2     B1     A1     A2     B1     B2     A2     B1     A2     B1 
     A1     B2     A2     A1     A1     B2     B1     A2     A1     B2 
     B1     B1     A2     B2     A1     B1     A2     B2     A2     A1 
     B2     B2     A1     A2     B1     A1     B2     A1     B2     B2 
     A1     A1     B2     A1     A1     B2     A1     B2     A1     B2 
     B2     A1     B2     A1 
 recalc freqs check OK
 Zero-point lengths:
 10.0000 10.0000 10.0000 10.0000 10.0000 10.0000 30.1915 25.2801 20.9785 20.3451
 17.4458 15.2169 14.3821 13.7094 13.0446 12.6064 12.1410 11.4512 11.2004 10.6713
 10.6690  9.9724  9.5506  9.4303  9.3967  9.0950  9.0291  8.8842  8.6299  8.5901
  8.4751  8.3715  8.3034  8.3017  8.2853  7.8155  7.4589  7.3945  7.1648  7.0629
  6.9929  6.8727  6.6661  6.5464  6.5224  6.5002  6.2763  6.2724  5.9395  5.9003
  4.3771  4.3742  4.3551  4.3549
 highest evec of mol 1
  0.0000  0.0001  0.0000
  0.0000 -0.0000  0.0003
  0.0000  0.0000  0.0003
  0.0000 -0.0001  0.0000
  0.0000  0.0022 -0.0019
  0.0000 -0.0006 -0.0020
  0.0000 -0.1654  0.1114
  0.0000  0.0303  0.0644
  0.0000  0.0031 -0.0038
  0.0000 -0.0031 -0.0038
  0.0000 -0.0303  0.0644
  0.0000  0.1654  0.1114
  0.0000  0.0006 -0.0020
  0.0000 -0.0022 -0.0019
  0.0000  0.5173 -0.3811
  0.0000 -0.0632 -0.1957
  0.0000  0.0632 -0.1957
  0.0000 -0.5173 -0.3811
 generating redundant internal coords
         300        3600          18
 Adding extra bonds for z output only
           8           6           6           8           6          16
           6           6           6           6           6           6
          16           6           1           1           1           1
 search for int coords
   1 str   2   1   1.210
   2 str   3   2   1.575
   3 str   4   3   1.210
   4 str   5   3   1.459
   5 str   6   5   1.737
   6 str   7   6   1.724
   7 str   8   7   1.370
   8 str   9   5   1.387
   9 str   9   8   1.421
  10 str  10   9   1.461
  11 str  11  10   1.421
  12 str  12  11   1.370
  13 str  13  12   1.724
  14 str  14   2   1.459
  15 str  14  10   1.387
  16 str  14  13   1.737
  17 str  15   7   1.080
  18 str  16   8   1.081
  19 str  17  11   1.081
  20 str  18  12   1.080
 nber stretches=          20
  21 ben   1   2   3
  22 prop tor   1   2   3   4
  23 prop tor   1   2   3   5
  24 ben   1   2  14
  25 prop tor   1   2  14  10
  26 prop tor   1   2  14  13
  27 ben   2   3   4
  28 ben   2   3   5
  29 prop tor   2   3   5   6
  30 prop tor   2   3   5   9
  31 ben   2  14  10
  32 ben   2  14  13
  33 ben   3   2  14
  34 prop tor   3   2  14  10
  35 prop tor   3   2  14  13
  36 ben   3   5   6
  37 prop tor   3   5   6   7
  38 ben   3   5   9
  39 prop tor   3   5   9   8
  40 prop tor   3   5   9  10
  41 ben   4   3   5
  42 prop tor   4   3   5   6
  43 prop tor   4   3   5   9
  44 ben   5   6   7
  45 prop tor   5   6   7   8
  46 prop tor   5   6   7  15
  47 ben   5   9   8
  48 ben   5   9  10
  49 prop tor   5   9  10  11
  50 prop tor   5   9  10  14
  51 ben   6   5   9
  52 prop tor   6   5   9   8
  53 prop tor   6   5   9  10
  54 ben   6   7   8
  55 prop tor   6   7   8   9
  56 prop tor   6   7   8  16
  57 ben   6   7  15
  58 ben   7   8   9
  59 prop tor   7   8   9   5
  60 prop tor   7   8   9  10
  61 ben   7   8  16
  62 ben   8   7  15
  63 ben   8   9  10
  64 prop tor   8   9  10  11
  65 prop tor   8   9  10  14
  66 prop tor   9   5   6   7
  67 ben   9   8  16
  68 ben   9  10  11
  69 prop tor   9  10  11  12
  70 prop tor   9  10  11  17
  71 ben   9  10  14
  72 prop tor   9  10  14   2
  73 prop tor   9  10  14  13
  74 ben  10  11  12
  75 prop tor  10  11  12  13
  76 prop tor  10  11  12  18
  77 ben  10  11  17
  78 ben  10  14  13
  79 ben  11  10  14
  80 prop tor  11  10  14   2
  81 prop tor  11  10  14  13
  82 ben  11  12  13
  83 prop tor  11  12  13  14
  84 ben  11  12  18
  85 ben  12  11  17
  86 ben  12  13  14
  87 prop tor  12  13  14   2
  88 prop tor  12  13  14  10
  89 ben  13  12  18
  90 prop tor  14   2   3   4
  91 prop tor  14   2   3   5
  92 prop tor  14  10  11  12
  93 prop tor  14  10  11  17
  94 prop tor  15   7   8   9
  95 prop tor  15   7   8  16
  96 prop tor  16   8   9   5
  97 prop tor  16   8   9  10
  98 prop tor  17  11  12  13
  99 prop tor  17  11  12  18
 100 prop tor  18  12  13  14
 nber bend=              32
 nber lin bend=           0
 nber prop tor=          48
 nber impr tor=           0
 nber tot redund int=         100
 Reading file: 
 ./conjugated_carbonyls_2_C-1S0.log                                             
                                          
  Entering Gaussian System, Link 0=g16                                          
  
 Gaussian format, type: g94, g98, g03= F F F
  #P Geom=AllCheck Guess=TCheck SCRF=Check Test GenChk UB3LYP/6-311G(d,p    
 energy type= B3LYP   
 Original G94 input coords:
  8  1.421050 -3.250100  0.000000
  6  0.755228 -2.197724 -0.000001
  6 -0.755228 -2.197724  0.000001
  8 -1.421050 -3.250100  0.000000
  6 -1.372671 -0.888217  0.000000
 16 -3.117366 -0.684235  0.000000
  6 -2.940316  1.055001  0.000000
  6 -1.633945  1.446888  0.000000
  6 -0.718027  0.347874  0.000000
  6  0.718027  0.347874  0.000000
  6  1.633945  1.446888  0.000000
  6  2.940316  1.055001  0.000000
 16  3.117366 -0.684235  0.000000
  6  1.372671 -0.888217  0.000000
  1 -3.818885  1.683452  0.000000
  1 -1.328167  2.487061  0.000000
  1  1.328167  2.487061  0.000000
  1  3.818885  1.683452  0.000000
 nber atoms=          18
  SCF Done:  E(UB3LYP) =  -1330.52404341     A.U. after    1 cycles             
  
          23          40 "  -1330.52404341"
After scan for Atom:   Atom  AN      X      Y      Z        X      Y      Z        X      Y      Z   
After scan for Atom:   Atom  AN      X      Y      Z        X      Y      Z        X      Y      Z   
After scan for Atom:   Atom  AN      X      Y      Z        X      Y      Z        X      Y      Z   
After scan for Atom:   Atom  AN      X      Y      Z        X      Y      Z        X      Y      Z   
After scan for Atom:   Atom  AN      X      Y      Z        X      Y      Z        X      Y      Z   
After scan for Atom:   Atom  AN      X      Y      Z        X      Y      Z        X      Y      Z   
After scan for Atom:   Atom  AN      X      Y      Z        X      Y      Z        X      Y      Z   
After scan for Atom:   Atom  AN      X      Y      Z        X      Y      Z        X      Y      Z   
After scan for Atom:   Atom  AN      X      Y      Z        X      Y      Z        X      Y      Z   
After scan for Atom:   Atom  AN      X      Y      Z        X      Y      Z        X      Y      Z   
After scan for Atom:   Atom  AN      X      Y      Z        X      Y      Z        X      Y      Z   
After scan for Atom:   Atom  AN      X      Y      Z        X      Y      Z        X      Y      Z   
After scan for Atom:   Atom  AN      X      Y      Z        X      Y      Z        X      Y      Z   
After scan for Atom:   Atom  AN      X      Y      Z        X      Y      Z        X      Y      Z   
After scan for Atom:   Atom  AN      X      Y      Z        X      Y      Z        X      Y      Z   
After scan for Atom:   Atom  AN      X      Y      Z        X      Y      Z        X      Y      Z   
 g94    frequencies=
     0.0    0.0    0.0    0.0    0.0    0.0   87.2  102.0  157.6  166.6
   200.7  255.7  300.0  323.0  367.6  399.0  402.3  460.1  492.3  528.2
   536.2  595.7  626.3  676.5  681.5  682.1  699.2  756.7  761.5  805.2
   839.3  850.1  855.9  863.2  911.7 1001.1 1093.9 1110.8 1176.3 1230.1
  1231.0 1300.5 1367.5 1399.1 1449.7 1468.0 1546.6 1551.6 1569.9 1588.1
  3166.8 3171.7 3221.1 3221.4
 g94    symmetries=
                                                 A      A      A      A
       A      A      A      A      A      A      A      A      A      A
       A      A      A      A      A      A      A      A      A      A
       A      A      A      A      A      A      A      A      A      A
       A      A      A      A      A      A      A      A      A      A
       A      A      A      A
 atomic masses:
 15.9949 12.0000 12.0000 15.9949 12.0000 31.9721 12.0000 12.0000 12.0000 12.0000
 12.0000 12.0000 31.9721 12.0000  1.0078  1.0078  1.0078  1.0078
 looking for force constants in 
 ./conjugated_carbonyls_2_C-1S0.fchk                                            
  
 Cartesian Force Constants                  R   N=        1485                  
  
 n3=          54        1485
 g94-fc frequencies=
    -1.3   -0.0   -0.0    0.0    2.3    4.7   87.2  102.0  157.6  166.6
   200.7  255.7  300.0  323.0  367.6  399.1  402.3  460.2  492.3  528.2
   536.2  595.7  626.3  676.6  681.5  682.1  699.2  756.7  761.5  805.2
   839.4  850.1  855.9  863.2  911.7 1001.1 1093.9 1110.8 1176.3 1230.1
  1231.0 1300.5 1367.5 1399.2 1449.8 1468.1 1546.6 1551.6 1569.9 1588.1
  3166.8 3171.8 3221.2 3221.4
 at 99999: n3=          54
 symm operator            1 :  F  nop=           0
 symm operator            2 :  T  nop=           1
 symm operator            3 :  F  nop=           1
 symm operator            4 :  F  nop=           1
 symm operator            5 :  T  nop=           2
 symm operator            6 :  F  nop=           2
 symm operator            7 :  T  nop=           3
 swap           2           3
   1   1.42105   0.00000  -3.25010
   2   0.75523  -0.00000  -2.19772
   3  -0.75523   0.00000  -2.19772
   4  -1.42105   0.00000  -3.25010
   5  -1.37267   0.00000  -0.88822
   6  -3.11737   0.00000  -0.68424
   7  -2.94032   0.00000   1.05500
   8  -1.63394   0.00000   1.44689
   9  -0.71803   0.00000   0.34787
  10   0.71803   0.00000   0.34787
  11   1.63394   0.00000   1.44689
  12   2.94032   0.00000   1.05500
  13   3.11737   0.00000  -0.68424
  14   1.37267   0.00000  -0.88822
  15  -3.81888   0.00000   1.68345
  16  -1.32817   0.00000   2.48706
  17   1.32817   0.00000   2.48706
  18   3.81888   0.00000   1.68345
 swap           1           2
   1   0.00000   1.42105  -3.25010
   2  -0.00000   0.75523  -2.19772
   3   0.00000  -0.75523  -2.19772
   4   0.00000  -1.42105  -3.25010
   5   0.00000  -1.37267  -0.88822
   6   0.00000  -3.11737  -0.68424
   7   0.00000  -2.94032   1.05500
   8   0.00000  -1.63394   1.44689
   9   0.00000  -0.71803   0.34787
  10   0.00000   0.71803   0.34787
  11   0.00000   1.63394   1.44689
  12   0.00000   2.94032   1.05500
  13   0.00000   3.11737  -0.68424
  14   0.00000   1.37267  -0.88822
  15   0.00000  -3.81888   1.68345
  16   0.00000  -1.32817   2.48706
  17   0.00000   1.32817   2.48706
  18   0.00000   3.81888   1.68345
 The point group of the molecule is C2V
 enforcing symm op           1  jsymt=          -1          -1           1
 enforcing symm op           6  jsymt=           1          -1           1
 enforcing symm op           7  jsymt=          -1           1           1
 cartesian coord symmetries:
 A1 :   18 A2 :    9 B1 :    9 B2 :   18
 Symmetry rotation matrix:
   0.00000   0.00000   1.00000
  -1.00000   0.00000   0.00000
   0.00000  -1.00000   0.00000

 Projecting out zero-frequency components
 generating redundant internal coords
         300        3600          18
 search for int coords
   1 str   2   1   1.245
   2 str   3   2   1.510
   3 str   4   3   1.245
   4 str   5   3   1.448
   5 str   6   5   1.757
   6 str   7   6   1.748
   7 str   8   7   1.364
   8 str   9   5   1.399
   9 str   9   8   1.431
  10 str  10   9   1.436
  11 str  11  10   1.431
  12 str  12  11   1.364
  13 str  13  12   1.748
  14 str  14   2   1.448
  15 str  14  10   1.399
  16 str  14  13   1.757
  17 str  15   7   1.080
  18 str  16   8   1.084
  19 str  17  11   1.084
  20 str  18  12   1.080
 nber stretches=          20
  21 ben   1   2   3
  22 prop tor   1   2   3   4
  23 prop tor   1   2   3   5
  24 ben   1   2  14
  25 prop tor   1   2  14  10
  26 prop tor   1   2  14  13
  27 ben   2   3   4
  28 ben   2   3   5
  29 prop tor   2   3   5   6
  30 prop tor   2   3   5   9
  31 ben   2  14  10
  32 ben   2  14  13
  33 ben   3   2  14
  34 prop tor   3   2  14  10
  35 prop tor   3   2  14  13
  36 ben   3   5   6
  37 prop tor   3   5   6   7
  38 ben   3   5   9
  39 prop tor   3   5   9   8
  40 prop tor   3   5   9  10
  41 ben   4   3   5
  42 prop tor   4   3   5   6
  43 prop tor   4   3   5   9
  44 ben   5   6   7
  45 prop tor   5   6   7   8
  46 prop tor   5   6   7  15
  47 ben   5   9   8
  48 ben   5   9  10
  49 prop tor   5   9  10  11
  50 prop tor   5   9  10  14
  51 ben   6   5   9
  52 prop tor   6   5   9   8
  53 prop tor   6   5   9  10
  54 ben   6   7   8
  55 prop tor   6   7   8   9
  56 prop tor   6   7   8  16
  57 ben   6   7  15
  58 ben   7   8   9
  59 prop tor   7   8   9   5
  60 prop tor   7   8   9  10
  61 ben   7   8  16
  62 ben   8   7  15
  63 ben   8   9  10
  64 prop tor   8   9  10  11
  65 prop tor   8   9  10  14
  66 prop tor   9   5   6   7
  67 ben   9   8  16
  68 ben   9  10  11
  69 prop tor   9  10  11  12
  70 prop tor   9  10  11  17
  71 ben   9  10  14
  72 prop tor   9  10  14   2
  73 prop tor   9  10  14  13
  74 ben  10  11  12
  75 prop tor  10  11  12  13
  76 prop tor  10  11  12  18
  77 ben  10  11  17
  78 ben  10  14  13
  79 ben  11  10  14
  80 prop tor  11  10  14   2
  81 prop tor  11  10  14  13
  82 ben  11  12  13
  83 prop tor  11  12  13  14
  84 ben  11  12  18
  85 ben  12  11  17
  86 ben  12  13  14
  87 prop tor  12  13  14   2
  88 prop tor  12  13  14  10
  89 ben  13  12  18
  90 prop tor  14   2   3   4
  91 prop tor  14   2   3   5
  92 prop tor  14  10  11  12
  93 prop tor  14  10  11  17
  94 prop tor  15   7   8   9
  95 prop tor  15   7   8  16
  96 prop tor  16   8   9   5
  97 prop tor  16   8   9  10
  98 prop tor  17  11  12  13
  99 prop tor  17  11  12  18
 100 prop tor  18  12  13  14
 nber bend=              32
 nber lin bend=           0
 nber prop tor=          48
 nber impr tor=           0
 nber tot redund int=         100
 Eigenvalues of G in red int coords
    Gval -0.00000000 -0.00000000 -0.00000000 -0.00000000 -0.00000000 -0.00000000 -0.00000000 -0.00000000
    Gval -0.00000000 -0.00000000 -0.00000000 -0.00000000 -0.00000000 -0.00000000 -0.00000000 -0.00000000
    Gval -0.00000000 -0.00000000 -0.00000000 -0.00000000 -0.00000000 -0.00000000 -0.00000000 -0.00000000
    Gval -0.00000000 -0.00000000 -0.00000000  0.00000000  0.00000000  0.00000000  0.00000000  0.00000000
    Gval  0.00000000  0.00000000  0.00000000  0.00000000  0.00000000  0.00000000  0.00000000  0.00000000
    Gval  0.00000000  0.00000000  0.00000000  0.00000000  0.00000000  0.00000000  0.00000000  0.00000000
    Gval  0.00000000  0.00000000  0.00000000  0.00000000  0.00000841  0.00000977  0.00001136  0.00002135
    Gval  0.00002167  0.00002453  0.00003219  0.00004439  0.00004796  0.00004910  0.00005288  0.00006070
    Gval  0.00007097  0.00009303  0.00010304  0.00010456  0.00010465  0.00010570  0.00011043  0.00013284
    Gval  0.00017063  0.00017720  0.00025116  0.00025726  0.00031023  0.00033650  0.00035427  0.00035902
    Gval  0.00041521  0.00044570  0.00045578  0.00054104  0.00059646  0.00059687  0.00062261  0.00062751
    Gval  0.00066051  0.00107673  0.00107844  0.00118030  0.00118053  0.00120903  0.00130621  0.00187709
    Gval  0.00200223  0.00246556  0.00385352  0.00396815
  8.409904287220421E-006  8.409904287220421E-006
  9.771678265786492E-006  8.409904287220421E-006
  1.135900844480935E-005  8.409904287220421E-006
  2.135467049387992E-005  8.409904287220421E-006
  2.166630069512935E-005  8.409904287220421E-006
  2.453312843981706E-005  8.409904287220421E-006
  3.219048663653131E-005  8.409904287220421E-006
  4.439418238427232E-005  8.409904287220421E-006
  4.796218250986686E-005  8.409904287220421E-006
  4.910314123949217E-005  8.409904287220421E-006
  5.288038277206069E-005  8.409904287220421E-006
  6.070081268296567E-005  8.409904287220421E-006
  7.097448714748725E-005  8.409904287220421E-006
  9.302612423432508E-005  8.409904287220421E-006
  1.030364128617266E-004  8.409904287220421E-006
  1.045592841437218E-004  8.409904287220421E-006
  1.046495027489505E-004  8.409904287220421E-006
  1.056957313084812E-004  8.409904287220421E-006
  1.104279214694854E-004  8.409904287220421E-006
  1.328393163876900E-004  8.409904287220421E-006
  1.706310572099677E-004  8.409904287220421E-006
  1.772028267805142E-004  8.409904287220421E-006
  2.511639224674727E-004  8.409904287220421E-006
  2.572605644359932E-004  8.409904287220421E-006
  3.102283839799784E-004  8.409904287220421E-006
  3.365046126606659E-004  8.409904287220421E-006
  3.542656435846902E-004  8.409904287220421E-006
  3.590204128130558E-004  8.409904287220421E-006
  4.152099780837453E-004  8.409904287220421E-006
  4.457012626605685E-004  8.409904287220421E-006
  4.557773298362473E-004  8.409904287220421E-006
  5.410361255842838E-004  8.409904287220421E-006
  5.964642780646828E-004  8.409904287220421E-006
  5.968745784515760E-004  8.409904287220421E-006
  6.226095666179765E-004  8.409904287220421E-006
  6.275112119707956E-004  8.409904287220421E-006
  6.605073372933737E-004  8.409904287220421E-006
  1.076726988035129E-003  8.409904287220421E-006
  1.078439691277928E-003  8.409904287220421E-006
  1.180295103214465E-003  8.409904287220421E-006
  1.180532597829785E-003  8.409904287220421E-006
  1.209030197894249E-003  8.409904287220421E-006
  1.306213589162527E-003  8.409904287220421E-006
  1.877093678065660E-003  8.409904287220421E-006
  2.002234605772565E-003  8.409904287220421E-006
  2.465559765672486E-003  8.409904287220421E-006
  3.853515548452533E-003  8.409904287220421E-006
  3.968152006398055E-003  8.409904287220421E-006
 cut=1d-8, nber non-redundant internal coords=          48
 Check on Eigenvals of non-red overlap matrix:
  0.00000841  0.00000977  0.00001136  0.00002135  0.00002167  0.00002453  0.00003219  0.00004439
  0.00004796  0.00004910  0.00005288  0.00006070  0.00007097  0.00009303  0.00010304  0.00010456
  0.00010465  0.00010570  0.00011043  0.00013284  0.00017063  0.00017720  0.00025116  0.00025726
  0.00031023  0.00033650  0.00035427  0.00035902  0.00041521  0.00044570  0.00045578  0.00054104
  0.00059646  0.00059687  0.00062261  0.00062751  0.00066051  0.00107673  0.00107844  0.00118030
  0.00118053  0.00120903  0.00130621  0.00187709  0.00200223  0.00246556  0.00385352  0.00396815
 Checking for correct frequencies
 recalc frequencies=
    -0.0   -0.0    0.0    0.0    0.0    0.0   87.2  102.0  157.6  166.6
   200.7  255.7  300.0  323.0  367.6  399.1  402.3  460.2  492.3  528.2
   536.2  595.7  626.3  676.6  681.5  682.1  699.2  756.7  761.5  805.2
   839.4  850.1  855.9  863.2  911.7 1001.1 1093.9 1110.8 1176.3 1230.1
  1231.0 1300.5 1367.5 1399.2 1449.8 1468.1 1546.6 1551.6 1569.9 1588.1
  3166.8 3171.8 3221.2 3221.4
 recalc symmetries=
     B2     B1     A1     B2     A2     B1     A2     B1     B1     A2 
     A1     B2     A2     A1     A1     B1     B2     A2     A1     B2 
     B1     B1     A2     B2     A1     B1     A2     B2     A2     A1 
     B2     A2     B1     B2     A1     A1     B2     A1     B2     B2 
     A1     A1     B2     A1     B2     A1     B2     A1     B2     A1 
     B2     A1     B2     A1 
 recalc freqs check OK
 Zero-point lengths:
 10.0000 10.0000 10.0000 10.0000 10.0000 10.0000 26.5462 24.5498 19.7502 19.2089
 17.5008 15.5031 14.3133 13.7940 12.9305 12.4103 12.3601 11.5570 11.1731 10.7864
 10.7057 10.1574  9.9063  9.5311  9.4963  9.4923  9.3756  9.0120  8.9837  8.7365
  8.5570  8.5028  8.4738  8.4381  8.2103  7.8353  7.4956  7.4383  7.2284  7.0685
  7.0658  6.8744  6.7040  6.6277  6.5110  6.4703  6.3038  6.2937  6.2568  6.2209
  4.4054  4.4019  4.3680  4.3679
 highest evec of mol 2
  0.0000  0.0001  0.0001
  0.0000  0.0000  0.0002
  0.0000 -0.0000  0.0002
  0.0000 -0.0001  0.0001
  0.0000  0.0021 -0.0013
  0.0000 -0.0008 -0.0018
  0.0000 -0.1704  0.1095
  0.0000  0.0240  0.0484
  0.0000  0.0037 -0.0034
  0.0000 -0.0037 -0.0034
  0.0000 -0.0240  0.0484
  0.0000  0.1704  0.1095
  0.0000  0.0008 -0.0018
  0.0000 -0.0021 -0.0013
  0.0000  0.5383 -0.3809
  0.0000 -0.0431 -0.1389
  0.0000  0.0431 -0.1389
  0.0000 -0.5383 -0.3809
 Enter nber and list of atoms to keep of mol #2
 keep list:          18           1           2           3           4
           5           6           7           8           9          10
          11          12          13          14          15          16
          17          18
 reordering atoms
           1   1.42105000000000     
           2  0.755228000000017     
           3 -0.755228000000017     
           4  -1.42105000000000     
           5  -1.37267100000000     
           6  -3.11736600000000     
           7  -2.94031600000000     
           8  -1.63394500000000     
           9 -0.718027000000000     
          10  0.718027000000000     
          11   1.63394500000000     
          12   2.94031600000000     
          13   3.11736600000000     
          14   1.37267100000000     
          15  -3.81888500000000     
          16  -1.32816700000000     
          17   1.32816700000000     
          18   3.81888500000000     
           1           1
           2           2
           3           3
           4           4
           5           5
           6           6
           7           7
           8           8
           9           9
          10          10
          11          11
          12          12
          13          13
          14          14
          15          15
          16          16
          17          17
          18          18
 initial cartes coords mol 1
   8   0.00000   2.54834   1.38848
   6   0.00000   1.49765   0.78760
   6   0.00000   1.49765  -0.78760
   8   0.00000   2.54834  -1.38848
   6   0.00000   0.18083  -1.41669
  16   0.00000  -0.05403  -3.13761
   6   0.00000  -1.76496  -2.92676
   6   0.00000  -2.14179  -1.60930
   6   0.00000  -1.02447  -0.73053
   6   0.00000  -1.02447   0.73053
   6   0.00000  -2.14179   1.60930
   6   0.00000  -1.76496   2.92676
  16   0.00000  -0.05403   3.13761
   6   0.00000   0.18083   1.41669
   1   0.00000  -2.40853  -3.79376
   1   0.00000  -3.17451  -1.28879
   1   0.00000  -3.17451   1.28879
   1   0.00000  -2.40853   3.79376
 initial cartes coords mol 2
   8   0.00000   2.53974   1.42105
   6  -0.00000   1.48736   0.75523
   6   0.00000   1.48736  -0.75523
   8  -0.00000   2.53974  -1.42105
   6  -0.00000   0.17786  -1.37267
  16  -0.00000  -0.02613  -3.11737
   6  -0.00000  -1.76536  -2.94032
   6  -0.00000  -2.15725  -1.63394
   6  -0.00000  -1.05824  -0.71803
   6   0.00000  -1.05824   0.71803
   6   0.00000  -2.15725   1.63394
   6   0.00000  -1.76536   2.94032
  16   0.00000  -0.02613   3.11737
   6   0.00000   0.17786   1.37267
   1  -0.00000  -2.39381  -3.81888
   1  -0.00000  -3.19742  -1.32817
   1   0.00000  -3.19742   1.32817
   1   0.00000  -2.39381   3.81888
 loop 1 0
 mod cartes coords mol 2
   8   0.00000   2.53974   1.42105
   6  -0.00000   1.48736   0.75523
   6   0.00000   1.48736  -0.75523
   8  -0.00000   2.53974  -1.42105
   6  -0.00000   0.17786  -1.37267
  16  -0.00000  -0.02613  -3.11737
   6  -0.00000  -1.76536  -2.94032
   6  -0.00000  -2.15725  -1.63394
   6  -0.00000  -1.05824  -0.71803
   6   0.00000  -1.05824   0.71803
   6   0.00000  -2.15725   1.63394
   6   0.00000  -1.76536   2.94032
  16   0.00000  -0.02613   3.11737
   6   0.00000   0.17786   1.37267
   1  -0.00000  -2.39381  -3.81888
   1  -0.00000  -3.19742  -1.32817
   1   0.00000  -3.19742   1.32817
   1   0.00000  -2.39381   3.81888
 read in order, maxerr=  0.05 for atom  16
 final axis swaps:           1           1           1
 final xyz swap pattern=           1
 reorder list:
   1   2   3   4   5   6   7   8   9  10  11  12  13  14  15  16  17  18
 axis signs=           1           1           1
  8     0.000000  2.539738  1.421050     0.000000  2.548336  1.388478
  6    -0.000001  1.487362  0.755228     0.000000  1.497647  0.787599
  6     0.000001  1.487362 -0.755228     0.000000  1.497647 -0.787599
  8    -0.000000  2.539738 -1.421050     0.000000  2.548336 -1.388478
  6    -0.000000  0.177855 -1.372671     0.000000  0.180826 -1.416693
 16    -0.000000 -0.026127 -3.117366     0.000000 -0.054028 -3.137612
  6    -0.000000 -1.765363 -2.940316     0.000000 -1.764961 -2.926761
  6    -0.000000 -2.157250 -1.633945     0.000000 -2.141794 -1.609300
  6    -0.000000 -1.058236 -0.718027     0.000000 -1.024468 -0.730531
  6     0.000000 -1.058236  0.718027     0.000000 -1.024468  0.730531
  6     0.000000 -2.157250  1.633945     0.000000 -2.141794  1.609300
  6     0.000000 -1.765363  2.940316     0.000000 -1.764961  2.926761
 16     0.000000 -0.026127  3.117366     0.000000 -0.054028  3.137612
  6     0.000000  0.177855  1.372671     0.000000  0.180826  1.416693
  1    -0.000000 -2.393814 -3.818885     0.000000 -2.408528 -3.793756
  1    -0.000000 -3.197423 -1.328167     0.000000 -3.174511 -1.288787
  1     0.000000 -3.197423  1.328167     0.000000 -3.174511  1.288787
  1     0.000000 -2.393814  3.818885     0.000000 -2.408528  3.793756
 generating redundant internal coords
         300        3600          18
 Adding extra bonds for z output only
           8           6           6           8           6          16
           6           6           6           6           6           6
          16           6           1           1           1           1
 search for int coords
   1 str   2   1   1.245
   2 str   3   2   1.510
   3 str   4   3   1.245
   4 str   5   3   1.448
   5 str   6   5   1.757
   6 str   7   6   1.748
   7 str   8   7   1.364
   8 str   9   5   1.399
   9 str   9   8   1.431
  10 str  10   9   1.436
  11 str  11  10   1.431
  12 str  12  11   1.364
  13 str  13  12   1.748
  14 str  14   2   1.448
  15 str  14  10   1.399
  16 str  14  13   1.757
  17 str  15   7   1.080
  18 str  16   8   1.084
  19 str  17  11   1.084
  20 str  18  12   1.080
 nber stretches=          20
  21 ben   1   2   3
  22 prop tor   1   2   3   4
  23 prop tor   1   2   3   5
  24 ben   1   2  14
  25 prop tor   1   2  14  10
  26 prop tor   1   2  14  13
  27 ben   2   3   4
  28 ben   2   3   5
  29 prop tor   2   3   5   6
  30 prop tor   2   3   5   9
  31 ben   2  14  10
  32 ben   2  14  13
  33 ben   3   2  14
  34 prop tor   3   2  14  10
  35 prop tor   3   2  14  13
  36 ben   3   5   6
  37 prop tor   3   5   6   7
  38 ben   3   5   9
  39 prop tor   3   5   9   8
  40 prop tor   3   5   9  10
  41 ben   4   3   5
  42 prop tor   4   3   5   6
  43 prop tor   4   3   5   9
  44 ben   5   6   7
  45 prop tor   5   6   7   8
  46 prop tor   5   6   7  15
  47 ben   5   9   8
  48 ben   5   9  10
  49 prop tor   5   9  10  11
  50 prop tor   5   9  10  14
  51 ben   6   5   9
  52 prop tor   6   5   9   8
  53 prop tor   6   5   9  10
  54 ben   6   7   8
  55 prop tor   6   7   8   9
  56 prop tor   6   7   8  16
  57 ben   6   7  15
  58 ben   7   8   9
  59 prop tor   7   8   9   5
  60 prop tor   7   8   9  10
  61 ben   7   8  16
  62 ben   8   7  15
  63 ben   8   9  10
  64 prop tor   8   9  10  11
  65 prop tor   8   9  10  14
  66 prop tor   9   5   6   7
  67 ben   9   8  16
  68 ben   9  10  11
  69 prop tor   9  10  11  12
  70 prop tor   9  10  11  17
  71 ben   9  10  14
  72 prop tor   9  10  14   2
  73 prop tor   9  10  14  13
  74 ben  10  11  12
  75 prop tor  10  11  12  13
  76 prop tor  10  11  12  18
  77 ben  10  11  17
  78 ben  10  14  13
  79 ben  11  10  14
  80 prop tor  11  10  14   2
  81 prop tor  11  10  14  13
  82 ben  11  12  13
  83 prop tor  11  12  13  14
  84 ben  11  12  18
  85 ben  12  11  17
  86 ben  12  13  14
  87 prop tor  12  13  14   2
  88 prop tor  12  13  14  10
  89 ben  13  12  18
  90 prop tor  14   2   3   4
  91 prop tor  14   2   3   5
  92 prop tor  14  10  11  12
  93 prop tor  14  10  11  17
  94 prop tor  15   7   8   9
  95 prop tor  15   7   8  16
  96 prop tor  16   8   9   5
  97 prop tor  16   8   9  10
  98 prop tor  17  11  12  13
  99 prop tor  17  11  12  18
 100 prop tor  18  12  13  14
 nber bend=              32
 nber lin bend=           0
 nber prop tor=          48
 nber impr tor=           0
 nber tot redund int=         100
 generating redundant internal coords
         300        3600          18
 search for int coords
   1 str   2   1   1.210
   2 str   3   2   1.575
   3 str   4   3   1.210
   4 str   5   3   1.459
   5 str   6   5   1.737
   6 str   7   6   1.724
   7 str   8   7   1.370
   8 str   9   5   1.387
   9 str   9   8   1.421
  10 str  10   9   1.461
  11 str  11  10   1.421
  12 str  12  11   1.370
  13 str  13  12   1.724
  14 str  14   2   1.459
  15 str  14  10   1.387
  16 str  14  13   1.737
  17 str  15   7   1.080
  18 str  16   8   1.081
  19 str  17  11   1.081
  20 str  18  12   1.080
 nber stretches=          20
  21 ben   1   2   3
  22 prop tor   1   2   3   4
  23 prop tor   1   2   3   5
  24 ben   1   2  14
  25 prop tor   1   2  14  10
  26 prop tor   1   2  14  13
  27 ben   2   3   4
  28 ben   2   3   5
  29 prop tor   2   3   5   6
  30 prop tor   2   3   5   9
  31 ben   2  14  10
  32 ben   2  14  13
  33 ben   3   2  14
  34 prop tor   3   2  14  10
  35 prop tor   3   2  14  13
  36 ben   3   5   6
  37 prop tor   3   5   6   7
  38 ben   3   5   9
  39 prop tor   3   5   9   8
  40 prop tor   3   5   9  10
  41 ben   4   3   5
  42 prop tor   4   3   5   6
  43 prop tor   4   3   5   9
  44 ben   5   6   7
  45 prop tor   5   6   7   8
  46 prop tor   5   6   7  15
  47 ben   5   9   8
  48 ben   5   9  10
  49 prop tor   5   9  10  11
  50 prop tor   5   9  10  14
  51 ben   6   5   9
  52 prop tor   6   5   9   8
  53 prop tor   6   5   9  10
  54 ben   6   7   8
  55 prop tor   6   7   8   9
  56 prop tor   6   7   8  16
  57 ben   6   7  15
  58 ben   7   8   9
  59 prop tor   7   8   9   5
  60 prop tor   7   8   9  10
  61 ben   7   8  16
  62 ben   8   7  15
  63 ben   8   9  10
  64 prop tor   8   9  10  11
  65 prop tor   8   9  10  14
  66 prop tor   9   5   6   7
  67 ben   9   8  16
  68 ben   9  10  11
  69 prop tor   9  10  11  12
  70 prop tor   9  10  11  17
  71 ben   9  10  14
  72 prop tor   9  10  14   2
  73 prop tor   9  10  14  13
  74 ben  10  11  12
  75 prop tor  10  11  12  13
  76 prop tor  10  11  12  18
  77 ben  10  11  17
  78 ben  10  14  13
  79 ben  11  10  14
  80 prop tor  11  10  14   2
  81 prop tor  11  10  14  13
  82 ben  11  12  13
  83 prop tor  11  12  13  14
  84 ben  11  12  18
  85 ben  12  11  17
  86 ben  12  13  14
  87 prop tor  12  13  14   2
  88 prop tor  12  13  14  10
  89 ben  13  12  18
  90 prop tor  14   2   3   4
  91 prop tor  14   2   3   5
  92 prop tor  14  10  11  12
  93 prop tor  14  10  11  17
  94 prop tor  15   7   8   9
  95 prop tor  15   7   8  16
  96 prop tor  16   8   9   5
  97 prop tor  16   8   9  10
  98 prop tor  17  11  12  13
  99 prop tor  17  11  12  18
 100 prop tor  18  12  13  14
 nber bend=              32
 nber lin bend=           0
 nber prop tor=          48
 nber impr tor=           0
 nber tot redund int=         100
 Eigenvalues of G in red int coords
    Gval -0.00000000 -0.00000000 -0.00000000 -0.00000000 -0.00000000 -0.00000000 -0.00000000 -0.00000000
    Gval -0.00000000 -0.00000000 -0.00000000 -0.00000000 -0.00000000 -0.00000000 -0.00000000 -0.00000000
    Gval -0.00000000 -0.00000000 -0.00000000 -0.00000000 -0.00000000 -0.00000000 -0.00000000 -0.00000000
    Gval -0.00000000 -0.00000000 -0.00000000  0.00000000  0.00000000  0.00000000  0.00000000  0.00000000
    Gval  0.00000000  0.00000000  0.00000000  0.00000000  0.00000000  0.00000000  0.00000000  0.00000000
    Gval  0.00000000  0.00000000  0.00000000  0.00000000  0.00000000  0.00000000  0.00000000  0.00000000
    Gval  0.00000000  0.00000000  0.00000000  0.00000000  0.00000835  0.00000986  0.00001161  0.00002159
    Gval  0.00002160  0.00002499  0.00003240  0.00004469  0.00004833  0.00004893  0.00005456  0.00006103
    Gval  0.00007133  0.00009346  0.00010349  0.00010555  0.00010557  0.00010876  0.00011007  0.00013436
    Gval  0.00017065  0.00017826  0.00025596  0.00025895  0.00031466  0.00034586  0.00034722  0.00035256
    Gval  0.00040572  0.00044681  0.00045413  0.00052845  0.00059654  0.00059693  0.00062277  0.00062710
    Gval  0.00067771  0.00108058  0.00108202  0.00118357  0.00118379  0.00118431  0.00130368  0.00187314
    Gval  0.00200791  0.00242004  0.00387947  0.00398403
  8.347996235077811E-006  8.347996235077811E-006
  9.855769377312088E-006  8.347996235077811E-006
  1.161226025952725E-005  8.347996235077811E-006
  2.158607405055645E-005  8.347996235077811E-006
  2.160069753841575E-005  8.347996235077811E-006
  2.499172676621176E-005  8.347996235077811E-006
  3.240318830192788E-005  8.347996235077811E-006
  4.469064977461968E-005  8.347996235077811E-006
  4.832975962698515E-005  8.347996235077811E-006
  4.892984031412755E-005  8.347996235077811E-006
  5.455720939154429E-005  8.347996235077811E-006
  6.102901645193501E-005  8.347996235077811E-006
  7.132848522861660E-005  8.347996235077811E-006
  9.346265152047088E-005  8.347996235077811E-006
  1.034869863756765E-004  8.347996235077811E-006
  1.055541295191988E-004  8.347996235077811E-006
  1.055748175545194E-004  8.347996235077811E-006
  1.087608507859428E-004  8.347996235077811E-006
  1.100729038544622E-004  8.347996235077811E-006
  1.343627576073804E-004  8.347996235077811E-006
  1.706518679118472E-004  8.347996235077811E-006
  1.782618433422931E-004  8.347996235077811E-006
  2.559575624785268E-004  8.347996235077811E-006
  2.589484668864466E-004  8.347996235077811E-006
  3.146557836129305E-004  8.347996235077811E-006
  3.458627433878555E-004  8.347996235077811E-006
  3.472249424236930E-004  8.347996235077811E-006
  3.525599474121132E-004  8.347996235077811E-006
  4.057197689976244E-004  8.347996235077811E-006
  4.468088438019289E-004  8.347996235077811E-006
  4.541313064704939E-004  8.347996235077811E-006
  5.284459784464433E-004  8.347996235077811E-006
  5.965362213610410E-004  8.347996235077811E-006
  5.969276931474584E-004  8.347996235077811E-006
  6.227735132246881E-004  8.347996235077811E-006
  6.270991983256972E-004  8.347996235077811E-006
  6.777128472443480E-004  8.347996235077811E-006
  1.080578142466017E-003  8.347996235077811E-006
  1.082022443221574E-003  8.347996235077811E-006
  1.183570199188542E-003  8.347996235077811E-006
  1.183788636636375E-003  8.347996235077811E-006
  1.184311861157680E-003  8.347996235077811E-006
  1.303679530314870E-003  8.347996235077811E-006
  1.873139235889156E-003  8.347996235077811E-006
  2.007905423205380E-003  8.347996235077811E-006
  2.420035913285542E-003  8.347996235077811E-006
  3.879473670982907E-003  8.347996235077811E-006
  3.984028078138238E-003  8.347996235077811E-006
 cut=1d-8, nber non-redundant internal coords=          48
 Check on Eigenvals of non-red overlap matrix:
  0.00000835  0.00000986  0.00001161  0.00002159  0.00002160  0.00002499  0.00003240  0.00004469
  0.00004833  0.00004893  0.00005456  0.00006103  0.00007133  0.00009346  0.00010349  0.00010555
  0.00010557  0.00010876  0.00011007  0.00013436  0.00017065  0.00017826  0.00025596  0.00025895
  0.00031466  0.00034586  0.00034722  0.00035256  0.00040572  0.00044681  0.00045413  0.00052845
  0.00059654  0.00059693  0.00062277  0.00062710  0.00067771  0.00108058  0.00108202  0.00118357
  0.00118379  0.00118431  0.00130368  0.00187314  0.00200791  0.00242004  0.00387947  0.00398403
 generating redundant internal coords
         300        3600          18
 search for int coords
   1 str   2   1   1.245
   2 str   3   2   1.510
   3 str   4   3   1.245
   4 str   5   3   1.448
   5 str   6   5   1.757
   6 str   7   6   1.748
   7 str   8   7   1.364
   8 str   9   5   1.399
   9 str   9   8   1.431
  10 str  10   9   1.436
  11 str  11  10   1.431
  12 str  12  11   1.364
  13 str  13  12   1.748
  14 str  14   2   1.448
  15 str  14  10   1.399
  16 str  14  13   1.757
  17 str  15   7   1.080
  18 str  16   8   1.084
  19 str  17  11   1.084
  20 str  18  12   1.080
 nber stretches=          20
  21 ben   1   2   3
  22 prop tor   1   2   3   4
  23 prop tor   1   2   3   5
  24 ben   1   2  14
  25 prop tor   1   2  14  10
  26 prop tor   1   2  14  13
  27 ben   2   3   4
  28 ben   2   3   5
  29 prop tor   2   3   5   6
  30 prop tor   2   3   5   9
  31 ben   2  14  10
  32 ben   2  14  13
  33 ben   3   2  14
  34 prop tor   3   2  14  10
  35 prop tor   3   2  14  13
  36 ben   3   5   6
  37 prop tor   3   5   6   7
  38 ben   3   5   9
  39 prop tor   3   5   9   8
  40 prop tor   3   5   9  10
  41 ben   4   3   5
  42 prop tor   4   3   5   6
  43 prop tor   4   3   5   9
  44 ben   5   6   7
  45 prop tor   5   6   7   8
  46 prop tor   5   6   7  15
  47 ben   5   9   8
  48 ben   5   9  10
  49 prop tor   5   9  10  11
  50 prop tor   5   9  10  14
  51 ben   6   5   9
  52 prop tor   6   5   9   8
  53 prop tor   6   5   9  10
  54 ben   6   7   8
  55 prop tor   6   7   8   9
  56 prop tor   6   7   8  16
  57 ben   6   7  15
  58 ben   7   8   9
  59 prop tor   7   8   9   5
  60 prop tor   7   8   9  10
  61 ben   7   8  16
  62 ben   8   7  15
  63 ben   8   9  10
  64 prop tor   8   9  10  11
  65 prop tor   8   9  10  14
  66 prop tor   9   5   6   7
  67 ben   9   8  16
  68 ben   9  10  11
  69 prop tor   9  10  11  12
  70 prop tor   9  10  11  17
  71 ben   9  10  14
  72 prop tor   9  10  14   2
  73 prop tor   9  10  14  13
  74 ben  10  11  12
  75 prop tor  10  11  12  13
  76 prop tor  10  11  12  18
  77 ben  10  11  17
  78 ben  10  14  13
  79 ben  11  10  14
  80 prop tor  11  10  14   2
  81 prop tor  11  10  14  13
  82 ben  11  12  13
  83 prop tor  11  12  13  14
  84 ben  11  12  18
  85 ben  12  11  17
  86 ben  12  13  14
  87 prop tor  12  13  14   2
  88 prop tor  12  13  14  10
  89 ben  13  12  18
  90 prop tor  14   2   3   4
  91 prop tor  14   2   3   5
  92 prop tor  14  10  11  12
  93 prop tor  14  10  11  17
  94 prop tor  15   7   8   9
  95 prop tor  15   7   8  16
  96 prop tor  16   8   9   5
  97 prop tor  16   8   9  10
  98 prop tor  17  11  12  13
  99 prop tor  17  11  12  18
 100 prop tor  18  12  13  14
 nber bend=              32
 nber lin bend=           0
 nber prop tor=          48
 nber impr tor=           0
 nber tot redund int=         100
 Eigenvalues of G in red int coords
    Gval -0.00000000 -0.00000000 -0.00000000 -0.00000000 -0.00000000 -0.00000000 -0.00000000 -0.00000000
    Gval -0.00000000 -0.00000000 -0.00000000 -0.00000000 -0.00000000 -0.00000000 -0.00000000 -0.00000000
    Gval -0.00000000 -0.00000000 -0.00000000 -0.00000000 -0.00000000 -0.00000000 -0.00000000 -0.00000000
    Gval -0.00000000 -0.00000000 -0.00000000 -0.00000000 -0.00000000 -0.00000000  0.00000000  0.00000000
    Gval  0.00000000  0.00000000  0.00000000  0.00000000  0.00000000  0.00000000  0.00000000  0.00000000
    Gval  0.00000000  0.00000000  0.00000000  0.00000000  0.00000000  0.00000000  0.00000000  0.00000000
    Gval  0.00000000  0.00000000  0.00000000  0.00000000  0.00000841  0.00000977  0.00001136  0.00002135
    Gval  0.00002167  0.00002453  0.00003219  0.00004439  0.00004796  0.00004910  0.00005288  0.00006070
    Gval  0.00007097  0.00009303  0.00010304  0.00010456  0.00010465  0.00010570  0.00011043  0.00013284
    Gval  0.00017063  0.00017720  0.00025116  0.00025726  0.00031023  0.00033650  0.00035427  0.00035902
    Gval  0.00041521  0.00044570  0.00045578  0.00054104  0.00059646  0.00059687  0.00062261  0.00062751
    Gval  0.00066051  0.00107673  0.00107844  0.00118030  0.00118053  0.00120903  0.00130621  0.00187709
    Gval  0.00200223  0.00246556  0.00385352  0.00396815
  8.409904287220409E-006  8.409904287220409E-006
  9.771678265786530E-006  8.409904287220409E-006
  1.135900844480945E-005  8.409904287220409E-006
  2.135467049387990E-005  8.409904287220409E-006
  2.166630069512935E-005  8.409904287220409E-006
  2.453312843981706E-005  8.409904287220409E-006
  3.219048663653135E-005  8.409904287220409E-006
  4.439418238427252E-005  8.409904287220409E-006
  4.796218250986683E-005  8.409904287220409E-006
  4.910314123949215E-005  8.409904287220409E-006
  5.288038277206043E-005  8.409904287220409E-006
  6.070081268296569E-005  8.409904287220409E-006
  7.097448714748738E-005  8.409904287220409E-006
  9.302612423432513E-005  8.409904287220409E-006
  1.030364128617266E-004  8.409904287220409E-006
  1.045592841437219E-004  8.409904287220409E-006
  1.046495027489503E-004  8.409904287220409E-006
  1.056957313084811E-004  8.409904287220409E-006
  1.104279214694853E-004  8.409904287220409E-006
  1.328393163876900E-004  8.409904287220409E-006
  1.706310572099676E-004  8.409904287220409E-006
  1.772028267805143E-004  8.409904287220409E-006
  2.511639224674730E-004  8.409904287220409E-006
  2.572605644359932E-004  8.409904287220409E-006
  3.102283839799785E-004  8.409904287220409E-006
  3.365046126606653E-004  8.409904287220409E-006
  3.542656435846905E-004  8.409904287220409E-006
  3.590204128130566E-004  8.409904287220409E-006
  4.152099780837454E-004  8.409904287220409E-006
  4.457012626605673E-004  8.409904287220409E-006
  4.557773298362472E-004  8.409904287220409E-006
  5.410361255842821E-004  8.409904287220409E-006
  5.964642780646842E-004  8.409904287220409E-006
  5.968745784515771E-004  8.409904287220409E-006
  6.226095666179757E-004  8.409904287220409E-006
  6.275112119707934E-004  8.409904287220409E-006
  6.605073372933728E-004  8.409904287220409E-006
  1.076726988035126E-003  8.409904287220409E-006
  1.078439691277928E-003  8.409904287220409E-006
  1.180295103214467E-003  8.409904287220409E-006
  1.180532597829786E-003  8.409904287220409E-006
  1.209030197894254E-003  8.409904287220409E-006
  1.306213589162530E-003  8.409904287220409E-006
  1.877093678065659E-003  8.409904287220409E-006
  2.002234605772563E-003  8.409904287220409E-006
  2.465559765672481E-003  8.409904287220409E-006
  3.853515548452531E-003  8.409904287220409E-006
  3.968152006398055E-003  8.409904287220409E-006
 cut=1d-8, nber non-redundant internal coords=          48
 Check on Eigenvals of non-red overlap matrix:
  0.00000841  0.00000977  0.00001136  0.00002135  0.00002167  0.00002453  0.00003219  0.00004439
  0.00004796  0.00004910  0.00005288  0.00006070  0.00007097  0.00009303  0.00010304  0.00010456
  0.00010465  0.00010570  0.00011043  0.00013284  0.00017063  0.00017720  0.00025116  0.00025726
  0.00031023  0.00033650  0.00035427  0.00035902  0.00041521  0.00044570  0.00045578  0.00054104
  0.00059646  0.00059687  0.00062261  0.00062751  0.00066051  0.00107673  0.00107844  0.00118030
  0.00118053  0.00120903  0.00130621  0.00187709  0.00200223  0.00246556  0.00385352  0.00396815
 d1=
  -8.2  -7.9  -0.0   6.3  -0.0 -10.9  -0.0   0.0  -3.9   0.0  -0.0  -0.0   0.3  -6.3  -4.1  -0.0   0.0   0.0  -0.0   7.7
   0.0  -3.4   0.0  -3.4   1.6   0.0  -0.0  -0.0  -0.0  -0.6  -0.0   0.0   0.1  -0.0  -0.6   0.0  -0.0   0.4  -0.0  -0.1
  -0.0  -0.0   0.0   0.0   0.0  -0.0   0.0  -0.0
 d2=
   8.9  -8.1   0.0   4.3  -0.0  11.6  -0.0   0.0  -4.0  -0.0  -0.0  -0.0  -0.6  -6.3   4.2   0.0  -0.0  -0.0  -0.0   7.8
   0.0   3.4  -0.0  -3.5   1.4  -0.0  -0.0   0.0  -0.0  -0.5  -0.0  -0.0  -0.1  -0.0   0.6  -0.0  -0.0   0.4  -0.0   0.1
   0.0   0.0  -0.0  -0.0  -0.0   0.0  -0.0   0.0
 curvilinear- renormalizn of Dush matrix done
  mol 1 sym            1  -> mol 2 sym            1
  mol 1 sym            2  -> mol 2 sym            2
  mol 1 sym            3  -> mol 2 sym            3
  mol 1 sym            4  -> mol 2 sym            4

 Dushinsky matrix, ncs 2 in terms of ncs 1

   mode   freq    coeff     %      %tot     of    at

   1 B2     -0.  0.0000     0.0     0.0  12 B2    265.
   2 B1     -0.  0.0000     0.0     0.0  50 B2   1765.
   3 A1      0.  0.0000     0.0     0.0  11 A1    202.
   4 B2      0. -0.0000     0.0     0.0  12 B2    265.
   5 A2      0. -0.0000     0.0     0.0  33 A1    891.
   6 B1      0. -0.0000     0.0     0.0  50 B2   1765.
   7 A2     87.  0.9949    99.0    97.4   7 A2     67.
   8 B1    102.  0.9912    98.2    98.9   8 B1     96.
   9 B1    158.  0.9883    97.7   101.7  10 B1    148.
  10 A2    167.  0.9869    97.4    99.9   9 A2    140.
  11 A1    201.  0.9988    99.8    98.3  11 A1    202.
  12 B2    256. -0.9997    99.9    95.5  12 B2    265.
  13 A2    300.  0.9874    97.5   101.5  13 A2    297.
  14 A1    323.  0.9983    99.7    99.4  14 A1    327.
  15 A1    368.  0.9956    99.1    97.6  15 A1    361.
  16 B1    399.  0.9901    98.0    97.4  17 B1    417.
  17 B2    402. -0.9989    99.8   102.3  16 B2    387.
  18 A2    460.  0.9957    99.1    99.9  18 A2    469.
  19 A1    492.  0.9958    99.2   101.4  19 A1    490.
  20 B2    528.  0.9981    99.6    98.5  20 B2    540.
  21 B1    536.  0.9612    92.4    98.1  21 B1    540.
  22 B1    596.  0.9156    83.8    99.2  22 B1    618.
  23 A2    626.  0.9562    91.4   100.3  23 A2    674.
  24 B2    677. -0.9945    98.9    98.7  24 B2    691.
  25 A1    682.  0.9965    99.3    99.5  25 A1    696.
  26 B1    682.  0.9522    90.7   100.1  26 B1    743.
  27 A2    699.  0.9441    89.1   101.8  27 A2    754.
  28 B2    757.  0.9877    97.6    99.7  28 B2    779.
  29 A2    761.  0.9829    96.6   103.8  29 A2    825.
  30 A1    805. -0.9912    98.2    99.6  30 A1    833.
  31 B2    839. -0.9617    92.5   102.9  31 B2    856.
  32 A2    850.  0.9905    98.1    99.4  34 A2    892.
  33 B1    856.  0.9912    98.2    99.2  35 B1    895.
  34 B2    863.  0.9535    90.9   100.6  32 B2    877.
  35 A1    912.  0.9621    92.6    98.6  33 A1    891.
  36 A1   1001. -0.9757    95.2    98.1  36 A1   1006.
  37 B2   1094.  0.9982    99.6    99.8  37 B2   1105.
  38 A1   1111.  0.9976    99.5    99.6  38 A1   1124.
  39 B2   1176.  0.9910    98.2    99.4  39 B2   1197.
  40 B2   1230.  0.9856    97.1   101.6  40 B2   1232.
  41 A1   1231. -0.9784    95.7   100.1  41 A1   1257.
  42 A1   1301. -0.9770    95.4   100.0  42 A1   1301.
  43 B2   1367. -0.9652    93.2    99.9  43 B2   1383.
  44 A1   1399. -0.9293    86.4   100.0  44 A1   1434.
  45 B2   1450. -0.9183    84.3   100.7  46 B2   1455.
                 0.3187    10.2          48 B2   1562.
  46 A1   1468.  0.9853    97.1    99.6  45 A1   1445.
  47 B2   1547.  0.9425    88.8   100.0  48 B2   1562.
  48 A1   1552.  0.9499    90.2    99.4  47 A1   1560.
  49 B2   1570. -0.9841    96.8   100.7  50 B2   1765.
  50 A1   1588. -0.9685    93.8   100.1  49 A1   1742.
  51 B2   3167.  0.9975    99.5   100.0  51 B2   3208.
  52 A1   3172.  0.9958    99.2   100.0  52 A1   3212.
  53 B2   3221.  0.9975    99.5   100.0  53 B2   3240.
  54 A1   3221.  0.9958    99.2   100.0  54 A1   3241.
 nber times 1st assigned=           1           0
 nber times 1st assigned=           2           0
 nber times 1st assigned=           3           0
 nber times 1st assigned=           4           0
 nber times 1st assigned=           5           0
 nber times 1st assigned=           6           0
 nber times 1st assigned=           7           0
 nber times 1st assigned=           8           0
 nber times 1st assigned=           9           0
 nber times 1st assigned=          10           0
 nber times 1st assigned=          12           2
 nber times 1st assigned=          13           0
 nber times 1st assigned=          14           0
 nber times 1st assigned=          15           0
 nber times 1st assigned=          16           0
 nber times 1st assigned=          17           0
 nber times 1st assigned=          18           0
 nber times 1st assigned=          19           0
 nber times 1st assigned=          20           0
 nber times 1st assigned=          21           0
 nber times 1st assigned=          22           0
 nber times 1st assigned=          23           0
 nber times 1st assigned=          24           0
 nber times 1st assigned=          25           0
 nber times 1st assigned=          26           0
 nber times 1st assigned=          27           0
 nber times 1st assigned=          28           0
 nber times 1st assigned=          29           0
 nber times 1st assigned=          30           0
 nber times 1st assigned=          31           0
 nber times 1st assigned=          32           0
 nber times 1st assigned=          34           0
 nber times 1st assigned=          35           0
 nber times 1st assigned=          36           0
 nber times 1st assigned=          37           0
 nber times 1st assigned=          38           0
 nber times 1st assigned=          39           0
 nber times 1st assigned=          40           0
 nber times 1st assigned=          41           0
 nber times 1st assigned=          42           0
 nber times 1st assigned=          43           0
 nber times 1st assigned=          44           0
 nber times 1st assigned=          45           0
 nber times 1st assigned=          46           0
 nber times 1st assigned=          47           0
 nber times 1st assigned=          48           0
 nber times 1st assigned=          49           0
 nber times 1st assigned=          50           2
 nber times 1st assigned=          51           0
 nber times 1st assigned=          52           0
 nber times 1st assigned=          53           0
 nber times 1st assigned=          54           0
 Dushinsky matrix written to .out file
 modes represented=   47.9020694362605     

 Dushinsky matrix, ncs 1 in terms of ncs 2

   mode   freq    coeff     %      %tot     of    at

   7 A2     67.  0.9949    99.0    98.7   7 A2     87.
   8 B1     96.  0.9912    98.2   100.6   8 B1    102.
   9 A2    140.  0.9869    97.4   101.1  10 A2    167.
  10 B1    148.  0.9883    97.7   102.1   9 B1    158.
  11 A1    202.  0.9988    99.8    98.8  11 A1    201.
  12 B2    265. -0.9997    99.9    95.9  12 B2    256.
  13 A2    297.  0.9874    97.5   100.5  13 A2    300.
  14 A1    327.  0.9983    99.7    99.6  14 A1    323.
  15 A1    361.  0.9956    99.1    98.2  15 A1    368.
  16 B2    387. -0.9989    99.8   102.9  17 B2    402.
  17 B1    417.  0.9901    98.0    97.1  16 B1    399.
  18 A2    469.  0.9957    99.1    99.7  18 A2    460.
  19 A1    490.  0.9958    99.2   101.3  19 A1    492.
  20 B2    540.  0.9981    99.6    98.7  20 B2    528.
  21 B1    540.  0.9612    92.4    96.8  21 B1    536.
  22 B1    618.  0.9156    83.8    98.8  22 B1    596.
  23 A2    674.  0.9562    91.4   100.3  23 A2    626.
  24 B2    691. -0.9945    98.9    98.5  24 B2    677.
  25 A1    696.  0.9965    99.3    99.4  25 A1    682.
  26 B1    743.  0.9522    90.7    99.8  26 B1    682.
  27 A2    754.  0.9441    89.1   101.1  27 A2    699.
  28 B2    779.  0.9877    97.6    99.7  28 B2    757.
  29 A2    825.  0.9829    96.6   103.0  29 A2    761.
  30 A1    833. -0.9912    98.2    99.6  30 A1    805.
  31 B2    856. -0.9617    92.5   103.5  31 B2    839.
  32 B2    877.  0.9535    90.9    99.9  34 B2    863.
  33 A1    891.  0.9621    92.6    97.9  35 A1    912.
  34 A2    892.  0.9905    98.1    99.7  32 A2    850.
  35 B1    895.  0.9912    98.2    99.4  33 B1    856.
  36 A1   1006. -0.9757    95.2    98.5  36 A1   1001.
  37 B2   1105.  0.9982    99.6    99.8  37 B2   1094.
  38 A1   1124.  0.9976    99.5    99.7  38 A1   1111.
  39 B2   1197.  0.9910    98.2    99.5  39 B2   1176.
  40 B2   1232.  0.9856    97.1   101.2  40 B2   1230.
  41 A1   1257. -0.9784    95.7    99.9  41 A1   1231.
  42 A1   1301. -0.9770    95.4    99.7  42 A1   1301.
  43 B2   1383. -0.9652    93.2    99.9  43 B2   1367.
  44 A1   1434. -0.9293    86.4   100.0  44 A1   1399.
  45 A1   1445.  0.9853    97.1    99.6  46 A1   1468.
  46 B2   1455. -0.9183    84.3   100.2  45 B2   1450.
  47 A1   1560.  0.9499    90.2    99.2  48 A1   1552.
  48 B2   1562.  0.3187    10.2   100.3  45 B2   1450.
                 0.9425    88.8          47 B2   1547.
  49 A1   1742. -0.9685    93.8    99.9  50 A1   1588.
  50 B2   1765. -0.9841    96.8   100.3  49 B2   1570.
  51 B2   3208.  0.9975    99.5   100.0  51 B2   3167.
  52 A1   3212.  0.9958    99.2   100.0  52 A1   3172.
  53 B2   3240.  0.9975    99.5   100.0  53 B2   3221.
  54 A1   3241.  0.9958    99.2   100.0  54 A1   3221.
 nber times 1st assigned=           1           0
 nber times 1st assigned=           2           0
 nber times 1st assigned=           3           0
 nber times 1st assigned=           4           0
 nber times 1st assigned=           5           0
 nber times 1st assigned=           6           0
 nber times 1st assigned=           7           0
 nber times 1st assigned=           8           0
 nber times 1st assigned=           9           0
 nber times 1st assigned=          10           0
 nber times 1st assigned=          11           0
 nber times 1st assigned=          12           0
 nber times 1st assigned=          13           0
 nber times 1st assigned=          14           0
 nber times 1st assigned=          15           0
 nber times 1st assigned=          16           0
 nber times 1st assigned=          17           0
 nber times 1st assigned=          18           0
 nber times 1st assigned=          19           0
 nber times 1st assigned=          20           0
 nber times 1st assigned=          21           0
 nber times 1st assigned=          22           0
 nber times 1st assigned=          23           0
 nber times 1st assigned=          24           0
 nber times 1st assigned=          25           0
 nber times 1st assigned=          26           0
 nber times 1st assigned=          27           0
 nber times 1st assigned=          28           0
 nber times 1st assigned=          29           0
 nber times 1st assigned=          30           0
 nber times 1st assigned=          31           0
 nber times 1st assigned=          32           0
 nber times 1st assigned=          33           0
 nber times 1st assigned=          34           0
 nber times 1st assigned=          35           0
 nber times 1st assigned=          36           0
 nber times 1st assigned=          37           0
 nber times 1st assigned=          38           0
 nber times 1st assigned=          39           0
 nber times 1st assigned=          40           0
 nber times 1st assigned=          41           0
 nber times 1st assigned=          42           0
 nber times 1st assigned=          43           0
 nber times 1st assigned=          44           0
 nber times 1st assigned=          45           0
 nber times 1st assigned=          46           0
 nber times 1st assigned=          47           0
 nber times 1st assigned=          48           0
 nber times 1st assigned=          49           0
 nber times 1st assigned=          50           0
 nber times 1st assigned=          51           0
 nber times 1st assigned=          52           0
 nber times 1st assigned=          53           0
 nber times 1st assigned=          54           0
 modes represented=   47.9020694362605     
 p1=
   -0.    0.    0.   -0.    0.   -0.   -0.    0.    0.    0.   16.   -0.   -0.   -8.   -0.    0.   -0.    0.   -4.    0.
   -0.   -0.    0.   -0.    4.    0.    0.   -0.    0.   -2.   -0.   -0.    8.   -0.   -0.    0.    0.    0.   -0.    0.
    1.    1.   -0.    1.   -0.   -0.    2.   -0.    5.   -0.   -0.   -0.    0.    0.
 p2=
    0.    0.   -0.    0.    0.   -0.    0.   -0.   -0.   -0.  -16.    0.    0.    8.    0.    0.    0.   -0.    3.   -0.
    0.    0.   -0.   -0.   -4.   -0.   -0.   -0.   -0.   -2.    0.    0.    0.    0.   -7.   -1.   -0.   -1.   -0.    0.
    1.    1.    0.    0.    0.   -0.    0.   -2.   -0.    6.    0.    0.    0.   -0.

 Displacement: in terms of nc of 1 THEN of nc of 2

   1 B2  freq=    -0. Q= -0.000 lam=    -0.0 B2  freq=    -0. Q= -0.000 lam=    -0.0
   2 B1  freq=    -0. Q=  0.000 lam=    -0.0 B1  freq=    -0. Q=  0.000 lam=    -0.0
   3 A1  freq=    -0. Q=  0.000 lam=    -0.0 A1  freq=     0. Q=  0.000 lam=     0.0
   4 A2  freq=    -0. Q= -0.000 lam=    -0.0 B2  freq=     0. Q= -0.000 lam=     0.0
   5 B1  freq=     0. Q=  0.000 lam=     0.0 A2  freq=     0. Q=  0.000 lam=     0.0
   6 B2  freq=     0. Q= -0.000 lam=     0.0 B1  freq=     0. Q= -0.000 lam=     0.0
   7 A2  freq=    67. Q= -0.000 lam=     0.0 A2  freq=    87. Q= -0.000 lam=     0.0
   8 B1  freq=    96. Q=  0.000 lam=     0.0 B1  freq=   102. Q=  0.000 lam=     0.0
   9 A2  freq=   140. Q=  0.000 lam=     0.0 B1  freq=   158. Q=  0.000 lam=     0.0
  10 B1  freq=   148. Q=  0.000 lam=     0.0 A2  freq=   167. Q=  0.000 lam=     0.0
  11 A1  freq=   202. Q=  0.913 lam=    84.2 A1  freq=   201. Q=  0.935 lam=    87.7
  12 B2  freq=   265. Q= -0.000 lam=     0.0 B2  freq=   256. Q= -0.000 lam=     0.0
  13 A2  freq=   297. Q= -0.000 lam=     0.0 A2  freq=   300. Q= -0.000 lam=     0.0
  14 A1  freq=   327. Q= -0.599 lam=    58.7 A1  freq=   323. Q= -0.581 lam=    54.5
  15 A1  freq=   361. Q= -0.011 lam=     0.0 A1  freq=   368. Q= -0.034 lam=     0.2
  16 B2  freq=   387. Q=  0.000 lam=     0.0 B1  freq=   399. Q=  0.000 lam=     0.0
  17 B1  freq=   417. Q= -0.000 lam=     0.0 B2  freq=   402. Q= -0.000 lam=     0.0
  18 A2  freq=   469. Q=  0.000 lam=     0.0 A2  freq=   460. Q=  0.000 lam=     0.0
  19 A1  freq=   490. Q= -0.319 lam=    25.0 A1  freq=   492. Q= -0.305 lam=    22.9
  20 B2  freq=   540. Q=  0.000 lam=     0.0 B2  freq=   528. Q=  0.000 lam=     0.0
  21 B1  freq=   540. Q= -0.000 lam=     0.0 B1  freq=   536. Q= -0.000 lam=     0.0
  22 B1  freq=   618. Q= -0.000 lam=     0.0 B1  freq=   596. Q= -0.000 lam=     0.0
  23 A2  freq=   674. Q=  0.000 lam=     0.0 A2  freq=   626. Q=  0.000 lam=     0.0
  24 B2  freq=   691. Q= -0.000 lam=     0.0 B2  freq=   677. Q= -0.000 lam=     0.0
  25 A1  freq=   696. Q=  0.435 lam=    65.8 A1  freq=   682. Q=  0.468 lam=    74.6
  26 B1  freq=   743. Q=  0.000 lam=     0.0 B1  freq=   682. Q=  0.000 lam=     0.0
  27 A2  freq=   754. Q=  0.000 lam=     0.0 A2  freq=   699. Q=  0.000 lam=     0.0
  28 B2  freq=   779. Q= -0.000 lam=     0.0 B2  freq=   757. Q= -0.000 lam=     0.0
  29 A2  freq=   825. Q=  0.000 lam=     0.0 A2  freq=   761. Q=  0.000 lam=     0.0
  30 A1  freq=   833. Q= -0.177 lam=    13.0 A1  freq=   805. Q= -0.240 lam=    23.1
  31 B2  freq=   856. Q= -0.000 lam=     0.0 B2  freq=   839. Q= -0.000 lam=     0.0
  32 B2  freq=   877. Q= -0.000 lam=     0.0 A2  freq=   850. Q= -0.000 lam=     0.0
  33 A1  freq=   891. Q=  0.909 lam=   368.5 B1  freq=   856. Q=  0.000 lam=     0.0
  34 A2  freq=   892. Q= -0.000 lam=     0.0 B2  freq=   863. Q= -0.000 lam=     0.0
  35 B1  freq=   895. Q= -0.000 lam=     0.0 A1  freq=   912. Q= -0.877 lam=   351.0
  36 A1  freq=  1006. Q=  0.053 lam=     1.4 A1  freq=  1001. Q=  0.120 lam=     7.2
  37 B2  freq=  1105. Q=  0.000 lam=     0.0 B2  freq=  1094. Q=  0.000 lam=     0.0
  38 A1  freq=  1124. Q=  0.064 lam=     2.3 A1  freq=  1111. Q=  0.090 lam=     4.5
  39 B2  freq=  1197. Q= -0.000 lam=     0.0 B2  freq=  1176. Q= -0.000 lam=     0.0
  40 B2  freq=  1232. Q=  0.000 lam=     0.0 B2  freq=  1230. Q=  0.000 lam=     0.0
  41 A1  freq=  1257. Q=  0.164 lam=    17.0 A1  freq=  1231. Q=  0.086 lam=     4.6
  42 A1  freq=  1301. Q=  0.106 lam=     7.3 A1  freq=  1301. Q=  0.158 lam=    16.3
  43 B2  freq=  1383. Q= -0.000 lam=     0.0 B2  freq=  1367. Q= -0.000 lam=     0.0
  44 A1  freq=  1434. Q=  0.121 lam=    10.5 A1  freq=  1399. Q=  0.043 lam=     1.3
  45 A1  freq=  1445. Q= -0.007 lam=     0.0 B2  freq=  1450. Q= -0.000 lam=     0.0
  46 B2  freq=  1455. Q= -0.000 lam=     0.0 A1  freq=  1468. Q= -0.005 lam=     0.0
  47 A1  freq=  1560. Q=  0.339 lam=    89.9 B2  freq=  1547. Q=  0.000 lam=     0.0
  48 B2  freq=  1562. Q= -0.000 lam=     0.0 A1  freq=  1552. Q= -0.284 lam=    62.8
  49 A1  freq=  1742. Q=  0.905 lam=   714.1 B2  freq=  1570. Q=  0.000 lam=     0.0
  50 B2  freq=  1765. Q= -0.000 lam=     0.0 A1  freq=  1588. Q= -0.935 lam=   694.6
  51 B2  freq=  3208. Q= -0.000 lam=     0.0 B2  freq=  3167. Q= -0.000 lam=     0.0
  52 A1  freq=  3212. Q= -0.030 lam=     1.5 A1  freq=  3172. Q= -0.031 lam=     1.5
  53 B2  freq=  3240. Q=  0.000 lam=     0.0 B2  freq=  3221. Q=  0.000 lam=     0.0
  54 A1  freq=  3241. Q=  0.009 lam=     0.1 A1  freq=  3221. Q=  0.007 lam=     0.1

 total reorg energy (cm**-1, kcal/mol)=     1459.     1407.      4.17      4.02
 Nber of molecules processed=           2
