 Enter ifcurve (0=recti, 1=orth curvi, 2=apprx curvi, -1 = skip
 And atom ordering flag, 0= never changes, 1= use the first order thenceforth,
  2= deduce it (does read on fail), 3= always read it
 Reading file: 
 ./Circulene_0_C0S0.log                                                         
                                          
  Entering Gaussian System, Link 0=g16                                          
  
 Gaussian format, type: g94, g98, g03= F F F
  #P Geom=AllCheck Guess=TCheck SCRF=Check GenChk RB3LYP/6-311G(d,p) Fre    
 energy type= B3LYP   
 Original G94 input coords:
  6  2.360186 -0.970145  0.000000
  6  3.360224  0.095448  0.000000
  6  3.029547  1.457044  0.000000
  6  1.652099  1.945124  0.000000
  6  0.947621  3.225385  0.000000
  6 -0.449558  3.331529  0.000000
  6 -1.339304  2.172370  0.000000
  6 -2.774676  1.897946  0.000000
  6 -3.307282  0.601962  0.000000
  6 -2.479730 -0.602537  0.000000
  6 -1.153918 -0.280317  0.000000
  6 -0.089917 -1.184006  0.000000
  6  1.098327 -0.451374  0.000000
  6  0.768796  0.905156  0.000000
  6 -0.623208  1.010878  0.000000
  6 -0.193248 -2.544680  0.000000
  6 -1.594405 -2.959589  0.000000
  6 -2.662330 -2.052399  0.000000
  6  1.129094 -3.166559  0.000000
  6  2.321660 -2.430971  0.000000
  1  4.416102 -0.156064  0.000000
  1  3.852402  2.164874  0.000000
  1  1.512970  4.151915  0.000000
  1 -0.868515  4.332821  0.000000
  1 -3.481157  2.721967  0.000000
  1 -4.389031  0.512885  0.000000
  1 -1.844039 -4.015900  0.000000
  1 -3.664326 -2.469696  0.000000
  1  1.216402 -4.248336  0.000000
  1  3.249214 -2.994730  0.000000
 nber atoms=          30
 Original standard coords:
  6  0.788630  2.426880  0.000000
  6 -0.349638  3.343348  0.000000
  6 -1.682282  2.910505  0.000000
  6 -2.064643  1.500050  0.000000
  6 -3.287877  0.700638  0.000000
  6 -3.287906 -0.700566  0.000000
  6 -2.064694 -1.499973  0.000000
  6 -1.682355 -2.910440  0.000000
  6 -0.349758 -3.343370  0.000000
  6  0.788610 -2.426977  0.000000
  6  0.366910 -1.129374  0.000000
  6  1.187426  0.000009  0.000000
  6  0.366910  1.129358  0.000000
  6 -0.960768  0.698041  0.000000
  6 -0.960768 -0.697971  0.000000
  6  2.552017  0.000021  0.000000
  6  3.071847 -1.365691  0.000000
  6  2.248137 -2.499252  0.000000
  6  3.071967  1.365661  0.000000
  6  2.248177  2.499095  0.000000
  1 -0.178812  4.415240  0.000000
  1 -2.450395  3.677392  0.000000
  1 -4.254561  1.194197  0.000000
  1 -4.254594 -1.194150  0.000000
  1 -2.450507 -3.677297  0.000000
  1 -0.179014 -4.415267  0.000000
  1  4.144029 -1.534612  0.000000
  1  2.740119 -3.466768  0.000000
  1  4.144026  1.534643  0.000000
  1  2.740073  3.466680  0.000000
  SCF Done:  E(RB3LYP) =  -768.298943943     A.U. after    1 cycles             
  
          23          40 "  -768.298943943"
After scan for Atom:   Atom  AN      X      Y      Z        X      Y      Z        X      Y      Z   
After scan for Atom:   Atom  AN      X      Y      Z        X      Y      Z        X      Y      Z   
After scan for Atom:   Atom  AN      X      Y      Z        X      Y      Z        X      Y      Z   
After scan for Atom:   Atom  AN      X      Y      Z        X      Y      Z        X      Y      Z   
After scan for Atom:   Atom  AN      X      Y      Z        X      Y      Z        X      Y      Z   
After scan for Atom:   Atom  AN      X      Y      Z        X      Y      Z        X      Y      Z   
After scan for Atom:   Atom  AN      X      Y      Z        X      Y      Z        X      Y      Z   
After scan for Atom:   Atom  AN      X      Y      Z        X      Y      Z        X      Y      Z   
After scan for Atom:   Atom  AN      X      Y      Z        X      Y      Z        X      Y      Z   
After scan for Atom:   Atom  AN      X      Y      Z        X      Y      Z        X      Y      Z   
After scan for Atom:   Atom  AN      X      Y      Z        X      Y      Z        X      Y      Z   
After scan for Atom:   Atom  AN      X      Y      Z        X      Y      Z        X      Y      Z   
After scan for Atom:   Atom  AN      X      Y      Z        X      Y      Z        X      Y      Z   
After scan for Atom:   Atom  AN      X      Y      Z        X      Y      Z        X      Y      Z   
After scan for Atom:   Atom  AN      X      Y      Z        X      Y      Z        X      Y      Z   
After scan for Atom:   Atom  AN      X      Y      Z        X      Y      Z        X      Y      Z   
After scan for Atom:   Atom  AN      X      Y      Z        X      Y      Z        X      Y      Z   
After scan for Atom:   Atom  AN      X      Y      Z        X      Y      Z        X      Y      Z   
After scan for Atom:   Atom  AN      X      Y      Z        X      Y      Z        X      Y      Z   
After scan for Atom:   Atom  AN      X      Y      Z        X      Y      Z        X      Y      Z   
After scan for Atom:   Atom  AN      X      Y      Z        X      Y      Z        X      Y      Z   
After scan for Atom:   Atom  AN      X      Y      Z        X      Y      Z        X      Y      Z   
After scan for Atom:   Atom  AN      X      Y      Z        X      Y      Z        X      Y      Z   
After scan for Atom:   Atom  AN      X      Y      Z        X      Y      Z        X      Y      Z   
After scan for Atom:   Atom  AN      X      Y      Z        X      Y      Z        X      Y      Z   
After scan for Atom:   Atom  AN      X      Y      Z        X      Y      Z        X      Y      Z   
After scan for Atom:   Atom  AN      X      Y      Z        X      Y      Z        X      Y      Z   
After scan for Atom:   Atom  AN      X      Y      Z        X      Y      Z        X      Y      Z   
 g94    frequencies=
     0.0    0.0    0.0    0.0    0.0    0.0 -114.7  156.3  156.3  286.2
   286.3  305.0  305.0  388.9  389.0  434.0  434.1  452.6  452.7  552.6
   554.9  558.5  562.0  562.0  614.1  614.1  614.2  614.2  659.9  676.4
   676.5  750.9  750.9  770.0  770.1  830.5  830.6  839.3  839.3  847.9
   869.2  869.2  953.5  957.8  962.6  962.8  969.7  969.7 1034.5 1093.4
  1093.4 1139.9 1140.0 1158.7 1158.7 1161.2 1161.3 1201.1 1201.2 1231.3
  1239.9 1320.0 1320.1 1365.8 1365.8 1411.2 1411.3 1433.4 1433.5 1449.0
  1450.1 1450.2 1479.7 1518.2 1518.3 1718.3 1718.6 1721.2 1721.3 1741.0
  3153.8 3154.2 3154.3 3154.5 3154.7 3171.0 3171.1 3171.6 3171.8 3172.9
 g94    symmetries=
                                                A"     A"     A"     A"
      A"     A"     A"     A'     A'     A'     A'     A"     A"     A"
      A'     A"     A'     A'     A'     A'     A"     A"     A'     A"
      A"     A'     A'     A"     A"     A"     A"     A"     A"     A"
      A'     A'     A'     A"     A"     A"     A"     A"     A'     A'
      A'     A'     A'     A'     A'     A'     A'     A'     A'     A'
      A'     A'     A'     A'     A'     A'     A'     A'     A'     A'
      A'     A'     A'     A'     A'     A'     A'     A'     A'     A'
      A'     A'     A'     A'     A'     A'     A'     A'     A'     A'
 atomic masses:
 12.0000 12.0000 12.0000 12.0000 12.0000 12.0000 12.0000 12.0000 12.0000 12.0000
 12.0000 12.0000 12.0000 12.0000 12.0000 12.0000 12.0000 12.0000 12.0000 12.0000
  1.0078  1.0078  1.0078  1.0078  1.0078  1.0078  1.0078  1.0078  1.0078  1.0078
 looking for force constants in 
 ./Circulene_0_C0S0.fchk                                                        
  
 Cartesian Force Constants                  R   N=        4095                  
  
 n3=          90        4095
 g94-fc frequencies=
  -114.7    0.0    0.0    0.0    3.1    3.4    3.6  156.3  156.3  286.2
   286.3  305.0  305.0  388.9  389.0  434.1  434.1  452.6  452.7  552.6
   554.9  558.5  562.0  562.0  614.1  614.1  614.2  614.2  659.9  676.4
   676.5  750.9  750.9  770.0  770.1  830.5  830.6  839.3  839.3  847.9
   869.2  869.2  953.5  957.8  962.7  962.8  969.7  969.7 1034.5 1093.4
  1093.4 1140.0 1140.0 1158.7 1158.7 1161.2 1161.3 1201.2 1201.3 1231.3
  1239.9 1320.1 1320.2 1365.8 1365.9 1411.3 1411.3 1433.5 1433.5 1449.1
  1450.2 1450.3 1479.7 1518.3 1518.3 1718.4 1718.7 1721.2 1721.3 1741.0
  3153.8 3154.3 3154.4 3154.5 3154.7 3171.1 3171.2 3171.7 3171.9 3172.9
 at 99999: n3=          90
 symm operator            1 :  F  nop=           0
 symm operator            2 :  F  nop=           0
 symm operator            3 :  F  nop=           0
 symm operator            4 :  F  nop=           0
 symm operator            5 :  T  nop=           1
 symm operator            6 :  F  nop=           1
 symm operator            7 :  F  nop=           1
 The point group of the molecule is  CS
 enforcing symm op           5  jsymt=           1           1          -1
 cartesian coord symmetries:
 A' :   60 A" :   30
 Symmetry rotation matrix:
   1.00000   0.00000   0.00000
   0.00000   1.00000   0.00000
   0.00000   0.00000   1.00000

 Projecting out zero-frequency components
 generating redundant internal coords
         300        3600          30
 search for int coords
   1 str   2   1   1.461
   2 str   3   2   1.401
   3 str   4   3   1.461
   4 str   5   4   1.461
   5 str   6   5   1.401
   6 str   7   6   1.461
   7 str   8   7   1.461
   8 str   9   8   1.401
   9 str  10   9   1.461
  10 str  11  10   1.364
  11 str  12  11   1.396
  12 str  13   1   1.364
  13 str  13  12   1.396
  14 str  14   4   1.364
  15 str  14  13   1.396
  16 str  15   7   1.364
  17 str  15  11   1.396
  18 str  15  14   1.396
  19 str  16  12   1.365
  20 str  17  16   1.461
  21 str  18  10   1.461
  22 str  18  17   1.401
  23 str  19  16   1.461
  24 str  20   1   1.461
  25 str  20  19   1.401
  26 str  21   2   1.085
  27 str  22   3   1.085
  28 str  23   5   1.085
  29 str  24   6   1.085
  30 str  25   8   1.085
  31 str  26   9   1.085
  32 str  27  17   1.085
  33 str  28  18   1.085
  34 str  29  19   1.085
  35 str  30  20   1.085
 nber stretches=          35
  36 ben   1   2   3
  37 prop tor   1   2   3   4
  38 prop tor   1   2   3  22
  39 ben   1   2  21
  40 ben   1  13  12
  41 ben   1  13  14
  42 prop tor   1  13  14   4
  43 prop tor   1  13  14  15
  44 ben   1  20  19
  45 ben   1  20  30
  46 ben   2   1  13
  47 prop tor   2   1  13  12
  48 prop tor   2   1  13  14
  49 ben   2   1  20
  50 prop tor   2   1  20  19
  51 prop tor   2   1  20  30
  52 ben   2   3   4
  53 prop tor   2   3   4   5
  54 prop tor   2   3   4  14
  55 ben   2   3  22
  56 ben   3   2  21
  57 ben   3   4   5
  58 prop tor   3   4   5   6
  59 prop tor   3   4   5  23
  60 ben   3   4  14
  61 prop tor   3   4  14  13
  62 prop tor   3   4  14  15
  63 ben   4   3  22
  64 ben   4   5   6
  65 prop tor   4   5   6   7
  66 prop tor   4   5   6  24
  67 ben   4   5  23
  68 ben   4  14  13
  69 ben   4  14  15
  70 prop tor   4  14  15   7
  71 prop tor   4  14  15  11
  72 ben   5   4  14
  73 prop tor   5   4  14  13
  74 prop tor   5   4  14  15
  75 ben   5   6   7
  76 prop tor   5   6   7   8
  77 prop tor   5   6   7  15
  78 ben   5   6  24
  79 ben   6   5  23
  80 ben   6   7   8
  81 prop tor   6   7   8   9
  82 prop tor   6   7   8  25
  83 ben   6   7  15
  84 prop tor   6   7  15  11
  85 prop tor   6   7  15  14
  86 ben   7   6  24
  87 ben   7   8   9
  88 prop tor   7   8   9  10
  89 prop tor   7   8   9  26
  90 ben   7   8  25
  91 ben   7  15  11
  92 ben   7  15  14
  93 ben   8   7  15
  94 prop tor   8   7  15  11
  95 prop tor   8   7  15  14
  96 ben   8   9  10
  97 prop tor   8   9  10  11
  98 prop tor   8   9  10  18
  99 ben   8   9  26
 100 ben   9   8  25
 101 ben   9  10  11
 102 prop tor   9  10  11  12
 103 prop tor   9  10  11  15
 104 ben   9  10  18
 105 prop tor   9  10  18  17
 106 prop tor   9  10  18  28
 107 ben  10   9  26
 108 ben  10  11  12
 109 prop tor  10  11  12  13
 110 prop tor  10  11  12  16
 111 ben  10  11  15
 112 prop tor  10  11  15   7
 113 prop tor  10  11  15  14
 114 ben  10  18  17
 115 ben  10  18  28
 116 ben  11  10  18
 117 prop tor  11  10  18  17
 118 prop tor  11  10  18  28
 119 ben  11  12  13
 120 prop tor  11  12  13   1
 121 prop tor  11  12  13  14
 122 ben  11  12  16
 123 prop tor  11  12  16  17
 124 prop tor  11  12  16  19
 125 ben  11  15  14
 126 ben  12  11  15
 127 prop tor  12  11  15   7
 128 prop tor  12  11  15  14
 129 ben  12  13  14
 130 prop tor  12  13  14   4
 131 prop tor  12  13  14  15
 132 ben  12  16  17
 133 prop tor  12  16  17  18
 134 prop tor  12  16  17  27
 135 ben  12  16  19
 136 prop tor  12  16  19  20
 137 prop tor  12  16  19  29
 138 prop tor  13   1   2   3
 139 prop tor  13   1   2  21
 140 ben  13   1  20
 141 prop tor  13   1  20  19
 142 prop tor  13   1  20  30
 143 ben  13  12  16
 144 prop tor  13  12  16  17
 145 prop tor  13  12  16  19
 146 ben  13  14  15
 147 prop tor  13  14  15   7
 148 prop tor  13  14  15  11
 149 prop tor  14   4   5   6
 150 prop tor  14   4   5  23
 151 prop tor  15   7   8   9
 152 prop tor  15   7   8  25
 153 prop tor  15  11  12  13
 154 prop tor  15  11  12  16
 155 prop tor  16  12  13   1
 156 prop tor  16  12  13  14
 157 ben  16  17  18
 158 prop tor  16  17  18  10
 159 prop tor  16  17  18  28
 160 ben  16  17  27
 161 ben  16  19  20
 162 prop tor  16  19  20   1
 163 prop tor  16  19  20  30
 164 ben  16  19  29
 165 ben  17  16  19
 166 prop tor  17  16  19  20
 167 prop tor  17  16  19  29
 168 ben  17  18  28
 169 prop tor  18  10  11  12
 170 prop tor  18  10  11  15
 171 ben  18  17  27
 172 prop tor  19  16  17  18
 173 prop tor  19  16  17  27
 174 ben  19  20  30
 175 prop tor  20   1   2   3
 176 prop tor  20   1   2  21
 177 prop tor  20   1  13  12
 178 prop tor  20   1  13  14
 179 ben  20  19  29
 180 prop tor  21   2   3   4
 181 prop tor  21   2   3  22
 182 prop tor  22   3   4   5
 183 prop tor  22   3   4  14
 184 prop tor  23   5   6   7
 185 prop tor  23   5   6  24
 186 prop tor  24   6   7   8
 187 prop tor  24   6   7  15
 188 prop tor  25   8   9  10
 189 prop tor  25   8   9  26
 190 prop tor  26   9  10  11
 191 prop tor  26   9  10  18
 192 prop tor  27  17  18  10
 193 prop tor  27  17  18  28
 194 prop tor  29  19  20   1
 195 prop tor  29  19  20  30
 nber bend=              60
 nber lin bend=           0
 nber prop tor=         100
 nber impr tor=           0
 nber tot redund int=         195
 Eigenvalues of G in red int coords
    Gval -0.00000000 -0.00000000 -0.00000000 -0.00000000 -0.00000000 -0.00000000 -0.00000000 -0.00000000
    Gval -0.00000000 -0.00000000 -0.00000000 -0.00000000 -0.00000000 -0.00000000 -0.00000000 -0.00000000
    Gval -0.00000000 -0.00000000 -0.00000000 -0.00000000 -0.00000000 -0.00000000 -0.00000000 -0.00000000
    Gval -0.00000000 -0.00000000 -0.00000000 -0.00000000 -0.00000000 -0.00000000 -0.00000000 -0.00000000
    Gval -0.00000000 -0.00000000 -0.00000000 -0.00000000 -0.00000000 -0.00000000 -0.00000000 -0.00000000
    Gval -0.00000000 -0.00000000 -0.00000000 -0.00000000 -0.00000000 -0.00000000 -0.00000000 -0.00000000
    Gval -0.00000000 -0.00000000 -0.00000000 -0.00000000 -0.00000000 -0.00000000 -0.00000000 -0.00000000
    Gval -0.00000000  0.00000000  0.00000000  0.00000000  0.00000000  0.00000000  0.00000000  0.00000000
    Gval  0.00000000  0.00000000  0.00000000  0.00000000  0.00000000  0.00000000  0.00000000  0.00000000
    Gval  0.00000000  0.00000000  0.00000000  0.00000000  0.00000000  0.00000000  0.00000000  0.00000000
    Gval  0.00000000  0.00000000  0.00000000  0.00000000  0.00000000  0.00000000  0.00000000  0.00000000
    Gval  0.00000000  0.00000000  0.00000000  0.00000000  0.00000000  0.00000000  0.00000000  0.00000000
    Gval  0.00000000  0.00000000  0.00000000  0.00000000  0.00000000  0.00000000  0.00000000  0.00000000
    Gval  0.00000000  0.00000000  0.00000000  0.00000000  0.00000000  0.00000000  0.00000000  0.00001400
    Gval  0.00001874  0.00001875  0.00001905  0.00001906  0.00003872  0.00003872  0.00005223  0.00005223
    Gval  0.00005782  0.00005783  0.00006087  0.00006087  0.00008614  0.00008615  0.00008850  0.00008850
    Gval  0.00008943  0.00009524  0.00011362  0.00012306  0.00012309  0.00012310  0.00015746  0.00015747
    Gval  0.00018447  0.00018447  0.00022584  0.00028009  0.00028009  0.00029087  0.00029090  0.00029247
    Gval  0.00035333  0.00035333  0.00039612  0.00039612  0.00043445  0.00047405  0.00047409  0.00047584
    Gval  0.00047585  0.00047949  0.00047953  0.00059558  0.00059558  0.00059818  0.00059818  0.00060054
    Gval  0.00062423  0.00063491  0.00063492  0.00065331  0.00065331  0.00069577  0.00069582  0.00083041
    Gval  0.00107178  0.00107181  0.00107588  0.00108791  0.00108795  0.00109824  0.00114324  0.00114703
    Gval  0.00114707  0.00115142  0.00115145  0.00117467  0.00117473  0.00170971  0.00170976  0.00216082
    Gval  0.00216096  0.00267269  0.00267291  0.00277045  0.00277057  0.00295656  0.00341969  0.00365507
    Gval  0.00365527  0.00386980  0.00386984
  1.400207195601514E-005  1.400207195601514E-005
  1.874473421005119E-005  1.400207195601514E-005
  1.874598711821548E-005  1.400207195601514E-005
  1.905461986997186E-005  1.400207195601514E-005
  1.905502641375354E-005  1.400207195601514E-005
  3.871837978378145E-005  1.400207195601514E-005
  3.871850514794988E-005  1.400207195601514E-005
  5.222802593306539E-005  1.400207195601514E-005
  5.222901094054983E-005  1.400207195601514E-005
  5.781915079392445E-005  1.400207195601514E-005
  5.782508790152687E-005  1.400207195601514E-005
  6.086550849837890E-005  1.400207195601514E-005
  6.086586345955632E-005  1.400207195601514E-005
  8.614338981349911E-005  1.400207195601514E-005
  8.614509040218816E-005  1.400207195601514E-005
  8.849815941567552E-005  1.400207195601514E-005
  8.849906343389325E-005  1.400207195601514E-005
  8.942748454259273E-005  1.400207195601514E-005
  9.523832638008105E-005  1.400207195601514E-005
  1.136227118871936E-004  1.400207195601514E-005
  1.230603003117768E-004  1.400207195601514E-005
  1.230944945450794E-004  1.400207195601514E-005
  1.230955029871245E-004  1.400207195601514E-005
  1.574638933197872E-004  1.400207195601514E-005
  1.574709391155520E-004  1.400207195601514E-005
  1.844661947638553E-004  1.400207195601514E-005
  1.844724675112828E-004  1.400207195601514E-005
  2.258439213244530E-004  1.400207195601514E-005
  2.800873231673054E-004  1.400207195601514E-005
  2.800934695597312E-004  1.400207195601514E-005
  2.908693392788353E-004  1.400207195601514E-005
  2.908959741250234E-004  1.400207195601514E-005
  2.924729619285200E-004  1.400207195601514E-005
  3.533280349969048E-004  1.400207195601514E-005
  3.533320069490060E-004  1.400207195601514E-005
  3.961158357510520E-004  1.400207195601514E-005
  3.961204494358777E-004  1.400207195601514E-005
  4.344517481314954E-004  1.400207195601514E-005
  4.740498451624500E-004  1.400207195601514E-005
  4.740893305123385E-004  1.400207195601514E-005
  4.758435096087380E-004  1.400207195601514E-005
  4.758531533431380E-004  1.400207195601514E-005
  4.794880452666398E-004  1.400207195601514E-005
  4.795268851023164E-004  1.400207195601514E-005
  5.955823289725681E-004  1.400207195601514E-005
  5.955826075867574E-004  1.400207195601514E-005
  5.981772640614859E-004  1.400207195601514E-005
  5.981781900926501E-004  1.400207195601514E-005
  6.005373708800860E-004  1.400207195601514E-005
  6.242331267132269E-004  1.400207195601514E-005
  6.349121581162507E-004  1.400207195601514E-005
  6.349150122883444E-004  1.400207195601514E-005
  6.533120397795839E-004  1.400207195601514E-005
  6.533147839135791E-004  1.400207195601514E-005
  6.957710875428008E-004  1.400207195601514E-005
  6.958217491697613E-004  1.400207195601514E-005
  8.304087834834368E-004  1.400207195601514E-005
  1.071781670614652E-003  1.400207195601514E-005
  1.071813082113982E-003  1.400207195601514E-005
  1.075880884756894E-003  1.400207195601514E-005
  1.087911657990223E-003  1.400207195601514E-005
  1.087948988213561E-003  1.400207195601514E-005
  1.098239845693451E-003  1.400207195601514E-005
  1.143240184664986E-003  1.400207195601514E-005
  1.147027401637268E-003  1.400207195601514E-005
  1.147069097597102E-003  1.400207195601514E-005
  1.151423769527657E-003  1.400207195601514E-005
  1.151452953628994E-003  1.400207195601514E-005
  1.174672754358476E-003  1.400207195601514E-005
  1.174731258198030E-003  1.400207195601514E-005
  1.709706715300089E-003  1.400207195601514E-005
  1.709761878700626E-003  1.400207195601514E-005
  2.160822934654531E-003  1.400207195601514E-005
  2.160962995689365E-003  1.400207195601514E-005
  2.672687398398794E-003  1.400207195601514E-005
  2.672909522993545E-003  1.400207195601514E-005
  2.770453890446147E-003  1.400207195601514E-005
  2.770567733101754E-003  1.400207195601514E-005
  2.956556788288365E-003  1.400207195601514E-005
  3.419685722847487E-003  1.400207195601514E-005
  3.655065193322736E-003  1.400207195601514E-005
  3.655274147910804E-003  1.400207195601514E-005
  3.869802604050141E-003  1.400207195601514E-005
  3.869836761561516E-003  1.400207195601514E-005
 cut=1d-8, nber non-redundant internal coords=          84
 Check on Eigenvals of non-red overlap matrix:
  0.00001400  0.00001874  0.00001875  0.00001905  0.00001906  0.00003872  0.00003872  0.00005223
  0.00005223  0.00005782  0.00005783  0.00006087  0.00006087  0.00008614  0.00008615  0.00008850
  0.00008850  0.00008943  0.00009524  0.00011362  0.00012306  0.00012309  0.00012310  0.00015746
  0.00015747  0.00018447  0.00018447  0.00022584  0.00028009  0.00028009  0.00029087  0.00029090
  0.00029247  0.00035333  0.00035333  0.00039612  0.00039612  0.00043445  0.00047405  0.00047409
  0.00047584  0.00047585  0.00047949  0.00047953  0.00059558  0.00059558  0.00059818  0.00059818
  0.00060054  0.00062423  0.00063491  0.00063492  0.00065331  0.00065331  0.00069577  0.00069582
  0.00083041  0.00107178  0.00107181  0.00107588  0.00108791  0.00108795  0.00109824  0.00114324
  0.00114703  0.00114707  0.00115142  0.00115145  0.00117467  0.00117473  0.00170971  0.00170976
  0.00216082  0.00216096  0.00267269  0.00267291  0.00277045  0.00277057  0.00295656  0.00341969
  0.00365507  0.00365527  0.00386980  0.00386984
 Checking for correct frequencies
 recalc frequencies=
  -114.7   -0.0   -0.0    0.0    0.0    0.0    0.0  156.3  156.3  286.2
   286.3  305.0  305.0  388.9  389.0  434.1  434.1  452.6  452.7  552.6
   554.9  558.5  562.0  562.0  614.1  614.1  614.2  614.2  659.9  676.4
   676.5  750.9  750.9  770.0  770.1  830.5  830.6  839.3  839.3  847.9
   869.2  869.2  953.5  957.8  962.7  962.8  969.7  969.7 1034.5 1093.4
  1093.4 1140.0 1140.0 1158.7 1158.7 1161.2 1161.3 1201.2 1201.3 1231.3
  1239.9 1320.1 1320.2 1365.8 1365.9 1411.3 1411.3 1433.5 1433.5 1449.1
  1450.2 1450.3 1479.7 1518.3 1518.3 1718.4 1718.7 1721.2 1721.3 1741.0
  3153.8 3154.3 3154.4 3154.5 3154.7 3171.1 3171.2 3171.7 3171.9 3172.9
 recalc symmetries=
     A"     A'     A"     A"     A"     A'     A'     A"     A"     A" 
     A"     A"     A"     A'     A'     A'     A'     A"     A"     A" 
     A'     A"     A'     A'     A'     A'     A"     A"     A'     A" 
     A"     A'     A'     A"     A"     A"     A"     A"     A"     A" 
     A'     A'     A'     A"     A"     A"     A"     A"     A'     A' 
     A'     A'     A'     A'     A'     A'     A'     A'     A'     A' 
     A'     A'     A'     A'     A'     A'     A'     A'     A'     A' 
     A'     A'     A'     A'     A'     A'     A'     A'     A'     A' 
     A'     A'     A'     A'     A'     A'     A'     A'     A'     A' 
 recalc freqs check OK
 Zero-point lengths:
 23.1515 10.0000 10.0000 10.0000 10.0000 10.0000 10.0000 19.8289 19.8285 14.6541
 14.6523 14.1954 14.1951 12.5708 12.5700 11.8993 11.8993 11.6524 11.6521 10.5458
 10.5243 10.4905 10.4574 10.4571 10.0040 10.0040 10.0030 10.0029  9.6505  9.5319
  9.5316  9.0468  9.0467  8.9340  8.9335  8.6026  8.6020  8.5573  8.5572  8.5136
  8.4089  8.4088  8.0283  8.0103  7.9902  7.9897  7.9612  7.9610  7.7077  7.4973
  7.4972  7.3426  7.3425  7.2830  7.2829  7.2751  7.2749  7.1531  7.1528  7.0650
  7.0405  6.8234  6.8231  6.7080  6.7080  6.5992  6.5991  6.5479  6.5478  6.5125
  6.5101  6.5099  6.4448  6.3624  6.3623  5.9805  5.9800  5.9755  5.9753  5.9415
  4.4145  4.4141  4.4141  4.4140  4.4138  4.4024  4.4024  4.4020  4.4019  4.4011
 highest evec of mol 1
  0.0011  0.0011  0.0000
 -0.0165 -0.0848  0.0000
  0.0630 -0.0587  0.0000
 -0.0010  0.0007  0.0000
  0.0755 -0.0419  0.0000
  0.0749  0.0416  0.0000
 -0.0010 -0.0006  0.0000
  0.0600  0.0560  0.0000
 -0.0157  0.0805  0.0000
  0.0005 -0.0011  0.0000
  0.0004 -0.0012  0.0000
  0.0017  0.0000  0.0000
  0.0005  0.0016  0.0000
 -0.0011  0.0008  0.0000
 -0.0012 -0.0008  0.0000
  0.0013  0.0008  0.0000
 -0.0864  0.0106  0.0000
 -0.0360  0.0773  0.0000
 -0.1176 -0.0146  0.0000
 -0.0463 -0.1000  0.0000
  0.0441  0.2813  0.0000
 -0.2009  0.2013  0.0000
 -0.2540  0.1290  0.0000
 -0.2519 -0.1280  0.0000
 -0.1912 -0.1917  0.0000
  0.0420 -0.2673  0.0000
  0.2834 -0.0455  0.0000
  0.1280 -0.2507  0.0000
  0.3864  0.0616  0.0000
  0.1648  0.3232  0.0000
 generating redundant internal coords
         300        3600          30
 Adding extra bonds for z output only
           6           6           6           6           6           6
           6           6           6           6           6           6
           6           6           6           6           6           6
           6           6           1           1           1           1
           1           1           1           1           1           1
 search for int coords
   1 str   2   1   1.461
   2 str   3   2   1.401
   3 str   4   3   1.461
   4 str   5   4   1.461
   5 str   6   5   1.401
   6 str   7   6   1.461
   7 str   8   7   1.461
   8 str   9   8   1.401
   9 str  10   9   1.461
  10 str  11  10   1.364
  11 str  12  11   1.396
  12 str  13   1   1.364
  13 str  13  12   1.396
  14 str  14   4   1.364
  15 str  14  13   1.396
  16 str  15   7   1.364
  17 str  15  11   1.396
  18 str  15  14   1.396
  19 str  16  12   1.365
  20 str  17  16   1.461
  21 str  18  10   1.461
  22 str  18  17   1.401
  23 str  19  16   1.461
  24 str  20   1   1.461
  25 str  20  19   1.401
  26 str  21   2   1.085
  27 str  22   3   1.085
  28 str  23   5   1.085
  29 str  24   6   1.085
  30 str  25   8   1.085
  31 str  26   9   1.085
  32 str  27  17   1.085
  33 str  28  18   1.085
  34 str  29  19   1.085
  35 str  30  20   1.085
 nber stretches=          35
  36 ben   1   2   3
  37 prop tor   1   2   3   4
  38 prop tor   1   2   3  22
  39 ben   1   2  21
  40 ben   1  13  12
  41 ben   1  13  14
  42 prop tor   1  13  14   4
  43 prop tor   1  13  14  15
  44 ben   1  20  19
  45 ben   1  20  30
  46 ben   2   1  13
  47 prop tor   2   1  13  12
  48 prop tor   2   1  13  14
  49 ben   2   1  20
  50 prop tor   2   1  20  19
  51 prop tor   2   1  20  30
  52 ben   2   3   4
  53 prop tor   2   3   4   5
  54 prop tor   2   3   4  14
  55 ben   2   3  22
  56 ben   3   2  21
  57 ben   3   4   5
  58 prop tor   3   4   5   6
  59 prop tor   3   4   5  23
  60 ben   3   4  14
  61 prop tor   3   4  14  13
  62 prop tor   3   4  14  15
  63 ben   4   3  22
  64 ben   4   5   6
  65 prop tor   4   5   6   7
  66 prop tor   4   5   6  24
  67 ben   4   5  23
  68 ben   4  14  13
  69 ben   4  14  15
  70 prop tor   4  14  15   7
  71 prop tor   4  14  15  11
  72 ben   5   4  14
  73 prop tor   5   4  14  13
  74 prop tor   5   4  14  15
  75 ben   5   6   7
  76 prop tor   5   6   7   8
  77 prop tor   5   6   7  15
  78 ben   5   6  24
  79 ben   6   5  23
  80 ben   6   7   8
  81 prop tor   6   7   8   9
  82 prop tor   6   7   8  25
  83 ben   6   7  15
  84 prop tor   6   7  15  11
  85 prop tor   6   7  15  14
  86 ben   7   6  24
  87 ben   7   8   9
  88 prop tor   7   8   9  10
  89 prop tor   7   8   9  26
  90 ben   7   8  25
  91 ben   7  15  11
  92 ben   7  15  14
  93 ben   8   7  15
  94 prop tor   8   7  15  11
  95 prop tor   8   7  15  14
  96 ben   8   9  10
  97 prop tor   8   9  10  11
  98 prop tor   8   9  10  18
  99 ben   8   9  26
 100 ben   9   8  25
 101 ben   9  10  11
 102 prop tor   9  10  11  12
 103 prop tor   9  10  11  15
 104 ben   9  10  18
 105 prop tor   9  10  18  17
 106 prop tor   9  10  18  28
 107 ben  10   9  26
 108 ben  10  11  12
 109 prop tor  10  11  12  13
 110 prop tor  10  11  12  16
 111 ben  10  11  15
 112 prop tor  10  11  15   7
 113 prop tor  10  11  15  14
 114 ben  10  18  17
 115 ben  10  18  28
 116 ben  11  10  18
 117 prop tor  11  10  18  17
 118 prop tor  11  10  18  28
 119 ben  11  12  13
 120 prop tor  11  12  13   1
 121 prop tor  11  12  13  14
 122 ben  11  12  16
 123 prop tor  11  12  16  17
 124 prop tor  11  12  16  19
 125 ben  11  15  14
 126 ben  12  11  15
 127 prop tor  12  11  15   7
 128 prop tor  12  11  15  14
 129 ben  12  13  14
 130 prop tor  12  13  14   4
 131 prop tor  12  13  14  15
 132 ben  12  16  17
 133 prop tor  12  16  17  18
 134 prop tor  12  16  17  27
 135 ben  12  16  19
 136 prop tor  12  16  19  20
 137 prop tor  12  16  19  29
 138 prop tor  13   1   2   3
 139 prop tor  13   1   2  21
 140 ben  13   1  20
 141 prop tor  13   1  20  19
 142 prop tor  13   1  20  30
 143 ben  13  12  16
 144 prop tor  13  12  16  17
 145 prop tor  13  12  16  19
 146 ben  13  14  15
 147 prop tor  13  14  15   7
 148 prop tor  13  14  15  11
 149 prop tor  14   4   5   6
 150 prop tor  14   4   5  23
 151 prop tor  15   7   8   9
 152 prop tor  15   7   8  25
 153 prop tor  15  11  12  13
 154 prop tor  15  11  12  16
 155 prop tor  16  12  13   1
 156 prop tor  16  12  13  14
 157 ben  16  17  18
 158 prop tor  16  17  18  10
 159 prop tor  16  17  18  28
 160 ben  16  17  27
 161 ben  16  19  20
 162 prop tor  16  19  20   1
 163 prop tor  16  19  20  30
 164 ben  16  19  29
 165 ben  17  16  19
 166 prop tor  17  16  19  20
 167 prop tor  17  16  19  29
 168 ben  17  18  28
 169 prop tor  18  10  11  12
 170 prop tor  18  10  11  15
 171 ben  18  17  27
 172 prop tor  19  16  17  18
 173 prop tor  19  16  17  27
 174 ben  19  20  30
 175 prop tor  20   1   2   3
 176 prop tor  20   1   2  21
 177 prop tor  20   1  13  12
 178 prop tor  20   1  13  14
 179 ben  20  19  29
 180 prop tor  21   2   3   4
 181 prop tor  21   2   3  22
 182 prop tor  22   3   4   5
 183 prop tor  22   3   4  14
 184 prop tor  23   5   6   7
 185 prop tor  23   5   6  24
 186 prop tor  24   6   7   8
 187 prop tor  24   6   7  15
 188 prop tor  25   8   9  10
 189 prop tor  25   8   9  26
 190 prop tor  26   9  10  11
 191 prop tor  26   9  10  18
 192 prop tor  27  17  18  10
 193 prop tor  27  17  18  28
 194 prop tor  29  19  20   1
 195 prop tor  29  19  20  30
 nber bend=              60
 nber lin bend=           0
 nber prop tor=         100
 nber impr tor=           0
 nber tot redund int=         195
 Reading file: 
 ./Circulene_0_C1S0.log                                                         
                                          
  Entering Gaussian System, Link 0=g16                                          
  
 Gaussian format, type: g94, g98, g03= F F F
  #P Geom=AllCheck Guess=TCheck SCRF=Check GenChk UB3LYP/6-311G(d,p) Fre    
 energy type= B3LYP   
 Original G94 input coords:
  6  2.376683 -0.957391  0.000000
  6  3.383003  0.102239  0.000000
  6  3.052752  1.460883  0.000000
  6  1.672242  1.941652  0.000000
  6  0.964987  3.200252  0.000000
  6 -0.458594  3.309155  0.000000
  6 -1.351453  2.172790  0.000000
  6 -2.779687  1.898736  0.000000
  6 -3.313280  0.595523  0.000000
  6 -2.489700 -0.606172  0.000000
  6 -1.163104 -0.284115  0.000000
  6 -0.103410 -1.179023  0.000000
  6  1.107028 -0.435306  0.000000
  6  0.784123  0.896634  0.000000
  6 -0.629612  1.001662  0.000000
  6 -0.208106 -2.550902  0.000000
  6 -1.603513 -2.965141  0.000000
  6 -2.672993 -2.053271  0.000000
  6  1.105487 -3.149608  0.000000
  6  2.323353 -2.398695  0.000000
  1  4.435734 -0.155647  0.000000
  1  3.870109  2.172806  0.000000
  1  1.516411  4.133687  0.000000
  1 -0.862312  4.315764  0.000000
  1 -3.486433  2.720627  0.000000
  1 -4.394030  0.509103  0.000000
  1 -1.852669 -4.020279  0.000000
  1 -3.673831 -2.469882  0.000000
  1  1.210091 -4.228970  0.000000
  1  3.240724 -2.977113  0.000000
 nber atoms=          30
 Original standard coords:
  6  1.503043 -2.075276  0.000000
  6  2.918896 -1.713534  0.000000
  6  3.362180 -0.387458  0.000000
  6  2.449117  0.754147  0.000000
  6  2.519962  2.196112  0.000000
  6  1.372569  3.045778  0.000000
  6  0.011953  2.558695  0.000000
  6 -1.343143  3.086589  0.000000
  6 -2.488345  2.267079  0.000000
  6 -2.430422  0.811400  0.000000
  6 -1.135840  0.378230  0.000000
  6 -0.714765 -0.943325  0.000000
  6  0.705823 -0.957672  0.000000
  6  1.141118  0.341885  0.000000
  6  0.000000  1.183031  0.000000
  6 -1.533359 -2.049181  0.000000
  6 -2.935250 -1.657448  0.000000
  6 -3.355586 -0.316324  0.000000
  6 -0.739705 -3.255037  0.000000
  6  0.691001 -3.267244  0.000000
  1  3.673021 -2.492021  0.000000
  1  4.433031 -0.219575  0.000000
  1  3.483511  2.693045  0.000000
  1  1.566338  4.112878  0.000000
  1 -1.504230  4.158524  0.000000
  1 -3.449393  2.768952  0.000000
  1 -3.707626 -2.418257  0.000000
  1 -4.424660 -0.136542  0.000000
  1 -1.225443 -4.224585  0.000000
  1  1.159970 -4.245102  0.000000
  SCF Done:  E(UB3LYP) =  -768.020627113     A.U. after    1 cycles             
  
          23          40 "  -768.020627113"
After scan for Atom:   Atom  AN      X      Y      Z        X      Y      Z        X      Y      Z   
After scan for Atom:   Atom  AN      X      Y      Z        X      Y      Z        X      Y      Z   
After scan for Atom:   Atom  AN      X      Y      Z        X      Y      Z        X      Y      Z   
After scan for Atom:   Atom  AN      X      Y      Z        X      Y      Z        X      Y      Z   
After scan for Atom:   Atom  AN      X      Y      Z        X      Y      Z        X      Y      Z   
After scan for Atom:   Atom  AN      X      Y      Z        X      Y      Z        X      Y      Z   
After scan for Atom:   Atom  AN      X      Y      Z        X      Y      Z        X      Y      Z   
After scan for Atom:   Atom  AN      X      Y      Z        X      Y      Z        X      Y      Z   
After scan for Atom:   Atom  AN      X      Y      Z        X      Y      Z        X      Y      Z   
After scan for Atom:   Atom  AN      X      Y      Z        X      Y      Z        X      Y      Z   
After scan for Atom:   Atom  AN      X      Y      Z        X      Y      Z        X      Y      Z   
After scan for Atom:   Atom  AN      X      Y      Z        X      Y      Z        X      Y      Z   
After scan for Atom:   Atom  AN      X      Y      Z        X      Y      Z        X      Y      Z   
After scan for Atom:   Atom  AN      X      Y      Z        X      Y      Z        X      Y      Z   
After scan for Atom:   Atom  AN      X      Y      Z        X      Y      Z        X      Y      Z   
After scan for Atom:   Atom  AN      X      Y      Z        X      Y      Z        X      Y      Z   
After scan for Atom:   Atom  AN      X      Y      Z        X      Y      Z        X      Y      Z   
After scan for Atom:   Atom  AN      X      Y      Z        X      Y      Z        X      Y      Z   
After scan for Atom:   Atom  AN      X      Y      Z        X      Y      Z        X      Y      Z   
After scan for Atom:   Atom  AN      X      Y      Z        X      Y      Z        X      Y      Z   
After scan for Atom:   Atom  AN      X      Y      Z        X      Y      Z        X      Y      Z   
After scan for Atom:   Atom  AN      X      Y      Z        X      Y      Z        X      Y      Z   
After scan for Atom:   Atom  AN      X      Y      Z        X      Y      Z        X      Y      Z   
After scan for Atom:   Atom  AN      X      Y      Z        X      Y      Z        X      Y      Z   
After scan for Atom:   Atom  AN      X      Y      Z        X      Y      Z        X      Y      Z   
After scan for Atom:   Atom  AN      X      Y      Z        X      Y      Z        X      Y      Z   
After scan for Atom:   Atom  AN      X      Y      Z        X      Y      Z        X      Y      Z   
After scan for Atom:   Atom  AN      X      Y      Z        X      Y      Z        X      Y      Z   
 g94    frequencies=
     0.0    0.0    0.0    0.0    0.0    0.0 -111.0  -44.1  150.9  151.0
   256.2  269.9  296.9  299.4  385.3  386.6  409.6  430.9  450.4  517.4
   524.6  555.9  559.5  564.3  566.0  566.1  566.9  612.9  653.3  654.8
   676.5  730.9  737.7  774.0  774.7  806.0  806.4  853.1  861.8  863.0
   871.2  889.6  916.0  955.2  980.9  987.2  988.9  997.8  998.2 1027.5
  1069.6 1082.0 1103.2 1148.3 1157.3 1162.6 1170.0 1196.3 1208.4 1217.7
  1246.5 1247.6 1286.3 1293.6 1339.3 1349.8 1410.7 1418.1 1420.8 1437.3
  1441.0 1458.9 1471.8 1497.9 1513.7 1627.2 1654.3 1682.1 1709.8 1729.2
  3179.9 3180.4 3180.9 3181.4 3182.7 3192.7 3193.7 3194.1 3194.6 3196.0
 g94    symmetries=
                                                A"     A'     A"     A"
      A"     A"     A"     A"     A'     A'     A'     A"     A"     A"
      A"     A'     A'     A'     A'     A"     A"     A'     A"     A'
      A"     A'     A'     A"     A"     A"     A"     A"     A'     A'
      A"     A"     A'     A'     A"     A"     A"     A"     A"     A'
      A'     A'     A'     A'     A'     A'     A'     A'     A'     A'
      A'     A'     A'     A'     A'     A'     A'     A'     A'     A'
      A'     A'     A'     A'     A'     A'     A'     A'     A'     A'
      A'     A'     A'     A'     A'     A'     A'     A'     A'     A'
 atomic masses:
 12.0000 12.0000 12.0000 12.0000 12.0000 12.0000 12.0000 12.0000 12.0000 12.0000
 12.0000 12.0000 12.0000 12.0000 12.0000 12.0000 12.0000 12.0000 12.0000 12.0000
  1.0078  1.0078  1.0078  1.0078  1.0078  1.0078  1.0078  1.0078  1.0078  1.0078
 looking for force constants in 
 ./Circulene_0_C1S0.fchk                                                        
  
 Cartesian Force Constants                  R   N=        4095                  
  
 n3=          90        4095
 g94-fc frequencies=
  -111.0  -44.1   -3.4   -1.9   -0.6   -0.0   -0.0    0.0  150.9  151.0
   256.2  269.9  296.9  299.4  385.3  386.6  409.7  430.9  450.4  517.4
   524.6  555.9  559.5  564.3  566.0  566.2  567.0  612.9  653.3  654.8
   676.5  730.9  737.7  774.0  774.7  806.0  806.4  853.1  861.8  863.1
   871.2  889.6  916.1  955.2  980.9  987.3  989.0  997.8  998.3 1027.5
  1069.6 1082.0 1103.3 1148.4 1157.3 1162.6 1170.0 1196.3 1208.4 1217.7
  1246.5 1247.6 1286.3 1293.6 1339.4 1349.9 1410.8 1418.2 1420.8 1437.3
  1441.0 1458.9 1471.8 1497.9 1513.7 1627.2 1654.3 1682.1 1709.8 1729.2
  3180.0 3180.5 3181.0 3181.5 3182.8 3192.7 3193.8 3194.2 3194.6 3196.0
 at 99999: n3=          90
 symm operator            1 :  F  nop=           0
 symm operator            2 :  F  nop=           0
 symm operator            3 :  F  nop=           0
 symm operator            4 :  F  nop=           0
 symm operator            5 :  T  nop=           1
 symm operator            6 :  F  nop=           1
 symm operator            7 :  F  nop=           1
 The point group of the molecule is  CS
 enforcing symm op           5  jsymt=           1           1          -1
 cartesian coord symmetries:
 A' :   60 A" :   30
 Symmetry rotation matrix:
   1.00000   0.00000   0.00000
   0.00000   1.00000   0.00000
   0.00000   0.00000   1.00000

 Projecting out zero-frequency components
 generating redundant internal coords
         300        3600          30
 search for int coords
   1 str   2   1   1.461
   2 str   3   2   1.398
   3 str   4   3   1.462
   4 str   5   4   1.444
   5 str   6   5   1.428
   6 str   7   6   1.445
   7 str   8   7   1.454
   8 str   9   8   1.408
   9 str  10   9   1.457
  10 str  11  10   1.365
  11 str  12  11   1.387
  12 str  13   1   1.373
  13 str  13  12   1.421
  14 str  14   4   1.371
  15 str  14  13   1.371
  16 str  15   7   1.376
  17 str  15  11   1.392
  18 str  15  14   1.418
  19 str  16  12   1.376
  20 str  17  16   1.456
  21 str  18  10   1.459
  22 str  18  17   1.405
  23 str  19  16   1.444
  24 str  20   1   1.442
  25 str  20  19   1.431
  26 str  21   2   1.084
  27 str  22   3   1.084
  28 str  23   5   1.084
  29 str  24   6   1.085
  30 str  25   8   1.084
  31 str  26   9   1.084
  32 str  27  17   1.084
  33 str  28  18   1.084
  34 str  29  19   1.084
  35 str  30  20   1.084
 nber stretches=          35
  36 ben   1   2   3
  37 prop tor   1   2   3   4
  38 prop tor   1   2   3  22
  39 ben   1   2  21
  40 ben   1  13  12
  41 ben   1  13  14
  42 prop tor   1  13  14   4
  43 prop tor   1  13  14  15
  44 ben   1  20  19
  45 ben   1  20  30
  46 ben   2   1  13
  47 prop tor   2   1  13  12
  48 prop tor   2   1  13  14
  49 ben   2   1  20
  50 prop tor   2   1  20  19
  51 prop tor   2   1  20  30
  52 ben   2   3   4
  53 prop tor   2   3   4   5
  54 prop tor   2   3   4  14
  55 ben   2   3  22
  56 ben   3   2  21
  57 ben   3   4   5
  58 prop tor   3   4   5   6
  59 prop tor   3   4   5  23
  60 ben   3   4  14
  61 prop tor   3   4  14  13
  62 prop tor   3   4  14  15
  63 ben   4   3  22
  64 ben   4   5   6
  65 prop tor   4   5   6   7
  66 prop tor   4   5   6  24
  67 ben   4   5  23
  68 ben   4  14  13
  69 ben   4  14  15
  70 prop tor   4  14  15   7
  71 prop tor   4  14  15  11
  72 ben   5   4  14
  73 prop tor   5   4  14  13
  74 prop tor   5   4  14  15
  75 ben   5   6   7
  76 prop tor   5   6   7   8
  77 prop tor   5   6   7  15
  78 ben   5   6  24
  79 ben   6   5  23
  80 ben   6   7   8
  81 prop tor   6   7   8   9
  82 prop tor   6   7   8  25
  83 ben   6   7  15
  84 prop tor   6   7  15  11
  85 prop tor   6   7  15  14
  86 ben   7   6  24
  87 ben   7   8   9
  88 prop tor   7   8   9  10
  89 prop tor   7   8   9  26
  90 ben   7   8  25
  91 ben   7  15  11
  92 ben   7  15  14
  93 ben   8   7  15
  94 prop tor   8   7  15  11
  95 prop tor   8   7  15  14
  96 ben   8   9  10
  97 prop tor   8   9  10  11
  98 prop tor   8   9  10  18
  99 ben   8   9  26
 100 ben   9   8  25
 101 ben   9  10  11
 102 prop tor   9  10  11  12
 103 prop tor   9  10  11  15
 104 ben   9  10  18
 105 prop tor   9  10  18  17
 106 prop tor   9  10  18  28
 107 ben  10   9  26
 108 ben  10  11  12
 109 prop tor  10  11  12  13
 110 prop tor  10  11  12  16
 111 ben  10  11  15
 112 prop tor  10  11  15   7
 113 prop tor  10  11  15  14
 114 ben  10  18  17
 115 ben  10  18  28
 116 ben  11  10  18
 117 prop tor  11  10  18  17
 118 prop tor  11  10  18  28
 119 ben  11  12  13
 120 prop tor  11  12  13   1
 121 prop tor  11  12  13  14
 122 ben  11  12  16
 123 prop tor  11  12  16  17
 124 prop tor  11  12  16  19
 125 ben  11  15  14
 126 ben  12  11  15
 127 prop tor  12  11  15   7
 128 prop tor  12  11  15  14
 129 ben  12  13  14
 130 prop tor  12  13  14   4
 131 prop tor  12  13  14  15
 132 ben  12  16  17
 133 prop tor  12  16  17  18
 134 prop tor  12  16  17  27
 135 ben  12  16  19
 136 prop tor  12  16  19  20
 137 prop tor  12  16  19  29
 138 prop tor  13   1   2   3
 139 prop tor  13   1   2  21
 140 ben  13   1  20
 141 prop tor  13   1  20  19
 142 prop tor  13   1  20  30
 143 ben  13  12  16
 144 prop tor  13  12  16  17
 145 prop tor  13  12  16  19
 146 ben  13  14  15
 147 prop tor  13  14  15   7
 148 prop tor  13  14  15  11
 149 prop tor  14   4   5   6
 150 prop tor  14   4   5  23
 151 prop tor  15   7   8   9
 152 prop tor  15   7   8  25
 153 prop tor  15  11  12  13
 154 prop tor  15  11  12  16
 155 prop tor  16  12  13   1
 156 prop tor  16  12  13  14
 157 ben  16  17  18
 158 prop tor  16  17  18  10
 159 prop tor  16  17  18  28
 160 ben  16  17  27
 161 ben  16  19  20
 162 prop tor  16  19  20   1
 163 prop tor  16  19  20  30
 164 ben  16  19  29
 165 ben  17  16  19
 166 prop tor  17  16  19  20
 167 prop tor  17  16  19  29
 168 ben  17  18  28
 169 prop tor  18  10  11  12
 170 prop tor  18  10  11  15
 171 ben  18  17  27
 172 prop tor  19  16  17  18
 173 prop tor  19  16  17  27
 174 ben  19  20  30
 175 prop tor  20   1   2   3
 176 prop tor  20   1   2  21
 177 prop tor  20   1  13  12
 178 prop tor  20   1  13  14
 179 ben  20  19  29
 180 prop tor  21   2   3   4
 181 prop tor  21   2   3  22
 182 prop tor  22   3   4   5
 183 prop tor  22   3   4  14
 184 prop tor  23   5   6   7
 185 prop tor  23   5   6  24
 186 prop tor  24   6   7   8
 187 prop tor  24   6   7  15
 188 prop tor  25   8   9  10
 189 prop tor  25   8   9  26
 190 prop tor  26   9  10  11
 191 prop tor  26   9  10  18
 192 prop tor  27  17  18  10
 193 prop tor  27  17  18  28
 194 prop tor  29  19  20   1
 195 prop tor  29  19  20  30
 nber bend=              60
 nber lin bend=           0
 nber prop tor=         100
 nber impr tor=           0
 nber tot redund int=         195
 Eigenvalues of G in red int coords
    Gval -0.00000000 -0.00000000 -0.00000000 -0.00000000 -0.00000000 -0.00000000 -0.00000000 -0.00000000
    Gval -0.00000000 -0.00000000 -0.00000000 -0.00000000 -0.00000000 -0.00000000 -0.00000000 -0.00000000
    Gval -0.00000000 -0.00000000 -0.00000000 -0.00000000 -0.00000000 -0.00000000 -0.00000000 -0.00000000
    Gval -0.00000000 -0.00000000 -0.00000000 -0.00000000 -0.00000000 -0.00000000 -0.00000000 -0.00000000
    Gval -0.00000000 -0.00000000 -0.00000000 -0.00000000 -0.00000000 -0.00000000 -0.00000000 -0.00000000
    Gval -0.00000000 -0.00000000 -0.00000000 -0.00000000 -0.00000000 -0.00000000 -0.00000000 -0.00000000
    Gval -0.00000000 -0.00000000 -0.00000000 -0.00000000 -0.00000000 -0.00000000 -0.00000000 -0.00000000
    Gval  0.00000000  0.00000000  0.00000000  0.00000000  0.00000000  0.00000000  0.00000000  0.00000000
    Gval  0.00000000  0.00000000  0.00000000  0.00000000  0.00000000  0.00000000  0.00000000  0.00000000
    Gval  0.00000000  0.00000000  0.00000000  0.00000000  0.00000000  0.00000000  0.00000000  0.00000000
    Gval  0.00000000  0.00000000  0.00000000  0.00000000  0.00000000  0.00000000  0.00000000  0.00000000
    Gval  0.00000000  0.00000000  0.00000000  0.00000000  0.00000000  0.00000000  0.00000000  0.00000000
    Gval  0.00000000  0.00000000  0.00000000  0.00000000  0.00000000  0.00000000  0.00000000  0.00000000
    Gval  0.00000000  0.00000000  0.00000000  0.00000000  0.00000000  0.00000000  0.00000000  0.00001400
    Gval  0.00001866  0.00001886  0.00001905  0.00001906  0.00003888  0.00003889  0.00005215  0.00005230
    Gval  0.00005802  0.00005822  0.00006057  0.00006060  0.00008591  0.00008629  0.00008856  0.00008857
    Gval  0.00008956  0.00009542  0.00011434  0.00012300  0.00012304  0.00012313  0.00015643  0.00015766
    Gval  0.00018387  0.00018568  0.00022460  0.00027904  0.00027933  0.00028976  0.00028997  0.00029508
    Gval  0.00035434  0.00035523  0.00039703  0.00039714  0.00043095  0.00047073  0.00047238  0.00047423
    Gval  0.00047649  0.00048190  0.00048284  0.00059558  0.00059559  0.00059820  0.00059823  0.00060066
    Gval  0.00062407  0.00063492  0.00063505  0.00065374  0.00065376  0.00069444  0.00069910  0.00083123
    Gval  0.00107398  0.00107455  0.00107470  0.00109064  0.00109166  0.00110192  0.00114245  0.00114504
    Gval  0.00114901  0.00115285  0.00115365  0.00118562  0.00118757  0.00170260  0.00170268  0.00216765
    Gval  0.00216858  0.00268391  0.00270190  0.00276078  0.00276274  0.00299159  0.00341375  0.00364546
    Gval  0.00367924  0.00388182  0.00388282
  1.399968948222989E-005  1.399968948222989E-005
  1.866388857089004E-005  1.399968948222989E-005
  1.885737989050198E-005  1.399968948222989E-005
  1.905278657709071E-005  1.399968948222989E-005
  1.906355331802530E-005  1.399968948222989E-005
  3.887524663731941E-005  1.399968948222989E-005
  3.889048146059701E-005  1.399968948222989E-005
  5.215127488233936E-005  1.399968948222989E-005
  5.229503305095541E-005  1.399968948222989E-005
  5.801591430673355E-005  1.399968948222989E-005
  5.821930731084531E-005  1.399968948222989E-005
  6.057039948824499E-005  1.399968948222989E-005
  6.059636567506054E-005  1.399968948222989E-005
  8.590725403710745E-005  1.399968948222989E-005
  8.628639213790389E-005  1.399968948222989E-005
  8.856251336610127E-005  1.399968948222989E-005
  8.856683902429623E-005  1.399968948222989E-005
  8.956108944597349E-005  1.399968948222989E-005
  9.542472105130602E-005  1.399968948222989E-005
  1.143377292765893E-004  1.399968948222989E-005
  1.230022411197044E-004  1.399968948222989E-005
  1.230365146106433E-004  1.399968948222989E-005
  1.231338552972343E-004  1.399968948222989E-005
  1.564278295894821E-004  1.399968948222989E-005
  1.576632316986138E-004  1.399968948222989E-005
  1.838698096219598E-004  1.399968948222989E-005
  1.856755129887840E-004  1.399968948222989E-005
  2.246039829063903E-004  1.399968948222989E-005
  2.790378192029000E-004  1.399968948222989E-005
  2.793287978823293E-004  1.399968948222989E-005
  2.897578673460523E-004  1.399968948222989E-005
  2.899653959374281E-004  1.399968948222989E-005
  2.950770762256523E-004  1.399968948222989E-005
  3.543422151042617E-004  1.399968948222989E-005
  3.552267906989758E-004  1.399968948222989E-005
  3.970323312004075E-004  1.399968948222989E-005
  3.971445001653435E-004  1.399968948222989E-005
  4.309478192887183E-004  1.399968948222989E-005
  4.707344184395653E-004  1.399968948222989E-005
  4.723767784662212E-004  1.399968948222989E-005
  4.742328823667821E-004  1.399968948222989E-005
  4.764905024626783E-004  1.399968948222989E-005
  4.818950159905419E-004  1.399968948222989E-005
  4.828416995060715E-004  1.399968948222989E-005
  5.955817256941808E-004  1.399968948222989E-005
  5.955855617644666E-004  1.399968948222989E-005
  5.981993477853904E-004  1.399968948222989E-005
  5.982330417576130E-004  1.399968948222989E-005
  6.006565722496775E-004  1.399968948222989E-005
  6.240746520290899E-004  1.399968948222989E-005
  6.349178725616909E-004  1.399968948222989E-005
  6.350507587068218E-004  1.399968948222989E-005
  6.537389038847954E-004  1.399968948222989E-005
  6.537641428078117E-004  1.399968948222989E-005
  6.944441650624045E-004  1.399968948222989E-005
  6.991015879680583E-004  1.399968948222989E-005
  8.312268365004552E-004  1.399968948222989E-005
  1.073984701002733E-003  1.399968948222989E-005
  1.074549769099877E-003  1.399968948222989E-005
  1.074695892049324E-003  1.399968948222989E-005
  1.090639166698079E-003  1.399968948222989E-005
  1.091655558600952E-003  1.399968948222989E-005
  1.101915433015849E-003  1.399968948222989E-005
  1.142449191571949E-003  1.399968948222989E-005
  1.145036933780458E-003  1.399968948222989E-005
  1.149013310321598E-003  1.399968948222989E-005
  1.152845797448865E-003  1.399968948222989E-005
  1.153654982427643E-003  1.399968948222989E-005
  1.185621693639585E-003  1.399968948222989E-005
  1.187566193731953E-003  1.399968948222989E-005
  1.702596210489027E-003  1.399968948222989E-005
  1.702683620041075E-003  1.399968948222989E-005
  2.167650736772132E-003  1.399968948222989E-005
  2.168578036014975E-003  1.399968948222989E-005
  2.683906029199075E-003  1.399968948222989E-005
  2.701902297874194E-003  1.399968948222989E-005
  2.760775666868300E-003  1.399968948222989E-005
  2.762740061600169E-003  1.399968948222989E-005
  2.991589158230037E-003  1.399968948222989E-005
  3.413748231348101E-003  1.399968948222989E-005
  3.645456891446457E-003  1.399968948222989E-005
  3.679239232703867E-003  1.399968948222989E-005
  3.881824675935245E-003  1.399968948222989E-005
  3.882819337602520E-003  1.399968948222989E-005
 cut=1d-8, nber non-redundant internal coords=          84
 Check on Eigenvals of non-red overlap matrix:
  0.00001400  0.00001866  0.00001886  0.00001905  0.00001906  0.00003888  0.00003889  0.00005215
  0.00005230  0.00005802  0.00005822  0.00006057  0.00006060  0.00008591  0.00008629  0.00008856
  0.00008857  0.00008956  0.00009542  0.00011434  0.00012300  0.00012304  0.00012313  0.00015643
  0.00015766  0.00018387  0.00018568  0.00022460  0.00027904  0.00027933  0.00028976  0.00028997
  0.00029508  0.00035434  0.00035523  0.00039703  0.00039714  0.00043095  0.00047073  0.00047238
  0.00047423  0.00047649  0.00048190  0.00048284  0.00059558  0.00059559  0.00059820  0.00059823
  0.00060066  0.00062407  0.00063492  0.00063505  0.00065374  0.00065376  0.00069444  0.00069910
  0.00083123  0.00107398  0.00107455  0.00107470  0.00109064  0.00109166  0.00110192  0.00114245
  0.00114504  0.00114901  0.00115285  0.00115365  0.00118562  0.00118757  0.00170260  0.00170268
  0.00216765  0.00216858  0.00268391  0.00270190  0.00276078  0.00276274  0.00299159  0.00341375
  0.00364546  0.00367924  0.00388182  0.00388282
 Checking for correct frequencies
 recalc frequencies=
  -111.0  -44.1   -0.0    0.0    0.0    0.0    0.0    0.0  150.9  151.0
   256.2  269.9  296.9  299.4  385.3  386.6  409.7  430.9  450.4  517.4
   524.6  555.9  559.5  564.3  566.0  566.2  567.0  612.9  653.3  654.8
   676.5  730.9  737.7  774.0  774.7  806.0  806.4  853.1  861.8  863.1
   871.2  889.6  916.1  955.2  980.9  987.3  989.0  997.8  998.3 1027.5
  1069.6 1082.0 1103.3 1148.4 1157.3 1162.6 1170.0 1196.3 1208.4 1217.7
  1246.5 1247.6 1286.3 1293.6 1339.4 1349.9 1410.8 1418.2 1420.8 1437.3
  1441.0 1458.9 1471.8 1497.9 1513.7 1627.2 1654.3 1682.1 1709.8 1729.2
  3180.0 3180.5 3181.0 3181.5 3182.8 3192.7 3193.8 3194.2 3194.6 3196.0
 recalc symmetries=
     A"     A'     A'     A"     A"     A"     A'     A'     A"     A" 
     A"     A"     A"     A"     A'     A'     A'     A"     A"     A" 
     A"     A'     A'     A'     A'     A"     A"     A'     A"     A' 
     A"     A'     A'     A"     A"     A"     A"     A"     A'     A' 
     A"     A"     A'     A'     A"     A"     A"     A"     A"     A' 
     A'     A'     A'     A'     A'     A'     A'     A'     A'     A' 
     A'     A'     A'     A'     A'     A'     A'     A'     A'     A' 
     A'     A'     A'     A'     A'     A'     A'     A'     A'     A' 
     A'     A'     A'     A'     A'     A'     A'     A'     A'     A' 
 recalc freqs check OK
 Zero-point lengths:
 23.5299 37.3179 10.0000 10.0000 10.0000 10.0000 10.0000 10.0000 20.1813 20.1742
 15.4880 15.0909 14.3882 14.3264 12.6302 12.6080 12.2487 11.9431 11.6810 10.8992
 10.8239 10.5143 10.4810 10.4359 10.4204 10.4190 10.4117 10.0134  9.6992  9.6879
  9.5313  9.1699  9.1276  8.9108  8.9071  8.7324  8.7300  8.4880  8.4448  8.4387
  8.3991  8.3119  8.1910  8.0214  7.9154  7.8901  7.8833  7.8482  7.8464  7.7339
  7.5801  7.5367  7.4637  7.3157  7.2873  7.2707  7.2478  7.1676  7.1316  7.1042
  7.0218  7.0186  6.9123  6.8927  6.7740  6.7476  6.6003  6.5832  6.5771  6.5392
  6.5308  6.4906  6.4620  6.4054  6.3719  6.1457  6.0951  6.0446  5.9955  5.9617
  4.3962  4.3959  4.3956  4.3952  4.3943  4.3875  4.3867  4.3865  4.3862  4.3852
 highest evec of mol 2
  0.0056  0.0010  0.0000
 -0.1416  0.1574  0.0000
 -0.1976 -0.0391  0.0000
  0.0038 -0.0040  0.0000
 -0.0012 -0.0006  0.0000
 -0.0003 -0.0005  0.0000
  0.0000 -0.0002  0.0000
  0.0001 -0.0036  0.0000
  0.0033 -0.0013  0.0000
 -0.0001  0.0000  0.0000
 -0.0001  0.0001  0.0000
 -0.0000 -0.0003  0.0000
  0.0015 -0.0007  0.0000
  0.0016 -0.0004  0.0000
 -0.0000  0.0003  0.0000
  0.0001  0.0001  0.0000
  0.0021  0.0025  0.0000
  0.0038 -0.0009  0.0000
 -0.0002  0.0002  0.0000
 -0.0003  0.0008  0.0000
  0.4823 -0.4977  0.0000
  0.6506  0.1021  0.0000
  0.0027  0.0026  0.0000
  0.0003  0.0029  0.0000
 -0.0018  0.0116  0.0000
 -0.0100  0.0052  0.0000
 -0.0076 -0.0075  0.0000
 -0.0123  0.0021  0.0000
 -0.0009 -0.0014  0.0000
 -0.0003 -0.0021  0.0000
 Enter nber and list of atoms to keep of mol #2
 keep list:          30           1           2           3           4
           5           6           7           8           9          10
          11          12          13          14          15          16
          17          18          19          20          21          22
          23          24          25          26          27          28
          29          30
 reordering atoms
           1   2.00795357595176     
           2   3.27338379453483     
           3   3.34184255704360     
           4   2.15426093125720     
           5   1.83282040175534     
           6  0.498514477531299     
           7 -0.679863823176163     
           8  -2.12719610028391     
           9  -3.00834526664248     
          10  -2.55922132340795     
          11  -1.19574827804881     
          12 -0.433225441049512     
          13  0.938390966159771     
          14   1.00632393836748     
          15 -0.319638139979550     
          16 -0.922540169992423     
          17  -2.37813295620831     
          18  -3.14523225017509     
          19  0.167436690611337     
          20   1.54821641575159     
          21   4.20981790740646     
          22   4.32749035098786     
          23   2.62624163610569     
          24  0.396721539468534     
          25  -2.57195026988473     
          26  -4.06925741298018     
          27  -2.91618820191621     
          28  -4.22311571467120     
          29 -3.823824197801851E-002
          30   2.26397718477834     
           1           1
           2           2
           3           3
           4           4
           5           5
           6           6
           7           7
           8           8
           9           9
          10          10
          11          11
          12          12
          13          13
          14          14
          15          15
          16          16
          17          17
          18          18
          19          19
          20          20
          21          21
          22          22
          23          23
          24          24
          25          25
          26          26
          27          27
          28          28
          29          29
          30          30
 initial cartes coords mol 1
   6   0.00000   2.42231   0.80255
   6   0.00000   3.34530  -0.33044
   6   0.00000   2.92011  -1.66554
   6   0.00000   1.51188  -2.05600
   6   0.00000   0.71950  -3.28380
   6   0.00000  -0.68168  -3.29187
   6   0.00000  -1.48810  -2.07327
   6   0.00000  -2.90073  -1.69903
   6   0.00000  -3.34131  -0.36894
   6   0.00000  -2.43146   0.77467
   6   0.00000  -1.13146   0.36042
   6   0.00000  -0.00681   1.18741
   6   0.00000   1.12723   0.37339
   6   0.00000   0.70355  -0.95674
   6   0.00000  -0.69244  -0.96476
   6   0.00000  -0.01463   2.55198
   6   0.00000  -1.38330   3.06396
   6   0.00000  -2.51212   2.23376
   6   0.00000   1.34800   3.07976
   6   0.00000   2.48615   2.26249
   1   0.00000   4.41619  -0.15346
   1   0.00000   3.69140  -2.42924
   1   0.00000   1.21860  -4.24763
   1   0.00000  -1.16971  -4.26138
   1   0.00000  -3.66317  -2.47157
   1   0.00000  -4.41417  -0.20435
   1   0.00000  -1.55837   4.13515
   1   0.00000  -3.48244   2.72018
   1   0.00000   1.51083   4.15277
   1   0.00000   3.45089   2.75993
 initial cartes coords mol 2
   6   0.00000  -1.59193   2.00795
   6   0.00000  -0.86105   3.27338
   6   0.00000   0.53548   3.34184
   6   0.00000   1.38788   2.15426
   6   0.00000   2.79535   1.83282
   6   0.00000   3.30336   0.49851
   6   0.00000   2.46673  -0.67986
   6   0.00000   2.60880  -2.12720
   6   0.00000   1.51032  -3.00835
   6   0.00000   0.12445  -2.55922
   6   0.00000   0.05722  -1.19575
   6   0.00000  -1.10139  -0.43323
   6   0.00000  -0.73133   0.93839
   6   0.00000   0.63751   1.00632
   6   0.00000   1.13901  -0.31964
   6   0.00000  -2.38731  -0.92254
   6   0.00000  -2.38897  -2.37813
   6   0.00000  -1.21132  -3.14523
   6   0.00000  -3.33384   0.16744
   6   0.00000  -2.95898   1.54822
   1   0.00000  -1.40680   4.20982
   1   0.00000   0.98648   4.32749
   1   0.00000   3.53417   2.62624
   1   0.00000   4.38312   0.39672
   1   0.00000   3.59733  -2.57195
   1   0.00000   1.73383  -4.06926
   1   0.00000  -3.33019  -2.91619
   1   0.00000  -1.32711  -4.22312
   1   0.00000  -4.39858  -0.03824
   1   0.00000  -3.77374   2.26398
 loop 1 0
 mod cartes coords mol 2
   6   0.00000  -1.59193   2.00795
   6   0.00000  -0.86105   3.27338
   6   0.00000   0.53548   3.34184
   6   0.00000   1.38788   2.15426
   6   0.00000   2.79535   1.83282
   6   0.00000   3.30336   0.49851
   6   0.00000   2.46673  -0.67986
   6   0.00000   2.60880  -2.12720
   6   0.00000   1.51032  -3.00835
   6   0.00000   0.12445  -2.55922
   6   0.00000   0.05722  -1.19575
   6   0.00000  -1.10139  -0.43323
   6   0.00000  -0.73133   0.93839
   6   0.00000   0.63751   1.00632
   6   0.00000   1.13901  -0.31964
   6   0.00000  -2.38731  -0.92254
   6   0.00000  -2.38897  -2.37813
   6   0.00000  -1.21132  -3.14523
   6   0.00000  -3.33384   0.16744
   6   0.00000  -2.95898   1.54822
   1   0.00000  -1.40680   4.20982
   1   0.00000   0.98648   4.32749
   1   0.00000   3.53417   2.62624
   1   0.00000   4.38312   0.39672
   1   0.00000   3.59733  -2.57195
   1   0.00000   1.73383  -4.06926
   1   0.00000  -3.33019  -2.91619
   1   0.00000  -1.32711  -4.22312
   1   0.00000  -4.39858  -0.03824
   1   0.00000  -3.77374   2.26398
 read in order, maxerr=  7.28 for atom  22
 loop 1 1
 mod cartes coords mol 2
   6   0.00000  -1.59193   2.00795
   6   0.00000  -0.86105   3.27338
   6   0.00000   0.53548   3.34184
   6   0.00000   1.38788   2.15426
   6   0.00000   2.79535   1.83282
   6   0.00000   3.30336   0.49851
   6   0.00000   2.46673  -0.67986
   6   0.00000   2.60880  -2.12720
   6   0.00000   1.51032  -3.00835
   6   0.00000   0.12445  -2.55922
   6   0.00000   0.05722  -1.19575
   6   0.00000  -1.10139  -0.43323
   6   0.00000  -0.73133   0.93839
   6   0.00000   0.63751   1.00632
   6   0.00000   1.13901  -0.31964
   6   0.00000  -2.38731  -0.92254
   6   0.00000  -2.38897  -2.37813
   6   0.00000  -1.21132  -3.14523
   6   0.00000  -3.33384   0.16744
   6   0.00000  -2.95898   1.54822
   1   0.00000  -1.40680   4.20982
   1   0.00000   0.98648   4.32749
   1   0.00000   3.53417   2.62624
   1   0.00000   4.38312   0.39672
   1   0.00000   3.59733  -2.57195
   1   0.00000   1.73383  -4.06926
   1   0.00000  -3.33019  -2.91619
   1   0.00000  -1.32711  -4.22312
   1   0.00000  -4.39858  -0.03824
   1   0.00000  -3.77374   2.26398
 read in order, maxerr=  7.28 for atom  22
 loop 1 2
 mod cartes coords mol 2
   6   0.00000   1.59193   2.00795
   6   0.00000   0.86105   3.27338
   6   0.00000  -0.53548   3.34184
   6   0.00000  -1.38788   2.15426
   6   0.00000  -2.79535   1.83282
   6   0.00000  -3.30336   0.49851
   6   0.00000  -2.46673  -0.67986
   6   0.00000  -2.60880  -2.12720
   6   0.00000  -1.51032  -3.00835
   6   0.00000  -0.12445  -2.55922
   6   0.00000  -0.05722  -1.19575
   6   0.00000   1.10139  -0.43323
   6   0.00000   0.73133   0.93839
   6   0.00000  -0.63751   1.00632
   6   0.00000  -1.13901  -0.31964
   6   0.00000   2.38731  -0.92254
   6   0.00000   2.38897  -2.37813
   6   0.00000   1.21132  -3.14523
   6   0.00000   3.33384   0.16744
   6   0.00000   2.95898   1.54822
   1   0.00000   1.40680   4.20982
   1   0.00000  -0.98648   4.32749
   1   0.00000  -3.53417   2.62624
   1   0.00000  -4.38312   0.39672
   1   0.00000  -3.59733  -2.57195
   1   0.00000  -1.73383  -4.06926
   1   0.00000   3.33019  -2.91619
   1   0.00000   1.32711  -4.22312
   1   0.00000   4.39858  -0.03824
   1   0.00000   3.77374   2.26398
 read in order, maxerr=  8.58 for atom  27
 loop 1 3
 mod cartes coords mol 2
   6   0.00000   1.59193   2.00795
   6   0.00000   0.86105   3.27338
   6   0.00000  -0.53548   3.34184
   6   0.00000  -1.38788   2.15426
   6   0.00000  -2.79535   1.83282
   6   0.00000  -3.30336   0.49851
   6   0.00000  -2.46673  -0.67986
   6   0.00000  -2.60880  -2.12720
   6   0.00000  -1.51032  -3.00835
   6   0.00000  -0.12445  -2.55922
   6   0.00000  -0.05722  -1.19575
   6   0.00000   1.10139  -0.43323
   6   0.00000   0.73133   0.93839
   6   0.00000  -0.63751   1.00632
   6   0.00000  -1.13901  -0.31964
   6   0.00000   2.38731  -0.92254
   6   0.00000   2.38897  -2.37813
   6   0.00000   1.21132  -3.14523
   6   0.00000   3.33384   0.16744
   6   0.00000   2.95898   1.54822
   1   0.00000   1.40680   4.20982
   1   0.00000  -0.98648   4.32749
   1   0.00000  -3.53417   2.62624
   1   0.00000  -4.38312   0.39672
   1   0.00000  -3.59733  -2.57195
   1   0.00000  -1.73383  -4.06926
   1   0.00000   3.33019  -2.91619
   1   0.00000   1.32711  -4.22312
   1   0.00000   4.39858  -0.03824
   1   0.00000   3.77374   2.26398
 read in order, maxerr=  8.58 for atom  27
 loop 1 4
 mod cartes coords mol 2
   6   0.00000  -1.59193  -2.00795
   6   0.00000  -0.86105  -3.27338
   6   0.00000   0.53548  -3.34184
   6   0.00000   1.38788  -2.15426
   6   0.00000   2.79535  -1.83282
   6   0.00000   3.30336  -0.49851
   6   0.00000   2.46673   0.67986
   6   0.00000   2.60880   2.12720
   6   0.00000   1.51032   3.00835
   6   0.00000   0.12445   2.55922
   6   0.00000   0.05722   1.19575
   6   0.00000  -1.10139   0.43323
   6   0.00000  -0.73133  -0.93839
   6   0.00000   0.63751  -1.00632
   6   0.00000   1.13901   0.31964
   6   0.00000  -2.38731   0.92254
   6   0.00000  -2.38897   2.37813
   6   0.00000  -1.21132   3.14523
   6   0.00000  -3.33384  -0.16744
   6   0.00000  -2.95898  -1.54822
   1   0.00000  -1.40680  -4.20982
   1   0.00000   0.98648  -4.32749
   1   0.00000   3.53417  -2.62624
   1   0.00000   4.38312  -0.39672
   1   0.00000   3.59733   2.57195
   1   0.00000   1.73383   4.06926
   1   0.00000  -3.33019   2.91619
   1   0.00000  -1.32711   4.22312
   1   0.00000  -4.39858   0.03824
   1   0.00000  -3.77374  -2.26398
 read in order, maxerr=  8.84 for atom  25
 loop 1 5
 mod cartes coords mol 2
   6   0.00000  -1.59193  -2.00795
   6   0.00000  -0.86105  -3.27338
   6   0.00000   0.53548  -3.34184
   6   0.00000   1.38788  -2.15426
   6   0.00000   2.79535  -1.83282
   6   0.00000   3.30336  -0.49851
   6   0.00000   2.46673   0.67986
   6   0.00000   2.60880   2.12720
   6   0.00000   1.51032   3.00835
   6   0.00000   0.12445   2.55922
   6   0.00000   0.05722   1.19575
   6   0.00000  -1.10139   0.43323
   6   0.00000  -0.73133  -0.93839
   6   0.00000   0.63751  -1.00632
   6   0.00000   1.13901   0.31964
   6   0.00000  -2.38731   0.92254
   6   0.00000  -2.38897   2.37813
   6   0.00000  -1.21132   3.14523
   6   0.00000  -3.33384  -0.16744
   6   0.00000  -2.95898  -1.54822
   1   0.00000  -1.40680  -4.20982
   1   0.00000   0.98648  -4.32749
   1   0.00000   3.53417  -2.62624
   1   0.00000   4.38312  -0.39672
   1   0.00000   3.59733   2.57195
   1   0.00000   1.73383   4.06926
   1   0.00000  -3.33019   2.91619
   1   0.00000  -1.32711   4.22312
   1   0.00000  -4.39858   0.03824
   1   0.00000  -3.77374  -2.26398
 read in order, maxerr=  8.84 for atom  25
 loop 1 6
 mod cartes coords mol 2
   6   0.00000   1.59193  -2.00795
   6   0.00000   0.86105  -3.27338
   6   0.00000  -0.53548  -3.34184
   6   0.00000  -1.38788  -2.15426
   6   0.00000  -2.79535  -1.83282
   6   0.00000  -3.30336  -0.49851
   6   0.00000  -2.46673   0.67986
   6   0.00000  -2.60880   2.12720
   6   0.00000  -1.51032   3.00835
   6   0.00000  -0.12445   2.55922
   6   0.00000  -0.05722   1.19575
   6   0.00000   1.10139   0.43323
   6   0.00000   0.73133  -0.93839
   6   0.00000  -0.63751  -1.00632
   6   0.00000  -1.13901   0.31964
   6   0.00000   2.38731   0.92254
   6   0.00000   2.38897   2.37813
   6   0.00000   1.21132   3.14523
   6   0.00000   3.33384  -0.16744
   6   0.00000   2.95898  -1.54822
   1   0.00000   1.40680  -4.20982
   1   0.00000  -0.98648  -4.32749
   1   0.00000  -3.53417  -2.62624
   1   0.00000  -4.38312  -0.39672
   1   0.00000  -3.59733   2.57195
   1   0.00000  -1.73383   4.06926
   1   0.00000   3.33019   2.91619
   1   0.00000   1.32711   4.22312
   1   0.00000   4.39858   0.03824
   1   0.00000   3.77374  -2.26398
 read in order, maxerr=  5.05 for atom  21
 loop 1 7
 mod cartes coords mol 2
   6   0.00000   1.59193  -2.00795
   6   0.00000   0.86105  -3.27338
   6   0.00000  -0.53548  -3.34184
   6   0.00000  -1.38788  -2.15426
   6   0.00000  -2.79535  -1.83282
   6   0.00000  -3.30336  -0.49851
   6   0.00000  -2.46673   0.67986
   6   0.00000  -2.60880   2.12720
   6   0.00000  -1.51032   3.00835
   6   0.00000  -0.12445   2.55922
   6   0.00000  -0.05722   1.19575
   6   0.00000   1.10139   0.43323
   6   0.00000   0.73133  -0.93839
   6   0.00000  -0.63751  -1.00632
   6   0.00000  -1.13901   0.31964
   6   0.00000   2.38731   0.92254
   6   0.00000   2.38897   2.37813
   6   0.00000   1.21132   3.14523
   6   0.00000   3.33384  -0.16744
   6   0.00000   2.95898  -1.54822
   1   0.00000   1.40680  -4.20982
   1   0.00000  -0.98648  -4.32749
   1   0.00000  -3.53417  -2.62624
   1   0.00000  -4.38312  -0.39672
   1   0.00000  -3.59733   2.57195
   1   0.00000  -1.73383   4.06926
   1   0.00000   3.33019   2.91619
   1   0.00000   1.32711   4.22312
   1   0.00000   4.39858   0.03824
   1   0.00000   3.77374  -2.26398
 read in order, maxerr=  5.05 for atom  21
 loop 2 0
 mod cartes coords mol 2
   6   0.00000   2.00795  -1.59193
   6   0.00000   3.27338  -0.86105
   6   0.00000   3.34184   0.53548
   6   0.00000   2.15426   1.38788
   6   0.00000   1.83282   2.79535
   6   0.00000   0.49851   3.30336
   6   0.00000  -0.67986   2.46673
   6   0.00000  -2.12720   2.60880
   6   0.00000  -3.00835   1.51032
   6   0.00000  -2.55922   0.12445
   6   0.00000  -1.19575   0.05722
   6   0.00000  -0.43323  -1.10139
   6   0.00000   0.93839  -0.73133
   6   0.00000   1.00632   0.63751
   6   0.00000  -0.31964   1.13901
   6   0.00000  -0.92254  -2.38731
   6   0.00000  -2.37813  -2.38897
   6   0.00000  -3.14523  -1.21132
   6   0.00000   0.16744  -3.33384
   6   0.00000   1.54822  -2.95898
   1   0.00000   4.20982  -1.40680
   1   0.00000   4.32749   0.98648
   1   0.00000   2.62624   3.53417
   1   0.00000   0.39672   4.38312
   1   0.00000  -2.57195   3.59733
   1   0.00000  -4.06926   1.73383
   1   0.00000  -2.91619  -3.33019
   1   0.00000  -4.22312  -1.32711
   1   0.00000  -0.03824  -4.39858
   1   0.00000   2.26398  -3.77374
 read in order, maxerr=  8.79 for atom  24
 loop 2 1
 mod cartes coords mol 2
   6   0.00000   2.00795  -1.59193
   6   0.00000   3.27338  -0.86105
   6   0.00000   3.34184   0.53548
   6   0.00000   2.15426   1.38788
   6   0.00000   1.83282   2.79535
   6   0.00000   0.49851   3.30336
   6   0.00000  -0.67986   2.46673
   6   0.00000  -2.12720   2.60880
   6   0.00000  -3.00835   1.51032
   6   0.00000  -2.55922   0.12445
   6   0.00000  -1.19575   0.05722
   6   0.00000  -0.43323  -1.10139
   6   0.00000   0.93839  -0.73133
   6   0.00000   1.00632   0.63751
   6   0.00000  -0.31964   1.13901
   6   0.00000  -0.92254  -2.38731
   6   0.00000  -2.37813  -2.38897
   6   0.00000  -3.14523  -1.21132
   6   0.00000   0.16744  -3.33384
   6   0.00000   1.54822  -2.95898
   1   0.00000   4.20982  -1.40680
   1   0.00000   4.32749   0.98648
   1   0.00000   2.62624   3.53417
   1   0.00000   0.39672   4.38312
   1   0.00000  -2.57195   3.59733
   1   0.00000  -4.06926   1.73383
   1   0.00000  -2.91619  -3.33019
   1   0.00000  -4.22312  -1.32711
   1   0.00000  -0.03824  -4.39858
   1   0.00000   2.26398  -3.77374
 read in order, maxerr=  8.79 for atom  24
 loop 2 2
 mod cartes coords mol 2
   6   0.00000   2.00795   1.59193
   6   0.00000   3.27338   0.86105
   6   0.00000   3.34184  -0.53548
   6   0.00000   2.15426  -1.38788
   6   0.00000   1.83282  -2.79535
   6   0.00000   0.49851  -3.30336
   6   0.00000  -0.67986  -2.46673
   6   0.00000  -2.12720  -2.60880
   6   0.00000  -3.00835  -1.51032
   6   0.00000  -2.55922  -0.12445
   6   0.00000  -1.19575  -0.05722
   6   0.00000  -0.43323   1.10139
   6   0.00000   0.93839   0.73133
   6   0.00000   1.00632  -0.63751
   6   0.00000  -0.31964  -1.13901
   6   0.00000  -0.92254   2.38731
   6   0.00000  -2.37813   2.38897
   6   0.00000  -3.14523   1.21132
   6   0.00000   0.16744   3.33384
   6   0.00000   1.54822   2.95898
   1   0.00000   4.20982   1.40680
   1   0.00000   4.32749  -0.98648
   1   0.00000   2.62624  -3.53417
   1   0.00000   0.39672  -4.38312
   1   0.00000  -2.57195  -3.59733
   1   0.00000  -4.06926  -1.73383
   1   0.00000  -2.91619   3.33019
   1   0.00000  -4.22312   1.32711
   1   0.00000  -0.03824   4.39858
   1   0.00000   2.26398   3.77374
 read in order, maxerr=  1.58 for atom  27
 loop 2 3
 mod cartes coords mol 2
   6   0.00000   2.00795   1.59193
   6   0.00000   3.27338   0.86105
   6   0.00000   3.34184  -0.53548
   6   0.00000   2.15426  -1.38788
   6   0.00000   1.83282  -2.79535
   6   0.00000   0.49851  -3.30336
   6   0.00000  -0.67986  -2.46673
   6   0.00000  -2.12720  -2.60880
   6   0.00000  -3.00835  -1.51032
   6   0.00000  -2.55922  -0.12445
   6   0.00000  -1.19575  -0.05722
   6   0.00000  -0.43323   1.10139
   6   0.00000   0.93839   0.73133
   6   0.00000   1.00632  -0.63751
   6   0.00000  -0.31964  -1.13901
   6   0.00000  -0.92254   2.38731
   6   0.00000  -2.37813   2.38897
   6   0.00000  -3.14523   1.21132
   6   0.00000   0.16744   3.33384
   6   0.00000   1.54822   2.95898
   1   0.00000   4.20982   1.40680
   1   0.00000   4.32749  -0.98648
   1   0.00000   2.62624  -3.53417
   1   0.00000   0.39672  -4.38312
   1   0.00000  -2.57195  -3.59733
   1   0.00000  -4.06926  -1.73383
   1   0.00000  -2.91619   3.33019
   1   0.00000  -4.22312   1.32711
   1   0.00000  -0.03824   4.39858
   1   0.00000   2.26398   3.77374
 read in order, maxerr=  1.58 for atom  27
 loop 2 4
 mod cartes coords mol 2
   6   0.00000  -2.00795  -1.59193
   6   0.00000  -3.27338  -0.86105
   6   0.00000  -3.34184   0.53548
   6   0.00000  -2.15426   1.38788
   6   0.00000  -1.83282   2.79535
   6   0.00000  -0.49851   3.30336
   6   0.00000   0.67986   2.46673
   6   0.00000   2.12720   2.60880
   6   0.00000   3.00835   1.51032
   6   0.00000   2.55922   0.12445
   6   0.00000   1.19575   0.05722
   6   0.00000   0.43323  -1.10139
   6   0.00000  -0.93839  -0.73133
   6   0.00000  -1.00632   0.63751
   6   0.00000   0.31964   1.13901
   6   0.00000   0.92254  -2.38731
   6   0.00000   2.37813  -2.38897
   6   0.00000   3.14523  -1.21132
   6   0.00000  -0.16744  -3.33384
   6   0.00000  -1.54822  -2.95898
   1   0.00000  -4.20982  -1.40680
   1   0.00000  -4.32749   0.98648
   1   0.00000  -2.62624   3.53417
   1   0.00000  -0.39672   4.38312
   1   0.00000   2.57195   3.59733
   1   0.00000   4.06926   1.73383
   1   0.00000   2.91619  -3.33019
   1   0.00000   4.22312  -1.32711
   1   0.00000   0.03824  -4.39858
   1   0.00000  -2.26398  -3.77374
 read in order, maxerr=  8.72 for atom  21
 loop 2 5
 mod cartes coords mol 2
   6   0.00000  -2.00795  -1.59193
   6   0.00000  -3.27338  -0.86105
   6   0.00000  -3.34184   0.53548
   6   0.00000  -2.15426   1.38788
   6   0.00000  -1.83282   2.79535
   6   0.00000  -0.49851   3.30336
   6   0.00000   0.67986   2.46673
   6   0.00000   2.12720   2.60880
   6   0.00000   3.00835   1.51032
   6   0.00000   2.55922   0.12445
   6   0.00000   1.19575   0.05722
   6   0.00000   0.43323  -1.10139
   6   0.00000  -0.93839  -0.73133
   6   0.00000  -1.00632   0.63751
   6   0.00000   0.31964   1.13901
   6   0.00000   0.92254  -2.38731
   6   0.00000   2.37813  -2.38897
   6   0.00000   3.14523  -1.21132
   6   0.00000  -0.16744  -3.33384
   6   0.00000  -1.54822  -2.95898
   1   0.00000  -4.20982  -1.40680
   1   0.00000  -4.32749   0.98648
   1   0.00000  -2.62624   3.53417
   1   0.00000  -0.39672   4.38312
   1   0.00000   2.57195   3.59733
   1   0.00000   4.06926   1.73383
   1   0.00000   2.91619  -3.33019
   1   0.00000   4.22312  -1.32711
   1   0.00000   0.03824  -4.39858
   1   0.00000  -2.26398  -3.77374
 read in order, maxerr=  8.72 for atom  21
 loop 2 6
 mod cartes coords mol 2
   6   0.00000  -2.00795   1.59193
   6   0.00000  -3.27338   0.86105
   6   0.00000  -3.34184  -0.53548
   6   0.00000  -2.15426  -1.38788
   6   0.00000  -1.83282  -2.79535
   6   0.00000  -0.49851  -3.30336
   6   0.00000   0.67986  -2.46673
   6   0.00000   2.12720  -2.60880
   6   0.00000   3.00835  -1.51032
   6   0.00000   2.55922  -0.12445
   6   0.00000   1.19575  -0.05722
   6   0.00000   0.43323   1.10139
   6   0.00000  -0.93839   0.73133
   6   0.00000  -1.00632  -0.63751
   6   0.00000   0.31964  -1.13901
   6   0.00000   0.92254   2.38731
   6   0.00000   2.37813   2.38897
   6   0.00000   3.14523   1.21132
   6   0.00000  -0.16744   3.33384
   6   0.00000  -1.54822   2.95898
   1   0.00000  -4.20982   1.40680
   1   0.00000  -4.32749  -0.98648
   1   0.00000  -2.62624  -3.53417
   1   0.00000  -0.39672  -4.38312
   1   0.00000   2.57195  -3.59733
   1   0.00000   4.06926  -1.73383
   1   0.00000   2.91619   3.33019
   1   0.00000   4.22312   1.32711
   1   0.00000   0.03824   4.39858
   1   0.00000  -2.26398   3.77374
 read in order, maxerr=  8.77 for atom  21
 loop 2 7
 mod cartes coords mol 2
   6   0.00000  -2.00795   1.59193
   6   0.00000  -3.27338   0.86105
   6   0.00000  -3.34184  -0.53548
   6   0.00000  -2.15426  -1.38788
   6   0.00000  -1.83282  -2.79535
   6   0.00000  -0.49851  -3.30336
   6   0.00000   0.67986  -2.46673
   6   0.00000   2.12720  -2.60880
   6   0.00000   3.00835  -1.51032
   6   0.00000   2.55922  -0.12445
   6   0.00000   1.19575  -0.05722
   6   0.00000   0.43323   1.10139
   6   0.00000  -0.93839   0.73133
   6   0.00000  -1.00632  -0.63751
   6   0.00000   0.31964  -1.13901
   6   0.00000   0.92254   2.38731
   6   0.00000   2.37813   2.38897
   6   0.00000   3.14523   1.21132
   6   0.00000  -0.16744   3.33384
   6   0.00000  -1.54822   2.95898
   1   0.00000  -4.20982   1.40680
   1   0.00000  -4.32749  -0.98648
   1   0.00000  -2.62624  -3.53417
   1   0.00000  -0.39672  -4.38312
   1   0.00000   2.57195  -3.59733
   1   0.00000   4.06926  -1.73383
   1   0.00000   2.91619   3.33019
   1   0.00000   4.22312   1.32711
   1   0.00000   0.03824   4.39858
   1   0.00000  -2.26398   3.77374
 read in order, maxerr=  8.77 for atom  21
 loop 3 0
 mod cartes coords mol 2
   6  -1.59193   0.00000   2.00795
   6  -0.86105   0.00000   3.27338
   6   0.53548   0.00000   3.34184
   6   1.38788   0.00000   2.15426
   6   2.79535   0.00000   1.83282
   6   3.30336   0.00000   0.49851
   6   2.46673   0.00000  -0.67986
   6   2.60880   0.00000  -2.12720
   6   1.51032   0.00000  -3.00835
   6   0.12445   0.00000  -2.55922
   6   0.05722   0.00000  -1.19575
   6  -1.10139   0.00000  -0.43323
   6  -0.73133   0.00000   0.93839
   6   0.63751   0.00000   1.00632
   6   1.13901   0.00000  -0.31964
   6  -2.38731   0.00000  -0.92254
   6  -2.38897   0.00000  -2.37813
   6  -1.21132   0.00000  -3.14523
   6  -3.33384   0.00000   0.16744
   6  -2.95898   0.00000   1.54822
   1  -1.40680   0.00000   4.20982
   1   0.98648   0.00000   4.32749
   1   3.53417   0.00000   2.62624
   1   4.38312   0.00000   0.39672
   1   3.59733   0.00000  -2.57195
   1   1.73383   0.00000  -4.06926
   1  -3.33019   0.00000  -2.91619
   1  -1.32711   0.00000  -4.22312
   1  -4.39858   0.00000  -0.03824
   1  -3.77374   0.00000   2.26398
 read in order, maxerr=  7.95 for atom  27
 loop 3 1
 mod cartes coords mol 2
   6  -1.59193   0.00000   2.00795
   6  -0.86105   0.00000   3.27338
   6   0.53548   0.00000   3.34184
   6   1.38788   0.00000   2.15426
   6   2.79535   0.00000   1.83282
   6   3.30336   0.00000   0.49851
   6   2.46673   0.00000  -0.67986
   6   2.60880   0.00000  -2.12720
   6   1.51032   0.00000  -3.00835
   6   0.12445   0.00000  -2.55922
   6   0.05722   0.00000  -1.19575
   6  -1.10139   0.00000  -0.43323
   6  -0.73133   0.00000   0.93839
   6   0.63751   0.00000   1.00632
   6   1.13901   0.00000  -0.31964
   6  -2.38731   0.00000  -0.92254
   6  -2.38897   0.00000  -2.37813
[...]
  41 A'    869.  0.9487    90.0    99.6  39 A'    862.
  42 A'    869.  0.9808    96.2    99.4  40 A'    863.
  43 A'    954.  0.9965    99.3    99.4  44 A'    955.
  44 A"    958.  0.9774    95.5    99.8  45 A"    981.
  45 A"    963.  0.9374    87.9    99.4  46 A"    987.
  46 A"    963. -0.9434    89.0   100.3  47 A"    989.
  47 A"    970. -0.6622    43.8    99.9  48 A"    998.
                -0.6786    46.0          49 A"    998.
  48 A"    970. -0.6745    45.5    99.9  48 A"    998.
                 0.6606    43.6          49 A"    998.
  49 A'   1034. -0.9071    82.3   100.6  50 A'   1028.
                 0.3608    13.0          52 A'   1082.
  50 A'   1093. -0.3903    15.2    99.9  43 A'    916.
                 0.5273    27.8          51 A'   1070.
                 0.4222    17.8          53 A'   1103.
                 0.4394    19.3          59 A'   1208.
  51 A'   1093.  0.8827    77.9    99.9  53 A'   1103.
  52 A'   1140.  0.6165    38.0    99.8  52 A'   1082.
                -0.5926    35.1          55 A'   1157.
  53 A'   1140. -0.3418    11.7    99.9  43 A'    916.
                -0.3503    12.3          51 A'   1070.
                 0.5763    33.2          54 A'   1148.
                 0.3403    11.6          56 A'   1163.
  54 A'   1159.  0.6650    44.2   100.2  56 A'   1163.
                 0.4096    16.8          58 A'   1196.
  55 A'   1159. -0.3883    15.1   100.2  52 A'   1082.
                -0.5482    30.1          55 A'   1157.
                 0.4907    24.1          57 A'   1170.
  56 A'   1161. -0.3748    14.0   100.1  51 A'   1070.
                -0.6006    36.1          54 A'   1148.
                 0.5225    27.3          56 A'   1163.
  57 A'   1161. -0.4155    17.3   100.0  55 A'   1157.
                -0.7612    57.9          57 A'   1170.
  58 A'   1201. -0.7316    53.5   100.2  58 A'   1196.
                -0.3755    14.1          59 A'   1208.
                 0.3571    12.7          60 A'   1218.
                 0.3185    10.1          63 A'   1286.
  59 A'   1201. -0.8548    73.1   100.1  60 A'   1218.
  60 A'   1231. -0.9940    98.8   100.0  62 A'   1248.
  61 A'   1240. -0.9726    94.6   100.2  61 A'   1246.
  62 A'   1320. -0.7023    49.3   100.1  63 A'   1286.
                 0.4014    16.1          64 A'   1294.
                -0.3838    14.7          65 A'   1339.
  63 A'   1320.  0.4005    16.0    99.8  63 A'   1286.
                 0.7002    49.0          64 A'   1294.
                 0.4403    19.4          66 A'   1350.
  64 A'   1366. -0.7260    52.7   100.3  65 A'   1339.
                 0.4594    21.1          67 A'   1411.
  65 A'   1366.  0.3707    13.7   100.3  64 A'   1294.
                -0.7844    61.5          66 A'   1350.
  66 A'   1411. -0.4310    18.6    99.8  67 A'   1411.
                -0.8470    71.7          69 A'   1421.
  67 A'   1411. -0.9492    90.1    99.8  68 A'   1418.
  68 A'   1433.  0.3371    11.4   100.4  65 A'   1339.
                 0.5837    34.1          67 A'   1411.
                -0.3406    11.6          69 A'   1421.
                 0.3761    14.1          70 A'   1437.
                -0.3828    14.7          71 A'   1441.
  69 A'   1433. -0.4570    20.9   100.1  67 A'   1411.
                 0.4810    23.1          70 A'   1437.
                -0.5409    29.3          71 A'   1441.
  70 A'   1449. -0.7440    55.4   100.3  70 A'   1437.
                -0.6477    41.9          71 A'   1441.
  71 A'   1450.  0.8666    75.1   100.0  72 A'   1459.
                 0.4279    18.3          73 A'   1472.
  72 A'   1450.  0.4208    17.7    99.7  72 A'   1459.
                -0.8828    77.9          73 A'   1472.
  73 A'   1480. -0.9873    97.5    99.8  74 A'   1498.
  74 A'   1518. -0.4113    16.9    99.9  43 A'    916.
                -0.4349    18.9          59 A'   1208.
                 0.6665    44.4          75 A'   1514.
  75 A'   1518. -0.3988    15.9    99.9  43 A'    916.
                -0.4178    17.5          59 A'   1208.
                -0.6877    47.3          75 A'   1514.
  76 A'   1718. -0.7447    55.5   100.5  76 A'   1627.
                 0.5642    31.8          78 A'   1682.
  77 A'   1719.  0.3219    10.4    99.6  77 A'   1654.
                 0.5397    29.1          79 A'   1710.
                 0.6707    45.0          80 A'   1729.
  78 A'   1721.  0.8646    74.7   100.0  77 A'   1654.
                -0.4455    19.8          80 A'   1729.
  79 A'   1721. -0.5840    34.1   100.1  76 A'   1627.
                -0.7750    60.1          78 A'   1682.
  80 A'   1741. -0.7888    62.2   100.2  79 A'   1710.
                 0.5453    29.7          80 A'   1729.
  81 A'   3154.  0.3395    11.5   100.0  81 A'   3180.
                -0.4434    19.7          82 A'   3180.
                -0.5618    31.6          83 A'   3181.
                -0.4126    17.0          84 A'   3181.
                -0.4438    19.7          85 A'   3183.
  82 A'   3154. -0.6115    37.4   100.0  83 A'   3181.
                 0.7126    50.8          85 A'   3183.
  83 A'   3154. -0.4442    19.7   100.0  82 A'   3180.
                 0.4885    23.9          83 A'   3181.
                -0.6572    43.2          84 A'   3181.
  84 A'   3154.  0.7353    54.1   100.0  82 A'   3180.
                -0.5773    33.3          84 A'   3181.
                -0.3164    10.0          85 A'   3183.
  85 A'   3155. -0.9094    82.7   100.0  81 A'   3180.
                -0.3333    11.1          85 A'   3183.
  86 A'   3171. -0.5538    30.7   100.0  87 A'   3194.
                -0.5390    29.0          88 A'   3194.
                 0.5527    30.6          89 A'   3195.
  87 A'   3171.  0.4473    20.0   100.0  86 A'   3193.
                 0.3640    13.2          87 A'   3194.
                -0.4965    24.6          88 A'   3194.
                 0.6370    40.6          90 A'   3196.
  88 A'   3172. -0.5468    29.9   100.0  88 A'   3194.
                -0.5256    27.6          89 A'   3195.
                -0.5713    32.6          90 A'   3196.
  89 A'   3172. -0.6999    49.0   100.0  86 A'   3193.
                 0.5017    25.2          87 A'   3194.
                 0.4529    20.5          89 A'   3195.
  90 A'   3173. -0.5365    28.8   100.0  86 A'   3193.
                -0.4455    19.8          87 A'   3194.
                -0.3425    11.7          88 A'   3194.
                -0.4474    20.0          89 A'   3195.
                 0.4376    19.2          90 A'   3196.
 nber times 1st assigned=           1           0
 nber times 1st assigned=           2           0
 nber times 1st assigned=           3           0
 nber times 1st assigned=           4           0
 nber times 1st assigned=           5           0
 nber times 1st assigned=           6           0
 nber times 1st assigned=           7           0
 nber times 1st assigned=           8           0
 nber times 1st assigned=           9           0
 nber times 1st assigned=          10           0
 nber times 1st assigned=          11           0
 nber times 1st assigned=          12           0
 nber times 1st assigned=          13           0
 nber times 1st assigned=          14           0
 nber times 1st assigned=          15           0
 nber times 1st assigned=          16           0
 nber times 1st assigned=          17           0
 nber times 1st assigned=          18           0
 nber times 1st assigned=          19           0
 nber times 1st assigned=          20           0
 nber times 1st assigned=          21           0
 nber times 1st assigned=          22           0
 nber times 1st assigned=          23           0
 nber times 1st assigned=          24           0
 nber times 1st assigned=          25           0
 nber times 1st assigned=          26           0
 nber times 1st assigned=          27           0
 nber times 1st assigned=          28           0
 nber times 1st assigned=          29           0
 nber times 1st assigned=          30           0
 nber times 1st assigned=          31           0
 nber times 1st assigned=          32           0
 nber times 1st assigned=          33           0
 nber times 1st assigned=          34           0
 nber times 1st assigned=          35           0
 nber times 1st assigned=          36           0
 nber times 1st assigned=          37           0
 nber times 1st assigned=          38           0
 nber times 1st assigned=          39           0
 nber times 1st assigned=          40           0
 nber times 1st assigned=          41           0
 nber times 1st assigned=          42           0
 nber times 1st assigned=          43           0
 nber times 1st assigned=          44           0
 nber times 1st assigned=          45           0
 nber times 1st assigned=          46           0
 nber times 1st assigned=          47           0
 nber times 1st assigned=          48           0
 nber times 1st assigned=          49           0
 nber times 1st assigned=          50           0
 nber times 1st assigned=          51           0
 nber times 1st assigned=          52           0
 nber times 1st assigned=          53           0
 nber times 1st assigned=          54           0
 nber times 1st assigned=          55           0
 nber times 1st assigned=          56           0
 nber times 1st assigned=          57           0
 nber times 1st assigned=          58           0
 nber times 1st assigned=          59           0
 nber times 1st assigned=          60           0
 nber times 1st assigned=          61           0
 nber times 1st assigned=          62           0
 nber times 1st assigned=          63           0
 nber times 1st assigned=          64           0
 nber times 1st assigned=          65           0
 nber times 1st assigned=          66           0
 nber times 1st assigned=          67           0
 nber times 1st assigned=          68           0
 nber times 1st assigned=          69           0
 nber times 1st assigned=          70           0
 nber times 1st assigned=          71           0
 nber times 1st assigned=          72           0
 nber times 1st assigned=          73           0
 nber times 1st assigned=          74           0
 nber times 1st assigned=          75           0
 nber times 1st assigned=          76           0
 nber times 1st assigned=          77           0
 nber times 1st assigned=          78           0
 nber times 1st assigned=          79           0
 nber times 1st assigned=          80           0
 nber times 1st assigned=          81           0
 nber times 1st assigned=          82           0
 nber times 1st assigned=          83           0
 nber times 1st assigned=          84           0
 nber times 1st assigned=          85           0
 nber times 1st assigned=          86           0
 nber times 1st assigned=          87           0
 nber times 1st assigned=          88           0
 nber times 1st assigned=          89           0
 nber times 1st assigned=          90           0
 modes represented=   84.0872339398791     
 p1=
    0.   -0.    0.    0.   -0.   -0.   -0.   -0.    0.    0.    0.   -0.    0.   -0.    0.   -7.   -8.    0.    0.    0.
    1.   -0.   -1.    1.   -2.   -3.   -0.   -0.   -0.   -0.   -0.    0.   -0.   -0.    0.    0.    0.   -0.   -0.    0.
   -0.   -0.    0.    0.    0.   -0.    0.    0.   -2.   -1.   -1.   -1.    0.    1.    1.    0.    0.   -0.    0.   -0.
   -3.   -0.   -0.   -0.   -1.    0.   -0.   -0.   -0.   -2.   -0.    0.    0.    3.   -3.   -0.    0.    1.    0.   -0.
    0.   -0.    0.   -0.    0.    0.   -0.    0.    0.   -0.
 p2=
   -0.   -0.   -0.    0.   -0.    0.   -0.   -0.    0.   -0.    0.    0.    0.    0.    1.   -3.  -10.    0.    0.    0.
    0.   -1.   -0.    0.   -0.    0.    0.    4.    0.   -0.    0.    0.    0.    0.   -0.    0.   -0.   -0.   -0.    0.
   -0.    0.   -0.   -0.   -0.   -0.   -0.    0.    0.   -1.   -1.    2.    2.    0.   -1.    0.   -0.    0.    0.   -0.
   -4.    0.    0.    0.   -0.   -0.    0.   -0.   -0.   -2.   -1.   -0.    0.   -0.   -3.    0.   -1.   -0.   -1.    0.
   -0.   -0.    0.    0.   -0.   -0.   -0.   -0.   -0.    0.

 Displacement: in terms of nc of 1 THEN of nc of 2

   1 A"  freq=  -115. Q=  0.000 lam=    -0.0 A"  freq=  -111. Q=  0.000 lam=    -0.0
   2 A'  freq=    -0. Q= -0.000 lam=    -0.0 A'  freq=   -44. Q= -0.000 lam=    -0.0
   3 A"  freq=    -0. Q=  0.000 lam=    -0.0 A'  freq=    -0. Q=  0.000 lam=    -0.0
   4 A"  freq=     0. Q=  0.000 lam=     0.0 A"  freq=     0. Q=  0.000 lam=     0.0
   5 A"  freq=     0. Q= -0.000 lam=     0.0 A"  freq=     0. Q= -0.000 lam=     0.0
   6 A'  freq=     0. Q= -0.000 lam=     0.0 A"  freq=     0. Q= -0.000 lam=     0.0
   7 A'  freq=     0. Q= -0.000 lam=     0.0 A'  freq=     0. Q= -0.000 lam=     0.0
   8 A"  freq=   156. Q= -0.000 lam=     0.0 A'  freq=     0. Q= -0.000 lam=     0.0
   9 A"  freq=   156. Q=  0.000 lam=     0.0 A"  freq=   151. Q=  0.000 lam=     0.0
  10 A"  freq=   286. Q=  0.000 lam=     0.0 A"  freq=   151. Q=  0.000 lam=     0.0
  11 A"  freq=   286. Q=  0.000 lam=     0.0 A"  freq=   256. Q=  0.000 lam=     0.0
  12 A"  freq=   305. Q= -0.000 lam=     0.0 A"  freq=   270. Q= -0.000 lam=     0.0
  13 A"  freq=   305. Q=  0.000 lam=     0.0 A"  freq=   297. Q=  0.000 lam=     0.0
  14 A'  freq=   389. Q= -0.027 lam=     0.1 A"  freq=   299. Q= -0.000 lam=     0.0
  15 A'  freq=   389. Q=  0.006 lam=     0.0 A'  freq=   385. Q=  0.108 lam=     2.3
  16 A'  freq=   434. Q= -0.574 lam=    71.4 A'  freq=   387. Q= -0.249 lam=    12.0
  17 A'  freq=   434. Q= -0.660 lam=    94.5 A'  freq=   410. Q= -0.804 lam=   132.3
  18 A"  freq=   453. Q=  0.000 lam=     0.0 A"  freq=   431. Q=  0.000 lam=     0.0
  19 A"  freq=   453. Q=  0.000 lam=     0.0 A"  freq=   450. Q=  0.000 lam=     0.0
  20 A"  freq=   553. Q=  0.000 lam=     0.0 A"  freq=   517. Q=  0.000 lam=     0.0
  21 A'  freq=   555. Q=  0.065 lam=     1.2 A"  freq=   525. Q=  0.000 lam=     0.0
  22 A"  freq=   558. Q= -0.000 lam=     0.0 A'  freq=   556. Q= -0.082 lam=     1.9
  23 A'  freq=   562. Q= -0.054 lam=     0.8 A'  freq=   559. Q= -0.001 lam=     0.0
  24 A'  freq=   562. Q=  0.072 lam=     1.4 A'  freq=   564. Q=  0.033 lam=     0.3
  25 A'  freq=   614. Q= -0.169 lam=     8.7 A'  freq=   566. Q= -0.003 lam=     0.0
  26 A'  freq=   614. Q= -0.333 lam=    34.0 A"  freq=   566. Q= -0.000 lam=     0.0
  27 A"  freq=   614. Q= -0.000 lam=     0.0 A"  freq=   567. Q= -0.000 lam=     0.0
  28 A"  freq=   614. Q= -0.000 lam=     0.0 A'  freq=   613. Q= -0.387 lam=    46.0
  29 A'  freq=   660. Q= -0.001 lam=     0.0 A"  freq=   653. Q= -0.000 lam=     0.0
  30 A"  freq=   676. Q= -0.000 lam=     0.0 A'  freq=   655. Q= -0.001 lam=     0.0
  31 A"  freq=   676. Q= -0.000 lam=     0.0 A"  freq=   677. Q= -0.000 lam=     0.0
  32 A'  freq=   751. Q=  0.048 lam=     0.9 A'  freq=   731. Q=  0.000 lam=     0.0
  33 A'  freq=   751. Q= -0.004 lam=     0.0 A'  freq=   738. Q= -0.001 lam=     0.0
  34 A"  freq=   770. Q= -0.000 lam=     0.0 A"  freq=   774. Q= -0.000 lam=     0.0
  35 A"  freq=   770. Q=  0.000 lam=     0.0 A"  freq=   775. Q=  0.000 lam=     0.0
  36 A"  freq=   830. Q=  0.000 lam=     0.0 A"  freq=   806. Q=  0.000 lam=     0.0
  37 A"  freq=   831. Q=  0.000 lam=     0.0 A"  freq=   806. Q=  0.000 lam=     0.0
  38 A"  freq=   839. Q= -0.000 lam=     0.0 A"  freq=   853. Q= -0.000 lam=     0.0
  39 A"  freq=   839. Q= -0.000 lam=     0.0 A'  freq=   862. Q= -0.001 lam=     0.0
  40 A"  freq=   848. Q=  0.000 lam=     0.0 A'  freq=   863. Q=  0.006 lam=     0.0
  41 A'  freq=   869. Q= -0.007 lam=     0.0 A"  freq=   871. Q= -0.000 lam=     0.0
  42 A'  freq=   869. Q= -0.024 lam=     0.2 A"  freq=   890. Q= -0.000 lam=     0.0
  43 A'  freq=   954. Q=  0.001 lam=     0.0 A'  freq=   916. Q=  0.001 lam=     0.0
  44 A"  freq=   958. Q=  0.000 lam=     0.0 A'  freq=   955. Q=  0.001 lam=     0.0
  45 A"  freq=   963. Q=  0.000 lam=     0.0 A"  freq=   981. Q=  0.000 lam=     0.0
  46 A"  freq=   963. Q= -0.000 lam=     0.0 A"  freq=   987. Q= -0.000 lam=     0.0
  47 A"  freq=   970. Q=  0.000 lam=     0.0 A"  freq=   989. Q=  0.000 lam=     0.0
  48 A"  freq=   970. Q=  0.000 lam=     0.0 A"  freq=   998. Q=  0.000 lam=     0.0
  49 A'  freq=  1034. Q= -0.248 lam=    31.9 A"  freq=   998. Q= -0.000 lam=     0.0
  50 A'  freq=  1093. Q= -0.084 lam=     3.9 A'  freq=  1028. Q= -0.177 lam=    16.1
  51 A'  freq=  1093. Q= -0.166 lam=    15.1 A'  freq=  1070. Q= -0.084 lam=     3.7
  52 A'  freq=  1140. Q= -0.169 lam=    16.2 A'  freq=  1082. Q= -0.288 lam=    44.9
  53 A'  freq=  1140. Q=  0.025 lam=     0.4 A'  freq=  1103. Q=  0.210 lam=    24.3
  54 A'  freq=  1159. Q=  0.076 lam=     3.4 A'  freq=  1148. Q=  0.032 lam=     0.6
  55 A'  freq=  1159. Q=  0.128 lam=     9.5 A'  freq=  1157. Q=  0.095 lam=     5.2
  56 A'  freq=  1161. Q=  0.003 lam=     0.0 A'  freq=  1163. Q=  0.009 lam=     0.1
  57 A'  freq=  1161. Q=  0.024 lam=     0.3 A'  freq=  1170. Q=  0.007 lam=     0.0
  58 A'  freq=  1201. Q= -0.004 lam=     0.0 A'  freq=  1196. Q= -0.003 lam=     0.0
  59 A'  freq=  1201. Q=  0.032 lam=     0.6 A'  freq=  1208. Q=  0.002 lam=     0.0
  60 A'  freq=  1231. Q= -0.001 lam=     0.0 A'  freq=  1218. Q= -0.001 lam=     0.0
  61 A'  freq=  1240. Q= -0.474 lam=   139.4 A'  freq=  1246. Q= -0.502 lam=   156.9
  62 A'  freq=  1320. Q= -0.011 lam=     0.1 A'  freq=  1248. Q= -0.012 lam=     0.1
  63 A'  freq=  1320. Q= -0.046 lam=     1.4 A'  freq=  1286. Q= -0.007 lam=     0.0
  64 A'  freq=  1366. Q= -0.058 lam=     2.3 A'  freq=  1294. Q= -0.026 lam=     0.4
  65 A'  freq=  1366. Q= -0.098 lam=     6.5 A'  freq=  1339. Q= -0.011 lam=     0.1
  66 A'  freq=  1411. Q=  0.015 lam=     0.1 A'  freq=  1350. Q=  0.064 lam=     2.8
  67 A'  freq=  1411. Q= -0.031 lam=     0.7 A'  freq=  1411. Q= -0.048 lam=     1.6
  68 A'  freq=  1433. Q= -0.012 lam=     0.1 A'  freq=  1418. Q= -0.076 lam=     4.1
  69 A'  freq=  1433. Q= -0.032 lam=     0.8 A'  freq=  1421. Q= -0.003 lam=     0.0
  70 A'  freq=  1449. Q= -0.330 lam=    78.8 A'  freq=  1437. Q= -0.251 lam=    45.4
  71 A'  freq=  1450. Q= -0.007 lam=     0.0 A'  freq=  1441. Q= -0.082 lam=     4.8
  72 A'  freq=  1450. Q=  0.008 lam=     0.0 A'  freq=  1459. Q=  0.010 lam=     0.1
  73 A'  freq=  1480. Q=  0.000 lam=     0.0 A'  freq=  1472. Q=  0.033 lam=     0.8
  74 A'  freq=  1518. Q=  0.426 lam=   138.1 A'  freq=  1498. Q=  0.002 lam=     0.0
  75 A'  freq=  1518. Q= -0.441 lam=   147.6 A'  freq=  1514. Q= -0.540 lam=   220.5
  76 A'  freq=  1718. Q= -0.006 lam=     0.0 A'  freq=  1627. Q= -0.027 lam=     0.6
  77 A'  freq=  1719. Q=  0.022 lam=     0.4 A'  freq=  1654. Q=  0.123 lam=    12.5
  78 A'  freq=  1721. Q=  0.111 lam=    10.5 A'  freq=  1682. Q=  0.010 lam=     0.1
  79 A'  freq=  1721. Q=  0.022 lam=     0.4 A'  freq=  1710. Q=  0.112 lam=    10.6
  80 A'  freq=  1741. Q= -0.057 lam=     2.8 A'  freq=  1729. Q= -0.028 lam=     0.7
  81 A'  freq=  3154. Q=  0.002 lam=     0.0 A'  freq=  3180. Q=  0.000 lam=     0.0
  82 A'  freq=  3154. Q= -0.000 lam=     0.0 A'  freq=  3180. Q= -0.001 lam=     0.0
  83 A'  freq=  3154. Q=  0.002 lam=     0.0 A'  freq=  3181. Q=  0.000 lam=     0.0
  84 A'  freq=  3154. Q= -0.000 lam=     0.0 A'  freq=  3181. Q= -0.001 lam=     0.0
  85 A'  freq=  3155. Q=  0.001 lam=     0.0 A'  freq=  3183. Q=  0.000 lam=     0.0
  86 A'  freq=  3171. Q=  0.000 lam=     0.0 A'  freq=  3193. Q=  0.015 lam=     0.3
  87 A'  freq=  3171. Q= -0.002 lam=     0.0 A'  freq=  3194. Q= -0.018 lam=     0.5
  88 A'  freq=  3172. Q=  0.001 lam=     0.0 A'  freq=  3194. Q=  0.014 lam=     0.3
  89 A'  freq=  3172. Q=  0.005 lam=     0.0 A'  freq=  3195. Q=  0.021 lam=     0.7
  90 A'  freq=  3173. Q= -0.041 lam=     2.7 A'  freq=  3196. Q= -0.020 lam=     0.6

 total reorg energy (cm**-1, kcal/mol)=      828.      754.      2.37      2.16
 Nber of molecules processed=           2
