 Enter ifcurve (0=recti, 1=orth curvi, 2=apprx curvi, -1 = skip
 And atom ordering flag, 0= never changes, 1= use the first order thenceforth,
  2= deduce it (does read on fail), 3= always read it
 Reading file: 
 ./IDT-A_3_C0S1.log                                                             
                                          
  Entering Gaussian System, Link 0=g16                                          
  
 Gaussian format, type: g94, g98, g03= F F F
  #P Geom=AllCheck Guess=TCheck SCRF=Check GenChk RB3LYP TD(FC,Read)/6-3    
 energy type= TD      
 Original G94 input coords:
  6  2.573465  2.325489 -0.181269
  6  3.187142  0.921507 -0.126088
  6  2.414752 -0.038567  0.786299
  7  3.396196  0.350901 -1.485726
  6  2.278526  0.093055 -2.298845
  8  1.143692  0.334742 -1.895292
  6  2.536986 -0.468611 -3.627757
  6  1.461392 -0.743688 -4.476478
  6  1.669747 -1.272871 -5.734285
  6  2.967691 -1.558581 -6.217861
  6  3.199207 -2.113469 -7.534228
  6  2.139510 -2.407187 -8.425868
  6  2.369919 -2.936467 -9.676003
  6  3.672968 -3.205236-10.115621
  6  3.867252 -3.769967-11.442649
  8  2.959657 -4.035277-12.220462
  7  5.220516 -4.011370-11.826618
  6  5.449449 -4.565205-13.127679
  6  6.275084 -3.903003-14.037606
  6  6.503167 -4.439457-15.295478
  6  5.901820 -5.651483-15.672481
  6  6.135004 -6.202651-16.964304
  6  6.335667 -6.669734-18.062746
  6  6.575732 -7.211995-19.353069
  6  5.951458 -8.404369-19.771658
  6  6.198518 -8.934173-21.033228
  6  7.067910 -8.297647-21.908641
  6  7.701982 -7.104086-21.518712
  6  8.611515 -6.404480-22.417235
  6  8.957734 -5.050833-22.401477
  6  9.861408 -4.717219-23.406698
  6 10.221917 -5.808837-24.208942
 16  9.444120 -7.272533-23.707162
  6 11.139681 -5.423222-25.214874
  6 11.776480 -6.166380-26.235058
  6 12.633876 -5.501223-27.073715
  6 12.865983 -4.093199-26.908061
  6 12.230973 -3.350033-25.891391
  6 11.373144 -4.014175-25.050080
  6 10.562521 -3.455831-23.874677
  6  9.548832 -2.388191-24.343408
  6 11.482724 -2.882638-22.773906
  6 13.791332 -3.707852-27.919366
 16 14.578594 -2.244612-28.415790
  6 15.387220 -3.113987-29.684017
  6 15.069559 -4.453949-29.722989
  6 14.153902 -4.795128-28.710681
  6 13.448355 -6.056645-28.248553
  6 14.457699 -7.127774-27.778742
  6 12.530232 -6.626391-29.352693
  6  7.449631 -6.574964-20.244438
  6  5.068879 -6.309655-14.752986
  6  4.849743 -5.771245-13.494069
  6  6.362776 -3.742670-11.014806
  8  7.483927 -3.981791-11.445920
  6  6.091054 -3.191980 -9.695645
  6  7.166158 -2.915450 -8.840528
  6  6.955745 -2.389305 -7.585661
  6  5.654548 -2.104394 -7.105788
  6  5.422794 -1.549576 -5.789778
  6  6.478445 -1.254642 -4.895755
  6  6.245193 -0.725171 -3.642699
  6  4.943626 -0.458850 -3.207906
  6  4.734021  0.103190 -1.871966
  8  5.662594  0.354049 -1.109622
  6  3.853750 -0.735717 -4.062851
  6  4.083408 -1.286049 -5.368130
  6  4.539169 -2.377837 -7.958160
  6  4.769282 -2.929013 -9.265553
  1  2.570083  2.757889  0.824092
  1  1.551557  2.298355 -0.557168
  1  3.169892  2.978095 -0.824543
  1  4.199734  1.012212  0.261534
  1  1.386121 -0.164839  0.451156
  1  2.409154  0.358402  1.806160
  1  2.901607 -1.017222  0.810530
  1  0.462315 -0.529716 -4.118252
  1  0.807981 -1.469703 -6.356461
  1  1.118235 -2.215917 -8.128569
  1  1.549924 -3.157758-10.347535
  1  6.748620 -2.976223-13.747111
  1  7.148761 -3.922961-15.995542
  1  5.273328 -8.905591-19.092805
  1  5.702803 -9.848169-21.337101
  1  7.230168 -8.707163-22.898621
  1  8.530031 -4.357579-21.691925
  1 11.586334 -7.228159-26.340540
  1 12.421377 -2.288384-25.785677
  1  8.891501 -2.777566-25.123295
  1 10.070717 -1.513272-24.737483
  1  8.930546 -2.059361-23.505386
  1 12.206365 -3.625152-22.432178
  1 10.890240 -2.560016-21.915135
  1 12.030111 -2.014391-23.147559
  1 16.060038 -2.577681-30.336157
  1 15.488038 -5.133623-30.452070
  1 15.111777 -6.741355-26.994738
  1 15.079878 -7.454325-28.615161
  1 13.933957 -8.003946-27.389575
  1 11.807792 -5.881886-29.692815
  1 11.981339 -7.496114-28.984237
  1 13.124707 -6.945668-30.211766
  1  7.952617 -5.675160-19.915772
  1  4.598143 -7.244471-15.032061
  1  4.200306 -6.275612-12.793060
  1  8.166754 -3.127955 -9.195401
  1  7.814450 -2.192997 -6.959503
  1  7.501320 -1.444483 -5.189278
  1  7.063017 -0.504287 -2.968509
 nber atoms=         109
  Total Energy, E(TD-HF/TD-DFT) =  -3556.12476479                               
  
          32          49 "  -3556.12476479"
After scan for Atom:   Atom  AN      X      Y      Z        X      Y      Z        X      Y      Z   
After scan for Atom:   Atom  AN      X      Y      Z        X      Y      Z        X      Y      Z   
After scan for Atom:   Atom  AN      X      Y      Z        X      Y      Z        X      Y      Z   
After scan for Atom:   Atom  AN      X      Y      Z        X      Y      Z        X      Y      Z   
After scan for Atom:   Atom  AN      X      Y      Z        X      Y      Z        X      Y      Z   
After scan for Atom:   Atom  AN      X      Y      Z        X      Y      Z        X      Y      Z   
After scan for Atom:   Atom  AN      X      Y      Z        X      Y      Z        X      Y      Z   
After scan for Atom:   Atom  AN      X      Y      Z        X      Y      Z        X      Y      Z   
After scan for Atom:   Atom  AN      X      Y      Z        X      Y      Z        X      Y      Z   
After scan for Atom:   Atom  AN      X      Y      Z        X      Y      Z        X      Y      Z   
After scan for Atom:   Atom  AN      X      Y      Z        X      Y      Z        X      Y      Z   
After scan for Atom:   Atom  AN      X      Y      Z        X      Y      Z        X      Y      Z   
After scan for Atom:   Atom  AN      X      Y      Z        X      Y      Z        X      Y      Z   
After scan for Atom:   Atom  AN      X      Y      Z        X      Y      Z        X      Y      Z   
After scan for Atom:   Atom  AN      X      Y      Z        X      Y      Z        X      Y      Z   
After scan for Atom:   Atom  AN      X      Y      Z        X      Y      Z        X      Y      Z   
After scan for Atom:   Atom  AN      X      Y      Z        X      Y      Z        X      Y      Z   
After scan for Atom:   Atom  AN      X      Y      Z        X      Y      Z        X      Y      Z   
After scan for Atom:   Atom  AN      X      Y      Z        X      Y      Z        X      Y      Z   
After scan for Atom:   Atom  AN      X      Y      Z        X      Y      Z        X      Y      Z   
After scan for Atom:   Atom  AN      X      Y      Z        X      Y      Z        X      Y      Z   
After scan for Atom:   Atom  AN      X      Y      Z        X      Y      Z        X      Y      Z   
After scan for Atom:   Atom  AN      X      Y      Z        X      Y      Z        X      Y      Z   
After scan for Atom:   Atom  AN      X      Y      Z        X      Y      Z        X      Y      Z   
After scan for Atom:   Atom  AN      X      Y      Z        X      Y      Z        X      Y      Z   
After scan for Atom:   Atom  AN      X      Y      Z        X      Y      Z        X      Y      Z   
After scan for Atom:   Atom  AN      X      Y      Z        X      Y      Z        X      Y      Z   
After scan for Atom:   Atom  AN      X      Y      Z        X      Y      Z        X      Y      Z   
After scan for Atom:   Atom  AN      X      Y      Z        X      Y      Z        X      Y      Z   
After scan for Atom:   Atom  AN      X      Y      Z        X      Y      Z        X      Y      Z   
After scan for Atom:   Atom  AN      X      Y      Z        X      Y      Z        X      Y      Z   
After scan for Atom:   Atom  AN      X      Y      Z        X      Y      Z        X      Y      Z   
After scan for Atom:   Atom  AN      X      Y      Z        X      Y      Z        X      Y      Z   
After scan for Atom:   Atom  AN      X      Y      Z        X      Y      Z        X      Y      Z   
After scan for Atom:   Atom  AN      X      Y      Z        X      Y      Z        X      Y      Z   
After scan for Atom:   Atom  AN      X      Y      Z        X      Y      Z        X      Y      Z   
After scan for Atom:   Atom  AN      X      Y      Z        X      Y      Z        X      Y      Z   
After scan for Atom:   Atom  AN      X      Y      Z        X      Y      Z        X      Y      Z   
After scan for Atom:   Atom  AN      X      Y      Z        X      Y      Z        X      Y      Z   
After scan for Atom:   Atom  AN      X      Y      Z        X      Y      Z        X      Y      Z   
After scan for Atom:   Atom  AN      X      Y      Z        X      Y      Z        X      Y      Z   
After scan for Atom:   Atom  AN      X      Y      Z        X      Y      Z        X      Y      Z   
After scan for Atom:   Atom  AN      X      Y      Z        X      Y      Z        X      Y      Z   
After scan for Atom:   Atom  AN      X      Y      Z        X      Y      Z        X      Y      Z   
After scan for Atom:   Atom  AN      X      Y      Z        X      Y      Z        X      Y      Z   
After scan for Atom:   Atom  AN      X      Y      Z        X      Y      Z        X      Y      Z   
After scan for Atom:   Atom  AN      X      Y      Z        X      Y      Z        X      Y      Z   
After scan for Atom:   Atom  AN      X      Y      Z        X      Y      Z        X      Y      Z   
After scan for Atom:   Atom  AN      X      Y      Z        X      Y      Z        X      Y      Z   
After scan for Atom:   Atom  AN      X      Y      Z        X      Y      Z        X      Y      Z   
After scan for Atom:   Atom  AN      X      Y      Z        X      Y      Z        X      Y      Z   
After scan for Atom:   Atom  AN      X      Y      Z        X      Y      Z        X      Y      Z   
After scan for Atom:   Atom  AN      X      Y      Z        X      Y      Z        X      Y      Z   
After scan for Atom:   Atom  AN      X      Y      Z        X      Y      Z        X      Y      Z   
After scan for Atom:   Atom  AN      X      Y      Z        X      Y      Z        X      Y      Z   
After scan for Atom:   Atom  AN      X      Y      Z        X      Y      Z        X      Y      Z   
After scan for Atom:   Atom  AN      X      Y      Z        X      Y      Z        X      Y      Z   
After scan for Atom:   Atom  AN      X      Y      Z        X      Y      Z        X      Y      Z   
After scan for Atom:   Atom  AN      X      Y      Z        X      Y      Z        X      Y      Z   
After scan for Atom:   Atom  AN      X      Y      Z        X      Y      Z        X      Y      Z   
After scan for Atom:   Atom  AN      X      Y      Z        X      Y      Z        X      Y      Z   
After scan for Atom:   Atom  AN      X      Y      Z        X      Y      Z        X      Y      Z   
After scan for Atom:   Atom  AN      X      Y      Z        X      Y      Z        X      Y      Z   
After scan for Atom:   Atom  AN      X      Y      Z        X      Y      Z        X      Y      Z   
After scan for Atom:   Atom  AN      X      Y      Z        X      Y      Z        X      Y      Z   
After scan for Atom:   Atom  AN      X      Y      Z        X      Y      Z        X      Y      Z   
After scan for Atom:   Atom  AN      X      Y      Z        X      Y      Z        X      Y      Z   
After scan for Atom:   Atom  AN      X      Y      Z        X      Y      Z        X      Y      Z   
After scan for Atom:   Atom  AN      X      Y      Z        X      Y      Z        X      Y      Z   
After scan for Atom:   Atom  AN      X      Y      Z        X      Y      Z        X      Y      Z   
After scan for Atom:   Atom  AN      X      Y      Z        X      Y      Z        X      Y      Z   
After scan for Atom:   Atom  AN      X      Y      Z        X      Y      Z        X      Y      Z   
After scan for Atom:   Atom  AN      X      Y      Z        X      Y      Z        X      Y      Z   
After scan for Atom:   Atom  AN      X      Y      Z        X      Y      Z        X      Y      Z   
After scan for Atom:   Atom  AN      X      Y      Z        X      Y      Z        X      Y      Z   
After scan for Atom:   Atom  AN      X      Y      Z        X      Y      Z        X      Y      Z   
After scan for Atom:   Atom  AN      X      Y      Z        X      Y      Z        X      Y      Z   
After scan for Atom:   Atom  AN      X      Y      Z        X      Y      Z        X      Y      Z   
After scan for Atom:   Atom  AN      X      Y      Z        X      Y      Z        X      Y      Z   
After scan for Atom:   Atom  AN      X      Y      Z        X      Y      Z        X      Y      Z   
After scan for Atom:   Atom  AN      X      Y      Z        X      Y      Z        X      Y      Z   
After scan for Atom:   Atom  AN      X      Y      Z        X      Y      Z        X      Y      Z   
After scan for Atom:   Atom  AN      X      Y      Z        X      Y      Z        X      Y      Z   
After scan for Atom:   Atom  AN      X      Y      Z        X      Y      Z        X      Y      Z   
After scan for Atom:   Atom  AN      X      Y      Z        X      Y      Z        X      Y      Z   
After scan for Atom:   Atom  AN      X      Y      Z        X      Y      Z        X      Y      Z   
After scan for Atom:   Atom  AN      X      Y      Z        X      Y      Z        X      Y      Z   
After scan for Atom:   Atom  AN      X      Y      Z        X      Y      Z        X      Y      Z   
After scan for Atom:   Atom  AN      X      Y      Z        X      Y      Z        X      Y      Z   
After scan for Atom:   Atom  AN      X      Y      Z        X      Y      Z        X      Y      Z   
After scan for Atom:   Atom  AN      X      Y      Z        X      Y      Z        X      Y      Z   
After scan for Atom:   Atom  AN      X      Y      Z        X      Y      Z        X      Y      Z   
After scan for Atom:   Atom  AN      X      Y      Z        X      Y      Z        X      Y      Z   
After scan for Atom:   Atom  AN      X      Y      Z        X      Y      Z        X      Y      Z   
After scan for Atom:   Atom  AN      X      Y      Z        X      Y      Z        X      Y      Z   
After scan for Atom:   Atom  AN      X      Y      Z        X      Y      Z        X      Y      Z   
After scan for Atom:   Atom  AN      X      Y      Z        X      Y      Z        X      Y      Z   
After scan for Atom:   Atom  AN      X      Y      Z        X      Y      Z        X      Y      Z   
After scan for Atom:   Atom  AN      X      Y      Z        X      Y      Z        X      Y      Z   
After scan for Atom:   Atom  AN      X      Y      Z        X      Y      Z        X      Y      Z   
After scan for Atom:   Atom  AN      X      Y      Z        X      Y      Z        X      Y      Z   
After scan for Atom:   Atom  AN      X      Y      Z        X      Y      Z        X      Y      Z   
After scan for Atom:   Atom  AN      X      Y      Z        X      Y      Z        X      Y      Z   
After scan for Atom:   Atom  AN      X      Y      Z        X      Y      Z        X      Y      Z   
After scan for Atom:   Atom  AN      X      Y      Z        X      Y      Z        X      Y      Z   
After scan for Atom:   Atom  AN      X      Y      Z        X      Y      Z        X      Y      Z   
After scan for Atom:   Atom  AN      X      Y      Z        X      Y      Z        X      Y      Z   
 g94    frequencies=
     0.0    0.0    0.0    0.0    0.0    0.0    4.0    4.8    5.3   11.3
    14.6   23.4   24.7   30.5   45.9   46.4   49.6   52.7   58.1   62.3
    66.3   77.2   84.3   86.9   92.6  101.0  104.9  106.4  114.8  127.1
   135.1  144.3  150.4  152.0  160.2  169.8  173.7  196.1  197.8  202.3
   206.7  212.3  216.2  220.3  226.1  234.2  235.4  242.3  244.7  249.0
   253.8  256.9  264.9  273.1  279.9  286.3  290.8  299.5  300.8  313.8
   316.9  330.1  337.2  343.0  357.8  362.7  378.1  393.5  397.7  410.6
   412.6  414.9  417.8  418.2  430.1  435.4  442.8  444.3  446.0  450.5
   454.4  467.1  474.2  476.8  486.0  495.8  499.7  501.2  505.8  508.2
   514.7  516.4  517.6  541.3  543.5  551.6  571.4  572.8  576.7  579.4
   581.2  592.1  592.6  603.1  624.4  625.7  630.9  635.5  655.3  657.1
   662.6  665.5  666.3  689.4  691.2  694.3  702.9  706.8  713.8  719.4
   725.5  728.6  730.4  741.4  741.5  748.6  755.1  758.1  761.1  768.8
   784.7  785.7  797.5  802.9  804.4  807.5  809.9  812.6  819.5  821.3
   827.8  828.9  829.7  833.4  838.2  847.2  850.6  866.8  875.0  894.2
   904.5  904.8  907.0  909.4  909.8  911.2  930.7  931.3  942.6  953.4
   954.5  954.7  956.3  966.4  968.4  971.6  973.0  974.4  980.5  983.7
   983.9  988.1  997.8 1004.1 1008.8 1032.2 1032.5 1033.2 1038.8 1066.3
  1070.3 1081.3 1091.1 1097.5 1108.5 1110.1 1117.4 1139.7 1146.0 1149.8
  1152.2 1153.0 1155.0 1157.5 1165.0 1166.1 1167.0 1174.2 1186.1 1197.0
  1200.6 1202.1 1203.6 1212.7 1225.2 1227.7 1234.8 1236.9 1243.2 1243.8
  1254.9 1257.4 1270.2 1275.6 1290.0 1297.2 1300.6 1308.0 1314.3 1317.4
  1331.8 1334.4 1337.1 1343.0 1353.0 1356.9 1363.9 1369.1 1372.7 1378.0
  1384.0 1390.7 1392.4 1397.1 1398.2 1404.5 1405.7 1408.3 1423.8 1426.2
  1430.4 1437.4 1438.8 1441.1 1454.2 1463.1 1464.3 1469.4 1473.5 1483.3
  1483.3 1485.2 1485.3 1486.1 1489.9 1490.1 1490.5 1494.8 1505.8 1506.4
  1506.9 1507.5 1513.2 1519.0 1522.5 1524.1 1530.9 1535.0 1544.4 1548.1
  1562.2 1572.8 1577.3 1592.3 1595.3 1598.2 1611.5 1618.9 1623.8 1627.2
  1637.4 1648.9 1673.8 1688.4 1709.3 1726.9 2303.5 3025.8 3030.8 3035.3
  3037.3 3038.4 3040.3 3083.1 3086.2 3103.1 3106.6 3106.6 3107.8 3111.0
  3112.0 3113.3 3113.7 3115.3 3130.7 3140.0 3176.3 3181.7 3183.1 3184.1
  3184.8 3187.4 3187.5 3191.2 3194.6 3194.8 3201.4 3204.4 3204.5 3206.1
  3217.0 3217.2 3217.7 3221.2 3222.1 3227.6 3246.9
 g94    symmetries=
                                                 A      A      A      A
       A      A      A      A      A      A      A      A      A      A
       A      A      A      A      A      A      A      A      A      A
       A      A      A      A      A      A      A      A      A      A
       A      A      A      A      A      A      A      A      A      A
       A      A      A      A      A      A      A      A      A      A
       A      A      A      A      A      A      A      A      A      A
       A      A      A      A      A      A      A      A      A      A
       A      A      A      A      A      A      A      A      A      A
       A      A      A      A      A      A      A      A      A      A
       A      A      A      A      A      A      A      A      A      A
       A      A      A      A      A      A      A      A      A      A
       A      A      A      A      A      A      A      A      A      A
       A      A      A      A      A      A      A      A      A      A
       A      A      A      A      A      A      A      A      A      A
       A      A      A      A      A      A      A      A      A      A
       A      A      A      A      A      A      A      A      A      A
       A      A      A      A      A      A      A      A      A      A
       A      A      A      A      A      A      A      A      A      A
       A      A      A      A      A      A      A      A      A      A
       A      A      A      A      A      A      A      A      A      A
       A      A      A      A      A      A      A      A      A      A
       A      A      A      A      A      A      A      A      A      A
       A      A      A      A      A      A      A      A      A      A
       A      A      A      A      A      A      A      A      A      A
       A      A      A      A      A      A      A      A      A      A
       A      A      A      A      A      A      A      A      A      A
       A      A      A      A      A      A      A      A      A      A
       A      A      A      A      A      A      A      A      A      A
       A      A      A      A      A      A      A      A      A      A
       A      A      A      A      A      A      A      A      A      A
       A      A      A      A      A      A      A      A      A      A
       A      A      A      A      A      A      A
 atomic masses:
 12.0000 12.0000 12.0000 14.0031 12.0000 15.9949 12.0000 12.0000 12.0000 12.0000
 12.0000 12.0000 12.0000 12.0000 12.0000 15.9949 14.0031 12.0000 12.0000 12.0000
 12.0000 12.0000 12.0000 12.0000 12.0000 12.0000 12.0000 12.0000 12.0000 12.0000
 12.0000 12.0000 31.9721 12.0000 12.0000 12.0000 12.0000 12.0000 12.0000 12.0000
 12.0000 12.0000 12.0000 31.9721 12.0000 12.0000 12.0000 12.0000 12.0000 12.0000
 12.0000 12.0000 12.0000 12.0000 15.9949 12.0000 12.0000 12.0000 12.0000 12.0000
 12.0000 12.0000 12.0000 12.0000 15.9949 12.0000 12.0000 12.0000 12.0000  1.0078
  1.0078  1.0078  1.0078  1.0078  1.0078  1.0078  1.0078  1.0078  1.0078  1.0078
  1.0078  1.0078  1.0078  1.0078  1.0078  1.0078  1.0078  1.0078  1.0078  1.0078
  1.0078  1.0078  1.0078  1.0078  1.0078  1.0078  1.0078  1.0078  1.0078  1.0078
  1.0078  1.0078  1.0078  1.0078  1.0078  1.0078  1.0078  1.0078  1.0078
 looking for force constants in 
 ./IDT-A_3_C0S1.fchk                                                            
  
 cant find forces in .fchk file
 NO FORCES: 
 ./IDT-A_3_C0S1.log                                                             
                                          
 g94-fc frequencies=

 at 99999: n3=           0
 symm operator            1 :  F  nop=           0
 symm operator            2 :  F  nop=           0
 symm operator            3 :  F  nop=           0
 symm operator            4 :  F  nop=           0
 symm operator            5 :  F  nop=           0
 symm operator            6 :  F  nop=           0
 symm operator            7 :  F  nop=           0
 The point group of the molecule is  C1
 Symmetry rotation matrix:
   1.00000   0.00000   0.00000
   0.00000   1.00000   0.00000
   0.00000   0.00000   1.00000

 highest evec of mol 1

 generating redundant internal coords
         300        3600         109
 Adding extra bonds for z output only
           6           6           6           7           6           8
           6           6           6           6           6           6
           6           6           6           8           7           6
           6           6           6           6           6           6
           6           6           6           6           6           6
           6           6          16           6           6           6
           6           6           6           6           6           6
           6          16           6           6           6           6
           6           6           6           6           6           6
           8           6           6           6           6           6
           6           6           6           6           8           6
           6           6           6           1           1           1
           1           1           1           1           1           1
           1           1           1           1           1           1
           1           1           1           1           1           1
           1           1           1           1           1           1
           1           1           1           1           1           1
           1           1           1           1           1           1
           1
 search for int coords
   1 str   2   1   1.533
   2 str   3   2   1.533
   3 str   4   2   1.489
   4 str   5   4   1.406
   5 str   6   5   1.228
   6 str   7   5   1.466
   7 str   8   7   1.397
   8 str   9   8   1.380
   9 str  10   9   1.414
  10 str  11  10   1.447
  11 str  12  11   1.416
  12 str  13  12   1.377
  13 str  14  13   1.401
  14 str  15  14   1.455
  15 str  16  15   1.224
  16 str  17  15   1.427
  17 str  18  17   1.432
  18 str  19  18   1.396
  19 str  20  19   1.386
  20 str  21  20   1.405
  21 str  22  21   1.424
  22 str  23  22   1.210
  23 str  24  23   1.420
  24 str  25  24   1.410
  25 str  26  25   1.390
  26 str  27  26   1.388
  27 str  28  27   1.407
  28 str  29  28   1.457
  29 str  30  29   1.397
  30 str  31  30   1.392
  31 str  32  31   1.402
  32 str  33  29   1.764
  33 str  33  32   1.732
  34 str  34  32   1.415
  35 str  35  34   1.414
  36 str  36  35   1.371
  37 str  37  36   1.437
  38 str  38  37   1.410
  39 str  39  34   1.438
  40 str  39  38   1.373
  41 str  40  31   1.517
  42 str  40  39   1.533
  43 str  41  40   1.545
  44 str  42  40   1.545
  45 str  43  37   1.424
  46 str  44  43   1.734
  47 str  45  44   1.737
  48 str  46  45   1.378
  49 str  47  43   1.393
  50 str  47  46   1.407
  51 str  48  36   1.534
  52 str  48  47   1.517
  53 str  49  48   1.545
  54 str  50  48   1.545
  55 str  51  24   1.401
  56 str  51  28   1.403
  57 str  52  21   1.404
  58 str  53  18   1.396
  59 str  53  52   1.387
  60 str  54  17   1.427
  61 str  55  54   1.225
  62 str  56  54   1.455
  63 str  57  56   1.401
  64 str  58  57   1.377
  65 str  59  58   1.416
  66 str  60  59   1.447
  67 str  61  60   1.414
  68 str  62  61   1.380
  69 str  63  62   1.398
  70 str  64   4   1.414
  71 str  64  63   1.464
  72 str  65  64   1.227
  73 str  66   7   1.412
  74 str  66  63   1.413
  75 str  67  10   1.429
  76 str  67  60   1.429
  77 str  67  66   1.435
  78 str  68  11   1.430
  79 str  68  59   1.430
  80 str  69  14   1.415
  81 str  69  56   1.415
  82 str  69  68   1.437
  83 str  70   1   1.094
  84 str  71   1   1.089
  85 str  72   1   1.093
  86 str  73   2   1.088
  87 str  74   3   1.089
  88 str  75   3   1.094
  89 str  76   3   1.093
  90 str  77   8   1.083
  91 str  78   9   1.081
  92 str  79  12   1.081
  93 str  80  13   1.083
  94 str  81  19   1.081
  95 str  82  20   1.083
  96 str  83  25   1.083
  97 str  84  26   1.083
  98 str  85  27   1.084
  99 str  86  30   1.080
 100 str  87  35   1.084
 101 str  88  38   1.084
 102 str  89  41   1.092
 103 str  90  41   1.092
 104 str  91  41   1.092
 105 str  92  42   1.092
 106 str  93  42   1.092
 107 str  94  42   1.092
 108 str  95  45   1.080
 109 str  96  46   1.081
 110 str  97  49   1.092
 111 str  98  49   1.092
 112 str  99  49   1.092
 113 str 100  50   1.092
 114 str 101  50   1.092
 115 str 102  50   1.092
 116 str 103  51   1.082
 117 str 104  52   1.083
 118 str 105  53   1.081
 119 str 106  57   1.083
 120 str 107  58   1.081
 121 str 108  61   1.081
 122 str 109  62   1.083
 nber stretches=         122
 123 ben   1   2   3
 124 prop tor   1   2   3  74
 125 prop tor   1   2   3  75
 126 prop tor   1   2   3  76
 127 ben   1   2   4
 128 prop tor   1   2   4   5
 129 prop tor   1   2   4  64
 130 ben   1   2  73
 131 ben   2   1  70
 132 ben   2   1  71
 133 ben   2   1  72
 134 ben   2   3  74
 135 ben   2   3  75
 136 ben   2   3  76
 137 ben   2   4   5
 138 prop tor   2   4   5   6
 139 prop tor   2   4   5   7
 140 ben   2   4  64
 141 prop tor   2   4  64  63
 142 prop tor   2   4  64  65
 143 ben   3   2   4
 144 prop tor   3   2   4   5
 145 prop tor   3   2   4  64
 146 ben   3   2  73
 147 prop tor   4   2   3  74
 148 prop tor   4   2   3  75
 149 prop tor   4   2   3  76
 150 ben   4   2  73
 151 ben   4   5   6
 152 ben   4   5   7
 153 prop tor   4   5   7   8
 154 prop tor   4   5   7  66
 155 ben   4  64  63
 156 ben   4  64  65
 157 ben   5   4  64
 158 prop tor   5   4  64  63
 159 prop tor   5   4  64  65
 160 ben   5   7   8
 161 prop tor   5   7   8   9
 162 prop tor   5   7   8  77
 163 ben   5   7  66
 164 prop tor   5   7  66  63
 165 prop tor   5   7  66  67
 166 ben   6   5   7
 167 prop tor   6   5   7   8
 168 prop tor   6   5   7  66
 169 ben   7   8   9
 170 prop tor   7   8   9  10
 171 prop tor   7   8   9  78
 172 ben   7   8  77
 173 ben   7  66  63
 174 ben   7  66  67
 175 prop tor   7  66  67  10
 176 prop tor   7  66  67  60
 177 ben   8   7  66
 178 prop tor   8   7  66  63
 179 prop tor   8   7  66  67
 180 ben   8   9  10
 181 prop tor   8   9  10  11
 182 prop tor   8   9  10  67
 183 ben   8   9  78
 184 ben   9   8  77
 185 ben   9  10  11
 186 prop tor   9  10  11  12
 187 prop tor   9  10  11  68
 188 ben   9  10  67
 189 prop tor   9  10  67  60
 190 prop tor   9  10  67  66
 191 ben  10   9  78
 192 ben  10  11  12
 193 prop tor  10  11  12  13
 194 prop tor  10  11  12  79
 195 ben  10  11  68
 196 prop tor  10  11  68  59
 197 prop tor  10  11  68  69
 198 ben  10  67  60
 199 ben  10  67  66
 200 ben  11  10  67
 201 prop tor  11  10  67  60
 202 prop tor  11  10  67  66
 203 ben  11  12  13
 204 prop tor  11  12  13  14
 205 prop tor  11  12  13  80
 206 ben  11  12  79
 207 ben  11  68  59
 208 ben  11  68  69
 209 prop tor  11  68  69  14
 210 prop tor  11  68  69  56
 211 ben  12  11  68
 212 prop tor  12  11  68  59
 213 prop tor  12  11  68  69
 214 ben  12  13  14
 215 prop tor  12  13  14  15
 216 prop tor  12  13  14  69
 217 ben  12  13  80
 218 ben  13  12  79
 219 ben  13  14  15
 220 prop tor  13  14  15  16
 221 prop tor  13  14  15  17
 222 ben  13  14  69
 223 prop tor  13  14  69  56
 224 prop tor  13  14  69  68
 225 ben  14  13  80
 226 ben  14  15  16
 227 ben  14  15  17
 228 prop tor  14  15  17  18
 229 prop tor  14  15  17  54
 230 ben  14  69  56
 231 ben  14  69  68
 232 ben  15  14  69
 233 prop tor  15  14  69  56
 234 prop tor  15  14  69  68
 235 ben  15  17  18
 236 prop tor  15  17  18  19
 237 prop tor  15  17  18  53
 238 ben  15  17  54
 239 prop tor  15  17  54  55
 240 prop tor  15  17  54  56
 241 ben  16  15  17
 242 prop tor  16  15  17  18
 243 prop tor  16  15  17  54
 244 ben  17  18  19
 245 prop tor  17  18  19  20
 246 prop tor  17  18  19  81
 247 ben  17  18  53
 248 prop tor  17  18  53  52
 249 prop tor  17  18  53 105
 250 ben  17  54  55
 251 ben  17  54  56
 252 prop tor  17  54  56  57
 253 prop tor  17  54  56  69
 254 ben  18  17  54
 255 prop tor  18  17  54  55
 256 prop tor  18  17  54  56
 257 ben  18  19  20
 258 prop tor  18  19  20  21
 259 prop tor  18  19  20  82
 260 ben  18  19  81
 261 ben  18  53  52
 262 ben  18  53 105
 263 ben  19  18  53
 264 prop tor  19  18  53  52
 265 prop tor  19  18  53 105
 266 ben  19  20  21
 267 prop tor  19  20  21  22
 268 prop tor  19  20  21  52
 269 ben  19  20  82
 270 ben  20  19  81
 271 ben  20  21  22
 272 prop tor  20  21  22  23
 273 ben  20  21  52
 274 prop tor  20  21  52  53
 275 prop tor  20  21  52 104
 276 ben  21  20  82
 277 lin ben  21  22  23
 279 ben  21  52  53
 280 prop tor  21  52  53  18
 281 prop tor  21  52  53 105
 282 ben  21  52 104
 283 ben  22  21  52
 284 prop tor  22  21  52  53
 285 prop tor  22  21  52 104
 Extend lin bond           1          21          22          24
 286 lin ben  22  23  24
 288 ben  23  24  25
 289 prop tor  23  24  25  26
 290 prop tor  23  24  25  83
 291 ben  23  24  51
 292 prop tor  23  24  51  28
 293 prop tor  23  24  51 103
 294 ben  24  25  26
 295 prop tor  24  25  26  27
 296 prop tor  24  25  26  84
 297 ben  24  25  83
 298 ben  24  51  28
 299 ben  24  51 103
 300 ben  25  24  51
 301 prop tor  25  24  51  28
 302 prop tor  25  24  51 103
 303 ben  25  26  27
 304 prop tor  25  26  27  28
 305 prop tor  25  26  27  85
 306 ben  25  26  84
 307 ben  26  25  83
 308 ben  26  27  28
 309 prop tor  26  27  28  29
 310 prop tor  26  27  28  51
 311 ben  26  27  85
 312 ben  27  26  84
 313 ben  27  28  29
 314 prop tor  27  28  29  30
 315 prop tor  27  28  29  33
 316 ben  27  28  51
 317 prop tor  27  28  51  24
 318 prop tor  27  28  51 103
 319 ben  28  27  85
 320 ben  28  29  30
 321 prop tor  28  29  30  31
 322 prop tor  28  29  30  86
 323 ben  28  29  33
 324 prop tor  28  29  33  32
 325 ben  28  51 103
 326 ben  29  28  51
 327 prop tor  29  28  51  24
 328 prop tor  29  28  51 103
 329 ben  29  30  31
 330 prop tor  29  30  31  32
 331 prop tor  29  30  31  40
 332 ben  29  30  86
 333 ben  29  33  32
 334 ben  30  29  33
 335 prop tor  30  29  33  32
 336 ben  30  31  32
 337 prop tor  30  31  32  33
 338 prop tor  30  31  32  34
 339 ben  30  31  40
 340 prop tor  30  31  40  39
 341 prop tor  30  31  40  41
 342 prop tor  30  31  40  42
 343 ben  31  30  86
 344 ben  31  32  33
 345 prop tor  31  32  33  29
 346 ben  31  32  34
 347 prop tor  31  32  34  35
 348 prop tor  31  32  34  39
 349 ben  31  40  39
 350 ben  31  40  41
 351 prop tor  31  40  41  89
 352 prop tor  31  40  41  90
 353 prop tor  31  40  41  91
 354 ben  31  40  42
 355 prop tor  31  40  42  92
 356 prop tor  31  40  42  93
 357 prop tor  31  40  42  94
 358 ben  32  31  40
 359 prop tor  32  31  40  39
 360 prop tor  32  31  40  41
 361 prop tor  32  31  40  42
 362 ben  32  34  35
 363 prop tor  32  34  35  36
 364 prop tor  32  34  35  87
 365 ben  32  34  39
 366 prop tor  32  34  39  38
 367 prop tor  32  34  39  40
 368 prop tor  33  29  30  31
 369 prop tor  33  29  30  86
 370 ben  33  32  34
 371 prop tor  33  32  34  35
 372 prop tor  33  32  34  39
 373 prop tor  34  32  33  29
 374 ben  34  35  36
 375 prop tor  34  35  36  37
 376 prop tor  34  35  36  48
 377 ben  34  35  87
 378 ben  34  39  38
 379 ben  34  39  40
 380 prop tor  34  39  40  31
 381 prop tor  34  39  40  41
 382 prop tor  34  39  40  42
 383 ben  35  34  39
 384 prop tor  35  34  39  38
 385 prop tor  35  34  39  40
 386 ben  35  36  37
 387 prop tor  35  36  37  38
 388 prop tor  35  36  37  43
 389 ben  35  36  48
 390 prop tor  35  36  48  47
 391 prop tor  35  36  48  49
 392 prop tor  35  36  48  50
 393 ben  36  35  87
 394 ben  36  37  38
 395 prop tor  36  37  38  39
 396 prop tor  36  37  38  88
 397 ben  36  37  43
 398 prop tor  36  37  43  44
 399 prop tor  36  37  43  47
 400 ben  36  48  47
 401 ben  36  48  49
 402 prop tor  36  48  49  97
 403 prop tor  36  48  49  98
 404 prop tor  36  48  49  99
 405 ben  36  48  50
 406 prop tor  36  48  50 100
 407 prop tor  36  48  50 101
 408 prop tor  36  48  50 102
 409 ben  37  36  48
 410 prop tor  37  36  48  47
 411 prop tor  37  36  48  49
 412 prop tor  37  36  48  50
 413 ben  37  38  39
 414 prop tor  37  38  39  34
 415 prop tor  37  38  39  40
 416 ben  37  38  88
 417 ben  37  43  44
 418 prop tor  37  43  44  45
 419 ben  37  43  47
 420 prop tor  37  43  47  46
 421 prop tor  37  43  47  48
 422 ben  38  37  43
 423 prop tor  38  37  43  44
 424 prop tor  38  37  43  47
 425 ben  38  39  40
 426 prop tor  38  39  40  31
 427 prop tor  38  39  40  41
 428 prop tor  38  39  40  42
 429 prop tor  39  34  35  36
 430 prop tor  39  34  35  87
 431 ben  39  38  88
 432 ben  39  40  41
 433 prop tor  39  40  41  89
 434 prop tor  39  40  41  90
 435 prop tor  39  40  41  91
 436 ben  39  40  42
 437 prop tor  39  40  42  92
 438 prop tor  39  40  42  93
 439 prop tor  39  40  42  94
 440 prop tor  40  31  32  33
 441 prop tor  40  31  32  34
 442 ben  40  41  89
 443 ben  40  41  90
 444 ben  40  41  91
 445 ben  40  42  92
 446 ben  40  42  93
 447 ben  40  42  94
 448 ben  41  40  42
 449 prop tor  41  40  42  92
 450 prop tor  41  40  42  93
 451 prop tor  41  40  42  94
 452 prop tor  42  40  41  89
 453 prop tor  42  40  41  90
 454 prop tor  42  40  41  91
 455 prop tor  43  37  38  39
 456 prop tor  43  37  38  88
 457 ben  43  44  45
 458 prop tor  43  44  45  46
 459 prop tor  43  44  45  95
 460 ben  43  47  46
 461 ben  43  47  48
 462 prop tor  43  47  48  36
 463 prop tor  43  47  48  49
 464 prop tor  43  47  48  50
 465 ben  44  43  47
 466 prop tor  44  43  47  46
 467 prop tor  44  43  47  48
 468 ben  44  45  46
 469 prop tor  44  45  46  47
 470 prop tor  44  45  46  96
 471 ben  44  45  95
 472 ben  45  46  47
 473 prop tor  45  46  47  43
 474 prop tor  45  46  47  48
 475 ben  45  46  96
 476 ben  46  45  95
 477 ben  46  47  48
 478 prop tor  46  47  48  36
 479 prop tor  46  47  48  49
 480 prop tor  46  47  48  50
 481 prop tor  47  43  44  45
 482 ben  47  46  96
 483 ben  47  48  49
 484 prop tor  47  48  49  97
 485 prop tor  47  48  49  98
 486 prop tor  47  48  49  99
 487 ben  47  48  50
 488 prop tor  47  48  50 100
 489 prop tor  47  48  50 101
 490 prop tor  47  48  50 102
 491 prop tor  48  36  37  38
 492 prop tor  48  36  37  43
 493 ben  48  49  97
 494 ben  48  49  98
 495 ben  48  49  99
 496 ben  48  50 100
 497 ben  48  50 101
 498 ben  48  50 102
 499 ben  49  48  50
 500 prop tor  49  48  50 100
 501 prop tor  49  48  50 101
 502 prop tor  49  48  50 102
 503 prop tor  50  48  49  97
 504 prop tor  50  48  49  98
 505 prop tor  50  48  49  99
 506 prop tor  51  24  25  26
 507 prop tor  51  24  25  83
 508 prop tor  51  28  29  30
 509 prop tor  51  28  29  33
 510 prop tor  52  21  22  23
 511 ben  52  53 105
 512 prop tor  53  18  19  20
 513 prop tor  53  18  19  81
 514 ben  53  52 104
 515 prop tor  54  17  18  19
 516 prop tor  54  17  18  53
 517 ben  54  56  57
 518 prop tor  54  56  57  58
 519 prop tor  54  56  57 106
 520 ben  54  56  69
 521 prop tor  54  56  69  14
 522 prop tor  54  56  69  68
 523 ben  55  54  56
 524 prop tor  55  54  56  57
 525 prop tor  55  54  56  69
 526 ben  56  57  58
 527 prop tor  56  57  58  59
 528 prop tor  56  57  58 107
 529 ben  56  57 106
 530 ben  56  69  68
 531 ben  57  56  69
 532 prop tor  57  56  69  14
 533 prop tor  57  56  69  68
 534 ben  57  58  59
 535 prop tor  57  58  59  60
 536 prop tor  57  58  59  68
 537 ben  57  58 107
 538 ben  58  57 106
 539 ben  58  59  60
 540 prop tor  58  59  60  61
 541 prop tor  58  59  60  67
 542 ben  58  59  68
 543 prop tor  58  59  68  11
 544 prop tor  58  59  68  69
 545 ben  59  58 107
 546 ben  59  60  61
 547 prop tor  59  60  61  62
 548 prop tor  59  60  61 108
 549 ben  59  60  67
 550 prop tor  59  60  67  10
 551 prop tor  59  60  67  66
 552 ben  59  68  69
 553 prop tor  59  68  69  14
 554 prop tor  59  68  69  56
 555 ben  60  59  68
 556 prop tor  60  59  68  11
 557 prop tor  60  59  68  69
 558 ben  60  61  62
 559 prop tor  60  61  62  63
 560 prop tor  60  61  62 109
 561 ben  60  61 108
 562 ben  60  67  66
 563 ben  61  60  67
 564 prop tor  61  60  67  10
 565 prop tor  61  60  67  66
 566 ben  61  62  63
 567 prop tor  61  62  63  64
 568 prop tor  61  62  63  66
 569 ben  61  62 109
 570 ben  62  61 108
 571 ben  62  63  64
 572 prop tor  62  63  64   4
 573 prop tor  62  63  64  65
 574 ben  62  63  66
 575 prop tor  62  63  66   7
 576 prop tor  62  63  66  67
 577 ben  63  62 109
 578 ben  63  64  65
 579 ben  63  66  67
 580 prop tor  63  66  67  10
 581 prop tor  63  66  67  60
 582 prop tor  64   4   5   6
 583 prop tor  64   4   5   7
 584 ben  64  63  66
 585 prop tor  64  63  66   7
 586 prop tor  64  63  66  67
 587 prop tor  66   7   8   9
 588 prop tor  66   7   8  77
 589 prop tor  66  63  64   4
 590 prop tor  66  63  64  65
 591 prop tor  67  10  11  12
 592 prop tor  67  10  11  68
 593 prop tor  67  60  61  62
 594 prop tor  67  60  61 108
 595 prop tor  68  11  12  13
 596 prop tor  68  11  12  79
 597 prop tor  68  59  60  61
 598 prop tor  68  59  60  67
 599 prop tor  69  14  15  16
 600 prop tor  69  14  15  17
 601 prop tor  69  56  57  58
 602 prop tor  69  56  57 106
 603 prop tor  70   1   2   3
 604 prop tor  70   1   2   4
 605 prop tor  70   1   2  73
 606 ben  70   1  71
 607 ben  70   1  72
 608 prop tor  71   1   2   3
 609 prop tor  71   1   2   4
 610 prop tor  71   1   2  73
 611 ben  71   1  72
 612 prop tor  72   1   2   3
 613 prop tor  72   1   2   4
 614 prop tor  72   1   2  73
 615 prop tor  73   2   3  74
 616 prop tor  73   2   3  75
 617 prop tor  73   2   3  76
 618 prop tor  73   2   4   5
 619 prop tor  73   2   4  64
 620 ben  74   3  75
 621 ben  74   3  76
 622 ben  75   3  76
 623 prop tor  77   8   9  10
 624 prop tor  77   8   9  78
 625 prop tor  78   9  10  11
 626 prop tor  78   9  10  67
 627 prop tor  79  12  13  14
 628 prop tor  79  12  13  80
 629 prop tor  80  13  14  15
 630 prop tor  80  13  14  69
 631 prop tor  81  19  20  21
 632 prop tor  81  19  20  82
 633 prop tor  82  20  21  22
 634 prop tor  82  20  21  52
 635 prop tor  83  25  26  27
 636 prop tor  83  25  26  84
 637 prop tor  84  26  27  28
 638 prop tor  84  26  27  85
 639 prop tor  85  27  28  29
 640 prop tor  85  27  28  51
 641 prop tor  86  30  31  32
 642 prop tor  86  30  31  40
 643 prop tor  87  35  36  37
 644 prop tor  87  35  36  48
 645 prop tor  88  38  39  34
 646 prop tor  88  38  39  40
 647 ben  89  41  90
 648 ben  89  41  91
 649 ben  90  41  91
 650 ben  92  42  93
 651 ben  92  42  94
 652 ben  93  42  94
 653 prop tor  95  45  46  47
 654 prop tor  95  45  46  96
 655 prop tor  96  46  47  43
 656 prop tor  96  46  47  48
 657 ben  97  49  98
 658 ben  97  49  99
 659 ben  98  49  99
 660 ben 100  50 101
 661 ben 100  50 102
 662 ben 101  50 102
 663 prop tor 104  52  53  18
 664 prop tor 104  52  53 105
 665 prop tor 106  57  58  59
 666 prop tor 106  57  58 107
 667 prop tor 107  58  59  60
 668 prop tor 107  58  59  68
 669 prop tor 108  61  62  63
 670 prop tor 108  61  62 109
 671 prop tor 109  62  63  64
 672 prop tor 109  62  63  66
 673 lin bend prop tor  20  21  24  23
 674 lin bend prop tor  20  21  24  25
 675 lin bend prop tor  20  21  24  51
 676 lin bend prop tor  22  21  24  23
 677 lin bend prop tor  22  21  24  25
 678 lin bend prop tor  22  21  24  51
 679 lin bend prop tor  52  21  24  23
 680 lin bend prop tor  52  21  24  25
 681 lin bend prop tor  52  21  24  51
 nber bend=             216
 nber lin bend=           1
 nber prop tor=         343
 nber impr tor=           0
 nber tot redund int=         681
 Reading file: 
 ./IDT-A_3_C0S3.log                                                             
                                          
  Entering Gaussian System, Link 0=g16                                          
  
 Gaussian format, type: g94, g98, g03= F F F
  #P Geom=AllCheck Guess=TCheck SCRF=Check GenChk RB3LYP TD(FC,Read)/6-3    
 energy type= TD      
 Original G94 input coords:
  6  2.292021  1.990820 -0.340303
  6  3.190125  0.762331 -0.162381
  6  2.736544 -0.167843  0.967481
  7  3.374390  0.019784 -1.450335
  6  2.264324 -0.576891 -2.060221
  8  1.148769 -0.506026 -1.565583
  6  2.493457 -1.298631 -3.330389
  6  1.407699 -1.907552 -3.971086
  6  1.587991 -2.588638 -5.157698
  6  2.867517 -2.698022 -5.769209
  6  3.070969 -3.406260 -7.007693
  6  2.004287 -4.042246 -7.700602
  6  2.212027 -4.718645 -8.884761
  6  3.494196 -4.797379 -9.442037
  6  3.674552 -5.531699-10.710308
  8  2.750684 -6.073455-11.288574
  7  4.985997 -5.577407-11.227899
  6  5.190987 -6.291899-12.467957
  6  5.444702 -5.586351-13.640618
  6  5.644765 -6.270327-14.830777
  6  5.589494 -7.675248-14.866819
  6  5.792452 -8.378746-16.085873
  6  5.965920 -8.978324-17.123096
  6  6.167586 -9.686303-18.341232
  6  6.104553-11.091576-18.370351
  6  6.313562-11.766337-19.566088
  6  6.575624-11.067760-20.740018
  6  6.646572 -9.664015-20.739101
  6  6.912875 -8.906505-21.965136
  6  6.509022 -7.627087-22.286532
  6  6.955014 -7.213472-23.562649
  6  7.695703 -8.170549-24.215885
 16  7.873586 -9.609336-23.271435
  6  8.125928 -7.704437-25.519872
  6  8.886292 -8.306340-26.529212
  6  9.129301 -7.580419-27.684597
  6  8.618470 -6.267507-27.830861
  6  7.857960 -5.665932-26.822084
  6  7.614632 -6.391525-25.666346
  6  6.817971 -5.967254-24.423811
  6  5.341855 -5.681276-24.774220
  6  7.453981 -4.736767-23.742022
  6  9.049724 -5.800316-29.136089
 16  8.873626 -4.359921-30.082102
  6  9.818320 -5.071028-31.368045
  6 10.235921 -6.340823-31.070357
  6  9.792329 -6.756274-29.787120
  6  9.925293 -8.004201-28.927820
  6 11.400481 -8.294978-28.577458
  6  9.286185 -9.231952-29.611682
  6  6.447522 -8.989906-19.526569
  6  5.329654 -8.370458-13.672091
  6  5.134557 -7.682572-12.483408
  6  6.113169 -4.978947-10.625863
  8  7.215496 -5.060359-11.135327
  6  5.876370 -4.259175 -9.358926
  6  6.960999 -3.649931 -8.716125
  6  6.779164 -2.969204 -7.530164
  6  5.498799 -2.860441 -6.920995
  6  5.295213 -2.151951 -5.682740
  6  6.359822 -1.514522 -4.987701
  6  6.150379 -0.839510 -3.802389
  6  4.867743 -0.763555 -3.245673
  6  4.679255 -0.032661 -1.975505
  8  5.619133  0.502488 -1.407964
  6  3.781265 -1.380765 -3.899848
  6  3.983024 -2.082534 -5.127140
  6  4.383484 -3.476638 -7.564120
  6  4.585302 -4.179722 -8.791857
  1  2.307403  2.578405  0.581699
  1  1.262255  1.709342 -0.556493
  1  2.663544  2.627817 -1.147168
  1  4.195440  1.108409  0.067226
  1  1.725164 -0.537548  0.803579
  1  2.758246  0.383332  1.911580
  1  3.415354 -1.019205  1.063434
  1  0.431228 -1.828270 -3.511023
  1  0.727065 -3.046273 -5.623964
  1  1.001460 -4.001995 -7.299813
  1  1.396121 -5.201240 -9.407278
  1  5.491012 -4.504776-13.617852
  1  5.845678 -5.724100-15.743874
  1  5.895629-11.634250-17.456989
  1  6.261096-12.848944-19.588126
  1  6.705980-11.610883-21.668726
  1  5.888813 -7.035241-21.625924
  1  9.272193 -9.312875-26.404970
  1  7.471792 -4.659508-26.946451
  1  4.881093 -6.543794-25.260080
  1  5.263234 -4.824562-25.449199
  1  4.770837 -5.451081-23.870218
  1  8.499648 -4.925855-23.490719
  1  6.918681 -4.489880-22.820702
  1  7.411415 -3.864354-24.399916
  1 10.002240 -4.497659-32.263549
  1 10.832359 -6.935731-31.749911
  1 11.863347 -7.434465-28.090040
  1 11.970894 -8.525046-29.481919
  1 11.477038 -9.153139-27.904013
  1  8.240908 -9.039667-29.862200
  1  9.326883-10.105962-28.955699
  1  9.820417 -9.478142-30.533822
  1  6.530857 -7.911258-19.489481
  1  5.283770 -9.452177-13.687459
  1  4.932774 -8.222595-11.566812
  1  7.938235 -3.728988 -9.174815
  1  7.639144 -2.511557 -7.062260
  1  7.363234 -1.552356 -5.387428
  1  6.965771 -0.356884 -3.279360
 nber atoms=         109
  Total Energy, E(TD-HF/TD-DFT) =  -3556.07940663                               
  
          32          49 "  -3556.07940663"
After scan for Atom:   Atom  AN      X      Y      Z        X      Y      Z        X      Y      Z   
After scan for Atom:   Atom  AN      X      Y      Z        X      Y      Z        X      Y      Z   
After scan for Atom:   Atom  AN      X      Y      Z        X      Y      Z        X      Y      Z   
After scan for Atom:   Atom  AN      X      Y      Z        X      Y      Z        X      Y      Z   
After scan for Atom:   Atom  AN      X      Y      Z        X      Y      Z        X      Y      Z   
After scan for Atom:   Atom  AN      X      Y      Z        X      Y      Z        X      Y      Z   
After scan for Atom:   Atom  AN      X      Y      Z        X      Y      Z        X      Y      Z   
After scan for Atom:   Atom  AN      X      Y      Z        X      Y      Z        X      Y      Z   
After scan for Atom:   Atom  AN      X      Y      Z        X      Y      Z        X      Y      Z   
After scan for Atom:   Atom  AN      X      Y      Z        X      Y      Z        X      Y      Z   
After scan for Atom:   Atom  AN      X      Y      Z        X      Y      Z        X      Y      Z   
After scan for Atom:   Atom  AN      X      Y      Z        X      Y      Z        X      Y      Z   
After scan for Atom:   Atom  AN      X      Y      Z        X      Y      Z        X      Y      Z   
After scan for Atom:   Atom  AN      X      Y      Z        X      Y      Z        X      Y      Z   
After scan for Atom:   Atom  AN      X      Y      Z        X      Y      Z        X      Y      Z   
After scan for Atom:   Atom  AN      X      Y      Z        X      Y      Z        X      Y      Z   
After scan for Atom:   Atom  AN      X      Y      Z        X      Y      Z        X      Y      Z   
After scan for Atom:   Atom  AN      X      Y      Z        X      Y      Z        X      Y      Z   
After scan for Atom:   Atom  AN      X      Y      Z        X      Y      Z        X      Y      Z   
After scan for Atom:   Atom  AN      X      Y      Z        X      Y      Z        X      Y      Z   
After scan for Atom:   Atom  AN      X      Y      Z        X      Y      Z        X      Y      Z   
After scan for Atom:   Atom  AN      X      Y      Z        X      Y      Z        X      Y      Z   
After scan for Atom:   Atom  AN      X      Y      Z        X      Y      Z        X      Y      Z   
After scan for Atom:   Atom  AN      X      Y      Z        X      Y      Z        X      Y      Z   
After scan for Atom:   Atom  AN      X      Y      Z        X      Y      Z        X      Y      Z   
After scan for Atom:   Atom  AN      X      Y      Z        X      Y      Z        X      Y      Z   
After scan for Atom:   Atom  AN      X      Y      Z        X      Y      Z        X      Y      Z   
After scan for Atom:   Atom  AN      X      Y      Z        X      Y      Z        X      Y      Z   
After scan for Atom:   Atom  AN      X      Y      Z        X      Y      Z        X      Y      Z   
After scan for Atom:   Atom  AN      X      Y      Z        X      Y      Z        X      Y      Z   
After scan for Atom:   Atom  AN      X      Y      Z        X      Y      Z        X      Y      Z   
After scan for Atom:   Atom  AN      X      Y      Z        X      Y      Z        X      Y      Z   
After scan for Atom:   Atom  AN      X      Y      Z        X      Y      Z        X      Y      Z   
After scan for Atom:   Atom  AN      X      Y      Z        X      Y      Z        X      Y      Z   
After scan for Atom:   Atom  AN      X      Y      Z        X      Y      Z        X      Y      Z   
After scan for Atom:   Atom  AN      X      Y      Z        X      Y      Z        X      Y      Z   
After scan for Atom:   Atom  AN      X      Y      Z        X      Y      Z        X      Y      Z   
After scan for Atom:   Atom  AN      X      Y      Z        X      Y      Z        X      Y      Z   
After scan for Atom:   Atom  AN      X      Y      Z        X      Y      Z        X      Y      Z   
After scan for Atom:   Atom  AN      X      Y      Z        X      Y      Z        X      Y      Z   
After scan for Atom:   Atom  AN      X      Y      Z        X      Y      Z        X      Y      Z   
After scan for Atom:   Atom  AN      X      Y      Z        X      Y      Z        X      Y      Z   
After scan for Atom:   Atom  AN      X      Y      Z        X      Y      Z        X      Y      Z   
After scan for Atom:   Atom  AN      X      Y      Z        X      Y      Z        X      Y      Z   
After scan for Atom:   Atom  AN      X      Y      Z        X      Y      Z        X      Y      Z   
After scan for Atom:   Atom  AN      X      Y      Z        X      Y      Z        X      Y      Z   
After scan for Atom:   Atom  AN      X      Y      Z        X      Y      Z        X      Y      Z   
After scan for Atom:   Atom  AN      X      Y      Z        X      Y      Z        X      Y      Z   
After scan for Atom:   Atom  AN      X      Y      Z        X      Y      Z        X      Y      Z   
After scan for Atom:   Atom  AN      X      Y      Z        X      Y      Z        X      Y      Z   
After scan for Atom:   Atom  AN      X      Y      Z        X      Y      Z        X      Y      Z   
After scan for Atom:   Atom  AN      X      Y      Z        X      Y      Z        X      Y      Z   
After scan for Atom:   Atom  AN      X      Y      Z        X      Y      Z        X      Y      Z   
After scan for Atom:   Atom  AN      X      Y      Z        X      Y      Z        X      Y      Z   
After scan for Atom:   Atom  AN      X      Y      Z        X      Y      Z        X      Y      Z   
After scan for Atom:   Atom  AN      X      Y      Z        X      Y      Z        X      Y      Z   
After scan for Atom:   Atom  AN      X      Y      Z        X      Y      Z        X      Y      Z   
After scan for Atom:   Atom  AN      X      Y      Z        X      Y      Z        X      Y      Z   
After scan for Atom:   Atom  AN      X      Y      Z        X      Y      Z        X      Y      Z   
After scan for Atom:   Atom  AN      X      Y      Z        X      Y      Z        X      Y      Z   
After scan for Atom:   Atom  AN      X      Y      Z        X      Y      Z        X      Y      Z   
After scan for Atom:   Atom  AN      X      Y      Z        X      Y      Z        X      Y      Z   
After scan for Atom:   Atom  AN      X      Y      Z        X      Y      Z        X      Y      Z   
After scan for Atom:   Atom  AN      X      Y      Z        X      Y      Z        X      Y      Z   
After scan for Atom:   Atom  AN      X      Y      Z        X      Y      Z        X      Y      Z   
After scan for Atom:   Atom  AN      X      Y      Z        X      Y      Z        X      Y      Z   
After scan for Atom:   Atom  AN      X      Y      Z        X      Y      Z        X      Y      Z   
After scan for Atom:   Atom  AN      X      Y      Z        X      Y      Z        X      Y      Z   
After scan for Atom:   Atom  AN      X      Y      Z        X      Y      Z        X      Y      Z   
After scan for Atom:   Atom  AN      X      Y      Z        X      Y      Z        X      Y      Z   
After scan for Atom:   Atom  AN      X      Y      Z        X      Y      Z        X      Y      Z   
After scan for Atom:   Atom  AN      X      Y      Z        X      Y      Z        X      Y      Z   
After scan for Atom:   Atom  AN      X      Y      Z        X      Y      Z        X      Y      Z   
After scan for Atom:   Atom  AN      X      Y      Z        X      Y      Z        X      Y      Z   
After scan for Atom:   Atom  AN      X      Y      Z        X      Y      Z        X      Y      Z   
After scan for Atom:   Atom  AN      X      Y      Z        X      Y      Z        X      Y      Z   
After scan for Atom:   Atom  AN      X      Y      Z        X      Y      Z        X      Y      Z   
After scan for Atom:   Atom  AN      X      Y      Z        X      Y      Z        X      Y      Z   
After scan for Atom:   Atom  AN      X      Y      Z        X      Y      Z        X      Y      Z   
After scan for Atom:   Atom  AN      X      Y      Z        X      Y      Z        X      Y      Z   
After scan for Atom:   Atom  AN      X      Y      Z        X      Y      Z        X      Y      Z   
After scan for Atom:   Atom  AN      X      Y      Z        X      Y      Z        X      Y      Z   
After scan for Atom:   Atom  AN      X      Y      Z        X      Y      Z        X      Y      Z   
After scan for Atom:   Atom  AN      X      Y      Z        X      Y      Z        X      Y      Z   
After scan for Atom:   Atom  AN      X      Y      Z        X      Y      Z        X      Y      Z   
After scan for Atom:   Atom  AN      X      Y      Z        X      Y      Z        X      Y      Z   
After scan for Atom:   Atom  AN      X      Y      Z        X      Y      Z        X      Y      Z   
After scan for Atom:   Atom  AN      X      Y      Z        X      Y      Z        X      Y      Z   
After scan for Atom:   Atom  AN      X      Y      Z        X      Y      Z        X      Y      Z   
After scan for Atom:   Atom  AN      X      Y      Z        X      Y      Z        X      Y      Z   
After scan for Atom:   Atom  AN      X      Y      Z        X      Y      Z        X      Y      Z   
After scan for Atom:   Atom  AN      X      Y      Z        X      Y      Z        X      Y      Z   
After scan for Atom:   Atom  AN      X      Y      Z        X      Y      Z        X      Y      Z   
After scan for Atom:   Atom  AN      X      Y      Z        X      Y      Z        X      Y      Z   
After scan for Atom:   Atom  AN      X      Y      Z        X      Y      Z        X      Y      Z   
After scan for Atom:   Atom  AN      X      Y      Z        X      Y      Z        X      Y      Z   
After scan for Atom:   Atom  AN      X      Y      Z        X      Y      Z        X      Y      Z   
After scan for Atom:   Atom  AN      X      Y      Z        X      Y      Z        X      Y      Z   
After scan for Atom:   Atom  AN      X      Y      Z        X      Y      Z        X      Y      Z   
After scan for Atom:   Atom  AN      X      Y      Z        X      Y      Z        X      Y      Z   
After scan for Atom:   Atom  AN      X      Y      Z        X      Y      Z        X      Y      Z   
After scan for Atom:   Atom  AN      X      Y      Z        X      Y      Z        X      Y      Z   
After scan for Atom:   Atom  AN      X      Y      Z        X      Y      Z        X      Y      Z   
After scan for Atom:   Atom  AN      X      Y      Z        X      Y      Z        X      Y      Z   
After scan for Atom:   Atom  AN      X      Y      Z        X      Y      Z        X      Y      Z   
After scan for Atom:   Atom  AN      X      Y      Z        X      Y      Z        X      Y      Z   
After scan for Atom:   Atom  AN      X      Y      Z        X      Y      Z        X      Y      Z   
 g94    frequencies=
     0.0    0.0    0.0    0.0    0.0    0.0    2.6    4.3    6.6   12.4
    13.5   22.6   25.4   29.6   30.7   45.6   49.2   52.8   55.5   59.6
    66.3   75.0   77.9   89.8   93.9  100.9  102.4  107.3  112.1  121.3
   129.7  139.8  144.9  149.3  160.8  168.1  172.0  184.8  194.7  200.0
   205.9  210.6  213.6  217.5  234.3  235.6  237.6  246.9  248.5  248.7
   249.3  256.7  262.8  276.9  281.2  286.7  289.1  302.5  304.2  314.0
   317.7  324.1  328.5  350.2  356.1  359.4  377.9  390.0  393.2  409.8
   416.0  417.3  417.6  423.6  427.4  431.7  437.1  438.9  447.1  448.7
   453.1  463.8  465.5  477.9  480.3  485.4  494.0  498.7  500.7  501.3
   506.4  507.9  513.7  537.9  544.0  553.7  565.3  573.0  573.6  574.9
   575.5  579.6  590.8  598.7  605.2  615.6  629.8  634.7  635.5  652.7
   658.4  658.4  659.4  663.0  678.3  691.0  691.8  702.2  704.3  705.6
   709.8  718.0  719.4  728.6  731.1  742.1  743.8  744.0  752.9  759.6
   761.0  770.8  784.6  799.2  802.7  806.0  807.7  812.5  815.2  818.1
   828.6  829.5  832.6  834.7  836.6  846.4  849.8  857.7  864.5  881.5
   889.9  894.0  897.6  903.8  905.1  913.4  916.9  923.8  933.9  945.1
   948.3  948.5  957.0  966.1  971.1  974.6  976.4  976.4  977.8  985.4
   987.6  987.8  988.5 1005.5 1009.1 1030.8 1031.1 1032.8 1035.9 1061.3
  1077.1 1083.3 1094.8 1104.6 1107.7 1114.2 1130.2 1135.8 1147.7 1155.4
  1156.1 1156.8 1158.2 1158.6 1162.8 1165.6 1167.0 1174.6 1185.7 1195.9
  1197.4 1199.9 1203.5 1216.6 1224.0 1232.6 1233.8 1238.2 1242.3 1242.4
  1251.9 1251.9 1261.6 1264.6 1276.7 1297.1 1299.4 1309.4 1316.2 1318.6
  1329.7 1337.4 1347.6 1350.7 1355.2 1356.2 1358.4 1366.1 1379.7 1382.2
  1391.3 1391.7 1397.3 1397.5 1400.1 1403.9 1408.7 1416.0 1421.2 1426.3
  1430.5 1436.9 1439.4 1440.4 1444.6 1449.8 1460.9 1461.3 1466.4 1484.4
  1484.5 1485.0 1489.2 1489.3 1490.2 1492.2 1497.6 1503.9 1504.6 1505.1
  1505.8 1507.3 1509.4 1510.9 1513.9 1522.4 1540.9 1544.9 1546.8 1554.8
  1560.8 1570.6 1581.1 1588.0 1599.3 1599.7 1600.9 1606.9 1622.6 1628.4
  1644.6 1647.4 1685.6 1705.5 1724.9 1741.4 2301.7 3023.0 3023.4 3027.3
  3027.7 3034.2 3038.3 3084.7 3085.3 3090.2 3090.7 3092.2 3095.4 3103.7
  3104.0 3105.5 3105.7 3112.4 3132.5 3142.8 3162.3 3163.7 3168.7 3183.9
  3185.6 3186.4 3193.1 3197.3 3197.4 3197.8 3198.2 3200.0 3200.4 3202.3
  3204.6 3204.8 3212.7 3212.8 3223.9 3224.1 3242.8
 g94    symmetries=
                                                 A      A      A      A
       A      A      A      A      A      A      A      A      A      A
       A      A      A      A      A      A      A      A      A      A
       A      A      A      A      A      A      A      A      A      A
       A      A      A      A      A      A      A      A      A      A
       A      A      A      A      A      A      A      A      A      A
       A      A      A      A      A      A      A      A      A      A
       A      A      A      A      A      A      A      A      A      A
       A      A      A      A      A      A      A      A      A      A
       A      A      A      A      A      A      A      A      A      A
       A      A      A      A      A      A      A      A      A      A
       A      A      A      A      A      A      A      A      A      A
       A      A      A      A      A      A      A      A      A      A
       A      A      A      A      A      A      A      A      A      A
       A      A      A      A      A      A      A      A      A      A
       A      A      A      A      A      A      A      A      A      A
       A      A      A      A      A      A      A      A      A      A
       A      A      A      A      A      A      A      A      A      A
       A      A      A      A      A      A      A      A      A      A
       A      A      A      A      A      A      A      A      A      A
       A      A      A      A      A      A      A      A      A      A
       A      A      A      A      A      A      A      A      A      A
       A      A      A      A      A      A      A      A      A      A
       A      A      A      A      A      A      A      A      A      A
       A      A      A      A      A      A      A      A      A      A
       A      A      A      A      A      A      A      A      A      A
       A      A      A      A      A      A      A      A      A      A
       A      A      A      A      A      A      A      A      A      A
       A      A      A      A      A      A      A      A      A      A
       A      A      A      A      A      A      A      A      A      A
       A      A      A      A      A      A      A      A      A      A
       A      A      A      A      A      A      A      A      A      A
       A      A      A      A      A      A      A
 atomic masses:
 12.0000 12.0000 12.0000 14.0031 12.0000 15.9949 12.0000 12.0000 12.0000 12.0000
 12.0000 12.0000 12.0000 12.0000 12.0000 15.9949 14.0031 12.0000 12.0000 12.0000
 12.0000 12.0000 12.0000 12.0000 12.0000 12.0000 12.0000 12.0000 12.0000 12.0000
 12.0000 12.0000 31.9721 12.0000 12.0000 12.0000 12.0000 12.0000 12.0000 12.0000
 12.0000 12.0000 12.0000 31.9721 12.0000 12.0000 12.0000 12.0000 12.0000 12.0000
 12.0000 12.0000 12.0000 12.0000 15.9949 12.0000 12.0000 12.0000 12.0000 12.0000
 12.0000 12.0000 12.0000 12.0000 15.9949 12.0000 12.0000 12.0000 12.0000  1.0078
  1.0078  1.0078  1.0078  1.0078  1.0078  1.0078  1.0078  1.0078  1.0078  1.0078
  1.0078  1.0078  1.0078  1.0078  1.0078  1.0078  1.0078  1.0078  1.0078  1.0078
  1.0078  1.0078  1.0078  1.0078  1.0078  1.0078  1.0078  1.0078  1.0078  1.0078
  1.0078  1.0078  1.0078  1.0078  1.0078  1.0078  1.0078  1.0078  1.0078
 looking for force constants in 
 ./IDT-A_3_C0S3.fchk                                                            
  
 cant find forces in .fchk file
 NO FORCES: 
 ./IDT-A_3_C0S3.log                                                             
                                          
 g94-fc frequencies=

 at 99999: n3=           0
 symm operator            1 :  F  nop=           0
 symm operator            2 :  F  nop=           0
 symm operator            3 :  F  nop=           0
 symm operator            4 :  F  nop=           0
 symm operator            5 :  F  nop=           0
 symm operator            6 :  F  nop=           0
 symm operator            7 :  F  nop=           0
 The point group of the molecule is  C1
 Symmetry rotation matrix:
   1.00000   0.00000   0.00000
   0.00000   1.00000   0.00000
   0.00000   0.00000   1.00000

 highest evec of mol 2

 Enter nber and list of atoms to keep of mol #2
 keep list:         109           1           2           3           4
           5           6           7           8           9          10
          11          12          13          14          15          16
          17          18          19          20          21          22
          23          24          25          26          27          28
          29          30          31          32          33          34
          35          36          37          38          39          40
          41          42          43          44          45          46
          47          48          49          50          51          52
          53          54          55          56          57          58
          59          60          61          62          63          64
          65          66          67          68          69          70
          71          72          73          74          75          76
          77          78          79          80          81          82
          83          84          85          86          87          88
          89          90          91          92          93          94
          95          96          97          98          99         100
         101         102         103         104         105         106
         107         108         109
 reordering atoms
           1   16.3498823389481     
           2   16.0447832024158     
           3   16.9848891596646     
           4   14.6059869842401     
           5   14.1041416139357     
           6   14.8132024230807     
           7   12.6783117317996     
           8   12.1394112828316     
           9   10.8124597619098     
          10   9.95045972814869     
          11   8.56308960159070     
          12   7.96428154943381     
          13   6.63532247111654     
          14   5.83168966078618     
          15   4.41434902944223     
          16   3.91867523459447     
          17   3.65052910491167     
          18   2.25985397319895     
          19   1.26488023051698     
          20 -7.007211001206476E-002
          21 -0.431047252010652     
          22  -1.79872032029559     
          23  -2.96279385206511     
          24  -4.33041477284972     
          25  -4.68335205643264     
          26  -6.02316954881550     
          27  -7.02268653184147     
          28  -6.69848535910416     
          29  -7.73418111460432     
          30  -7.65154699404131     
          31  -8.85326869723984     
          32  -9.85141211841120     
          33  -9.33544407004304     
          34  -11.0638521529188     
          35  -12.3188422971697     
          36  -13.2903740944661     
          37  -13.0120074881423     
          38  -11.7576019972295     
          39  -10.7855924756495     
          40  -9.34453394304417     
          41  -9.31480137977093     
          42  -8.52763008055359     
          43  -14.2255719991993     
          44  -14.7429937816393     
          45  -16.3237184053482     
          46  -16.4292998242401     
          47  -15.2217330487521     
          48  -14.7318355049180     
          49  -14.7625816231329     
          50  -15.5494342764220     
          51  -5.34485150622971     
          52  0.588595636289560     
          53   1.92209697002513     
          54   4.14194008415333     
          55   3.41889217713852     
          56   5.56575355130353     
          57   6.10695530434105     
          58   7.43350925092655     
          59   8.29330205093942     
          60   9.68054187746272     
          61   10.2821331236067     
          62   11.6121932225580     
          63   12.4147189271838     
          64   13.8346572151517     
          65   14.3153660616060     
          66   11.8611645758287     
          67   10.4863194589070     
          68   7.75623041352274     
          69   6.38063466206451     
          70   17.3640095999272     
          71   16.2818478683562     
          72   15.6624941687048     
          73   16.1459619877821     
          74   16.9416602403883     
          75   18.0099982866768     
          76   16.7362365634623     
          77   12.7899571498592     
          78   10.4308811588600     
          79   8.55437931242309     
          80   6.18533979873973     
          81   1.53729552668831     
          82 -0.846237979229198     
          83  -3.90448535514780     
          84  -6.29391568307779     
          85  -8.06151182532009     
          86  -6.75818700312780     
          87  -12.5196058449137     
          88  -11.5569307300176     
          89  -9.89199778093362     
          90  -9.73445267555738     
          91  -8.28694124861071     
          92  -8.54252514236117     
          93  -7.48641575043728     
          94  -8.93445434451900     
          95  -17.0732622185478     
          96  -17.3366626495712     
          97  -14.1848059527806     
          98  -15.7907268391220     
          99  -14.3443246079719     
         100  -15.5331025345254     
         101  -15.1444375391087     
         102  -16.5910474482765     
         103  -5.06690487730502     
         104  0.323089285536014     
         105   2.70325165163690     
         106   5.45761562080148     
         107   7.81683524308639     
         108   9.69350886846174     
         109   12.0627721007834     
           1           1
           2           2
           3           3
           4           4
           5           5
           6           6
           7           7
           8           8
           9           9
          10          10
          11          11
          12          12
          13          13
          14          14
          15          15
          16          16
          17          17
          18          18
          19          19
          20          20
          21          21
          22          22
          23          23
          24          24
          25          25
          26          26
          27          27
          28          28
          29          29
          30          30
          31          31
          32          32
          33          33
          34          34
          35          35
          36          36
          37          37
          38          38
          39          39
          40          40
          41          41
          42          42
          43          43
          44          44
          45          45
          46          46
          47          47
          48          48
          49          49
          50          50
          51          51
          52          52
          53          53
          54          54
          55          55
          56          56
          57          57
          58          58
          59          59
          60          60
          61          61
          62          62
          63          63
          64          64
          65          65
          66          66
          67          67
          68          68
          69          69
          70          70
          71          71
          72          72
          73          73
          74          74
          75          75
          76          76
          77          77
          78          78
          79          79
          80          80
          81          81
          82          82
          83          83
          84          84
          85          85
          86          86
          87          87
          88          88
          89          89
          90          90
          91          91
          92          92
          93          93
          94          94
          95          95
          96          96
          97          97
          98          98
          99          99
         100         100
         101         101
         102         102
         103         103
         104         104
         105         105
         106         106
         107         107
         108         108
         109         109
 initial cartes coords mol 1
   6  -1.39563   2.85233  16.39072
   6  -0.05260   2.23648  15.98109
   6   0.40687   1.11389  16.91889
   7  -0.04801   1.80779  14.55486
   6  -0.91783   0.78159  14.14603
   8  -1.67267   0.24449  14.95279
   6  -0.87513   0.39589  12.73263
   6  -1.71924  -0.61875  12.27340
   6  -1.70429  -1.00628  10.94859
   6  -0.84309  -0.40123  10.00394
   6  -0.81788  -0.79860   8.61261
   6  -1.65532  -1.82100   8.10504
   6  -1.62293  -2.19302   6.77966
   6  -0.75308  -1.56728   5.87676
   6  -0.74991  -1.99795   4.48673
   8  -1.46342  -2.88527   4.03653
   7   0.15582  -1.31241   3.62260
   6   0.18433  -1.70905   2.24646
   6  -0.04429  -0.76960   1.23982
   6  -0.01162  -1.14930  -0.09315
   6   0.24509  -2.48400  -0.44732
   6   0.27810  -2.87483  -1.81594
   6   0.30671  -3.20439  -2.98023
   6   0.33898  -3.58390  -4.34828
   6   0.55226  -4.92404  -4.72937
   6   0.59169  -5.28656  -6.07112
   6   0.42152  -4.33294  -7.06562
   6   0.20324  -2.98852  -6.71411
   6   0.00962  -1.96420  -7.73261
   6  -0.64222  -0.73558  -7.59815
   6  -0.63998   0.00401  -8.77773
   6   0.01274  -0.64541  -9.83480
  16   0.64522  -2.18691  -9.36266
   6  -0.01004   0.14176 -11.01069
   6   0.51542  -0.09052 -12.30240
   6   0.33231   0.88015 -13.25381
   6  -0.37439   2.08885 -12.93216
   6  -0.89998   2.32195 -11.64431
   6  -0.71684   1.35203 -10.69012
   6  -1.17800   1.34917  -9.22802
   6  -2.71830   1.40486  -9.12083
   6  -0.53734   2.50668  -8.43005
   6  -0.39400   2.88031 -14.11567
  16  -1.01796   4.42839 -14.58622
   6  -0.38920   4.19105 -16.18822
   6   0.26384   2.98905 -16.35152
   6   0.26130   2.23666 -15.16261
   6   0.79430   0.88780 -14.71621
   6   2.33443   0.82676 -14.82152
   6   0.15151  -0.26616 -15.51738
   6   0.16550  -2.62865  -5.35894
   6   0.46983  -3.42432   0.57138
   6   0.44217  -3.03709   1.90257
   6   1.03424  -0.26192   4.02366
   8   1.76813   0.26489   3.19668
   6   0.98636   0.10577   5.43071
   6   1.83158   1.12185   5.89626
   6   1.81617   1.50545   7.21853
   6   0.95196   0.89723   8.16075
   6   0.92651   1.29434   9.55182
   6   1.76138   2.31520  10.06321
   6   1.72808   2.68578  11.39229
   6   0.85901   2.05870  12.28980
   6   0.85084   2.47813  13.69286
   8   1.58185   3.36716  14.11900
   6   0.00435   1.03252  11.82945
   6   0.02948   0.63848  10.44979
   6   0.07923  -0.14321   7.71219
   6   0.10443  -0.53780   6.33027
   1  -1.30635   3.27814  17.39493
   1  -2.19054   2.10771  16.39256
   1  -1.66955   3.66063  15.70731
   1   0.69895   3.02289  16.00452
   1  -0.31243   0.29634  16.94306
   1   0.52327   1.51376  17.93096
   1   1.37663   0.72257  16.59982
   1  -2.38347  -1.09039  12.98658
   1  -2.37448  -1.79555  10.63811
   1  -2.34199  -2.33086   8.76572
   1  -2.26800  -2.97774   6.40493
   1  -0.23073   0.26039   1.50794
   1  -0.18528  -0.41442  -0.86997
   1   0.68660  -5.67177  -3.95816
   1   0.75019  -6.32346  -6.34165
   1   0.42758  -4.63398  -8.10650
   1  -1.11306  -0.43417  -6.67379
   1   1.04562  -1.00998 -12.52181
   1  -1.42985   3.24151 -11.42479
   1  -3.18668   0.59347  -9.68136
   1  -3.09393   2.35407  -9.50948
   1  -3.02834   1.32492  -8.07671
   1   0.55203   2.48215  -8.49654
   1  -0.81861   2.44171  -7.37683
   1  -0.88421   3.47028  -8.80988
   1  -0.54005   4.96396 -16.92677
   1   0.71245   2.68932 -17.28829
   1   2.80414   1.63424 -14.25659
   1   2.64614   0.91115 -15.86509
   1   2.70783  -0.12515 -14.43697
   1  -0.93778  -0.23918 -15.44948
   1   0.49642  -1.23242 -15.14209
   1   0.43179  -0.19743 -16.57098
   1   0.03031  -1.59461  -5.07059
   1   0.66763  -4.45711   0.31139
   1   0.60571  -3.76552   2.68373
   1   2.49709   1.59595   5.18591
   1   2.48616   2.29272   7.53365
   1   2.44957   2.82759   9.40571
   1   2.37297   3.46904  11.77014
 initial cartes coords mol 2
   6  -1.07734   3.20896  16.34988
   6   0.02950   2.19444  16.04478
   6   0.02569   0.98460  16.98489
   7   0.01734   1.77746  14.60599
   6  -1.09161   1.08565  14.10414
   8  -2.04951   0.81395  14.81320
   6  -1.06007   0.69481  12.67831
   6  -2.15121   0.00262  12.13941
   6  -2.15287  -0.37636  10.81246
   6  -1.06019  -0.08293   9.95046
   6  -1.04776  -0.47265   8.56309
   6  -2.12882  -1.17633   7.96428
   6  -2.10443  -1.54535   6.63532
   6  -1.00120  -1.23269   5.83169
   6  -1.01370  -1.64652   4.41435
   8  -1.94623  -2.25159   3.91868
   7   0.12162  -1.30371   3.65053
   6   0.13618  -1.69878   2.25985
   6  -0.02382  -0.73871   1.26488
   6  -0.00696  -1.11546  -0.07007
   6   0.16643  -2.46372  -0.43105
   6   0.18231  -2.85284  -1.79872
   6   0.19674  -3.18471  -2.96279
   6   0.21236  -3.57857  -4.33041
   6   0.38007  -4.93021  -4.68335
   6   0.40258  -5.29512  -6.02317
   6   0.25141  -4.33965  -7.02269
   6   0.08468  -2.98222  -6.69849
   6  -0.08493  -1.95925  -7.73418
   6  -0.76278  -0.76050  -7.65155
   6  -0.71531  -0.01748  -8.85327
   6  -0.00591  -0.64342  -9.85141
  16   0.63379  -2.16601  -9.33544
   6   0.01095   0.15185 -11.06385
   6   0.59338  -0.06026 -12.31884
   6   0.42393   0.91357 -13.29037
   6  -0.31927   2.08671 -13.01201
   6  -0.90192   2.29858 -11.75760
   6  -0.73274   1.32492 -10.78559
   6  -1.26358   1.31349  -9.34453
   6  -2.80700   1.33516  -9.31480
   6  -0.69619   2.49425  -8.52763
   6  -0.30191   2.88347 -14.22557
  16  -0.94056   4.40829 -14.74299
   6  -0.23082   4.18614 -16.32372
   6   0.45281   3.00424 -16.42930
   6   0.40967   2.25859 -15.22173
   6   0.95388   0.92546 -14.73184
   6   2.49720   0.89900 -14.76258
   6   0.38257  -0.25295 -15.54943
   6   0.07587  -2.61907  -5.34485
   6   0.32420  -3.41957   0.58860
   6   0.31108  -3.03770   1.92210
   6   1.24471  -0.60493   4.14194
   8   2.18813  -0.34329   3.41889
   6   1.20539  -0.21701   5.56575
   6   2.29591   0.47483   6.10696
   6   2.29600   0.85326   7.43351
   6   1.20205   0.55951   8.29330
   6   1.18939   0.94950   9.68054
   6   2.26874   1.65368  10.28213
   6   2.24324   2.02078  11.61219
   6   1.13989   1.70547  12.41472
   6   1.14566   2.11388  13.83466
   8   2.09199   2.71823  14.31537
   6   0.04617   1.00784  11.86116
   6   0.05862   0.62174  10.48632
   6   0.08328  -0.14558   7.75623
   6   0.09590  -0.53284   6.38063
   1  -0.93724   3.59302  17.36401
   1  -2.06676   2.75863  16.28185
   1  -1.02456   4.05722  15.66249
   1   0.98801   2.69860  16.14596
   1  -0.91872   0.44363  16.94166
   1   0.18328   1.33087  18.01000
   1   0.84002   0.29914  16.73624
   1  -2.98600  -0.22403  12.78996
   1  -3.01215  -0.90933  10.43088
   1  -2.99664  -1.43437   8.55438
   1  -2.93017  -2.08136   6.18534
   1  -0.15492   0.30104   1.53730
   1  -0.12781  -0.37019  -0.84624
   1   0.49273  -5.67388  -3.90449
   1   0.52815  -6.33733  -6.29392
   1   0.24153  -4.64823  -8.06151
   1  -1.29418  -0.45907  -6.75819
   1   1.16061  -0.96326 -12.51961
   1  -1.46942   3.20143 -11.55693
   1  -3.22092   0.50582  -9.89200
   1  -3.18913   2.26983  -9.73445
   1  -3.17187   1.25367  -8.28694
   1   0.39564   2.49120  -8.54253
   1  -1.02553   2.43307  -7.48642
   1  -1.04236   3.44840  -8.93445
   1  -0.36818   4.95022 -17.07326
   1   0.95741   2.69844 -17.33666
   1   2.91385   1.72658 -14.18481
   1   2.86136   0.98058 -15.79073
   1   2.87723  -0.03719 -14.34432
   1  -0.70923  -0.24691 -15.53310
   1   0.72675  -1.20866 -15.14444
   1   0.71057  -0.19118 -16.59105
   1  -0.01588  -1.57690  -5.06690
   1   0.45753  -4.46081   0.32309
   1   0.43091  -3.77792   2.70325
   1   3.13172   0.70159   5.45762
   1   3.15477   1.38572   7.81684
   1   3.13697   1.91396   9.69351
   1   3.06860   2.55661  12.06277
 loop 1 0
 mod cartes coords mol 2
   6  -1.07734   3.20896  16.34988
   6   0.02950   2.19444  16.04478
   6   0.02569   0.98460  16.98489
   7   0.01734   1.77746  14.60599
   6  -1.09161   1.08565  14.10414
   8  -2.04951   0.81395  14.81320
   6  -1.06007   0.69481  12.67831
   6  -2.15121   0.00262  12.13941
   6  -2.15287  -0.37636  10.81246
   6  -1.06019  -0.08293   9.95046
   6  -1.04776  -0.47265   8.56309
   6  -2.12882  -1.17633   7.96428
   6  -2.10443  -1.54535   6.63532
   6  -1.00120  -1.23269   5.83169
   6  -1.01370  -1.64652   4.41435
   8  -1.94623  -2.25159   3.91868
   7   0.12162  -1.30371   3.65053
   6   0.13618  -1.69878   2.25985
   6  -0.02382  -0.73871   1.26488
   6  -0.00696  -1.11546  -0.07007
   6   0.16643  -2.46372  -0.43105
   6   0.18231  -2.85284  -1.79872
   6   0.19674  -3.18471  -2.96279
   6   0.21236  -3.57857  -4.33041
   6   0.38007  -4.93021  -4.68335
[...]
  7.966760351816407E-005  1.708260972853190E-008
  8.142872035572840E-005  1.708260972853190E-008
  8.254172554318077E-005  1.708260972853190E-008
  8.585510063520565E-005  1.708260972853190E-008
  8.746478337088627E-005  1.708260972853190E-008
  8.889475248162130E-005  1.708260972853190E-008
  9.059323775539737E-005  1.708260972853190E-008
  9.316458628653902E-005  1.708260972853190E-008
  9.500086637373174E-005  1.708260972853190E-008
  9.550482875386864E-005  1.708260972853190E-008
  9.845320171154718E-005  1.708260972853190E-008
  1.012273735542692E-004  1.708260972853190E-008
  1.077236660285683E-004  1.708260972853190E-008
  1.127750645803849E-004  1.708260972853190E-008
  1.156896961938760E-004  1.708260972853190E-008
  1.195165606202238E-004  1.708260972853190E-008
  1.206936274367249E-004  1.708260972853190E-008
  1.224725126845420E-004  1.708260972853190E-008
  1.225423361798574E-004  1.708260972853190E-008
  1.261637583139517E-004  1.708260972853190E-008
  1.319395106743210E-004  1.708260972853190E-008
  1.343569790650237E-004  1.708260972853190E-008
  1.354642243559670E-004  1.708260972853190E-008
  1.363598354535734E-004  1.708260972853190E-008
  1.373245093945603E-004  1.708260972853190E-008
  1.407072295847460E-004  1.708260972853190E-008
  1.438359324991355E-004  1.708260972853190E-008
  1.476174332947590E-004  1.708260972853190E-008
  1.486417033122609E-004  1.708260972853190E-008
  1.569219052334336E-004  1.708260972853190E-008
  1.588871588437347E-004  1.708260972853190E-008
  1.603606033857593E-004  1.708260972853190E-008
  1.632460710118245E-004  1.708260972853190E-008
  1.673695641730490E-004  1.708260972853190E-008
  1.783158342075477E-004  1.708260972853190E-008
  1.785569147856694E-004  1.708260972853190E-008
  1.813197286113965E-004  1.708260972853190E-008
  1.851569010378642E-004  1.708260972853190E-008
  1.919442809004845E-004  1.708260972853190E-008
  2.009206039936046E-004  1.708260972853190E-008
  2.117921171203878E-004  1.708260972853190E-008
  2.219865469744689E-004  1.708260972853190E-008
  2.232696947133320E-004  1.708260972853190E-008
  2.293256301188129E-004  1.708260972853190E-008
  2.301088349715355E-004  1.708260972853190E-008
  2.301344845610433E-004  1.708260972853190E-008
  2.507482523032195E-004  1.708260972853190E-008
  2.554765855173029E-004  1.708260972853190E-008
  2.687501141749911E-004  1.708260972853190E-008
  2.750092253386371E-004  1.708260972853190E-008
  2.856686634907626E-004  1.708260972853190E-008
  2.863498041554780E-004  1.708260972853190E-008
  2.937491743793285E-004  1.708260972853190E-008
  2.949075184130789E-004  1.708260972853190E-008
  3.014664794359742E-004  1.708260972853190E-008
  3.051177184176414E-004  1.708260972853190E-008
  3.111353333681403E-004  1.708260972853190E-008
  3.219099199436719E-004  1.708260972853190E-008
  3.414145020289663E-004  1.708260972853190E-008
  3.428924583274007E-004  1.708260972853190E-008
  3.554626306952815E-004  1.708260972853190E-008
  3.597376375038839E-004  1.708260972853190E-008
  3.647002739343696E-004  1.708260972853190E-008
  3.807785228184617E-004  1.708260972853190E-008
  3.809075850135933E-004  1.708260972853190E-008
  3.831069913646677E-004  1.708260972853190E-008
  3.862201675313893E-004  1.708260972853190E-008
  3.919813726165639E-004  1.708260972853190E-008
  3.924837921496959E-004  1.708260972853190E-008
  3.971761719865717E-004  1.708260972853190E-008
  4.091740990078885E-004  1.708260972853190E-008
  4.129569475123479E-004  1.708260972853190E-008
  4.231445823298744E-004  1.708260972853190E-008
  4.259044455330765E-004  1.708260972853190E-008
  4.286683222171319E-004  1.708260972853190E-008
  4.316715026988395E-004  1.708260972853190E-008
  4.325992315529510E-004  1.708260972853190E-008
  4.363475669154290E-004  1.708260972853190E-008
  4.411495879146734E-004  1.708260972853190E-008
  4.421767621031105E-004  1.708260972853190E-008
  4.458146021304778E-004  1.708260972853190E-008
  4.587670828352113E-004  1.708260972853190E-008
  4.606540909393629E-004  1.708260972853190E-008
  4.619443090530625E-004  1.708260972853190E-008
  4.669200889324453E-004  1.708260972853190E-008
  4.687750921363046E-004  1.708260972853190E-008
  4.814168848064704E-004  1.708260972853190E-008
  4.952534205228500E-004  1.708260972853190E-008
  5.067281303855975E-004  1.708260972853190E-008
  5.106870598686205E-004  1.708260972853190E-008
  5.230028641463733E-004  1.708260972853190E-008
  5.337971776039974E-004  1.708260972853190E-008
  5.343997213718742E-004  1.708260972853190E-008
  5.345271436959793E-004  1.708260972853190E-008
  5.348119176544505E-004  1.708260972853190E-008
  5.371650870355357E-004  1.708260972853190E-008
  5.437760114537787E-004  1.708260972853190E-008
  5.440331073076788E-004  1.708260972853190E-008
  5.540854518960086E-004  1.708260972853190E-008
  5.559447674333143E-004  1.708260972853190E-008
  5.560116399712221E-004  1.708260972853190E-008
  5.561670961642357E-004  1.708260972853190E-008
  5.561994824441341E-004  1.708260972853190E-008
  5.562068962421915E-004  1.708260972853190E-008
  5.562074966926690E-004  1.708260972853190E-008
  5.739865963813284E-004  1.708260972853190E-008
  5.784060704854460E-004  1.708260972853190E-008
  5.784411265275219E-004  1.708260972853190E-008
  5.877724808723380E-004  1.708260972853190E-008
  5.939536185069701E-004  1.708260972853190E-008
  5.944638438044758E-004  1.708260972853190E-008
  5.963185701326036E-004  1.708260972853190E-008
  5.979538650452075E-004  1.708260972853190E-008
  5.984834002211212E-004  1.708260972853190E-008
  5.988894745942194E-004  1.708260972853190E-008
  5.992389392172695E-004  1.708260972853190E-008
  5.995399038822785E-004  1.708260972853190E-008
  5.998493489322627E-004  1.708260972853190E-008
  6.001830200595105E-004  1.708260972853190E-008
  6.004596503749443E-004  1.708260972853190E-008
  6.021876094772817E-004  1.708260972853190E-008
  6.100405787504287E-004  1.708260972853190E-008
  6.166513529862440E-004  1.708260972853190E-008
  6.224497303358129E-004  1.708260972853190E-008
  6.249607845639952E-004  1.708260972853190E-008
  6.254036006577514E-004  1.708260972853190E-008
  6.287085397414075E-004  1.708260972853190E-008
  6.342647335124803E-004  1.708260972853190E-008
  6.362366027787797E-004  1.708260972853190E-008
  6.370998712339370E-004  1.708260972853190E-008
  6.407441703895042E-004  1.708260972853190E-008
  6.442277240067712E-004  1.708260972853190E-008
  6.450014453600647E-004  1.708260972853190E-008
  6.468154805519952E-004  1.708260972853190E-008
  6.501746634272803E-004  1.708260972853190E-008
  6.521132647921155E-004  1.708260972853190E-008
  6.704927298571271E-004  1.708260972853190E-008
  6.753835486589180E-004  1.708260972853190E-008
  6.758963925729711E-004  1.708260972853190E-008
  6.939349609308288E-004  1.708260972853190E-008
  6.977132766146452E-004  1.708260972853190E-008
  6.984976398287761E-004  1.708260972853190E-008
  7.677483352184748E-004  1.708260972853190E-008
  7.975380803651051E-004  1.708260972853190E-008
  8.127214983770954E-004  1.708260972853190E-008
  8.507341225155912E-004  1.708260972853190E-008
  9.049742098322566E-004  1.708260972853190E-008
  9.376230170566465E-004  1.708260972853190E-008
  9.861818516236471E-004  1.708260972853190E-008
  9.890696872537988E-004  1.708260972853190E-008
  9.907862757111449E-004  1.708260972853190E-008
  1.062956066708107E-003  1.708260972853190E-008
  1.074542891312696E-003  1.708260972853190E-008
  1.079311046850615E-003  1.708260972853190E-008
  1.089790875772913E-003  1.708260972853190E-008
  1.093223559400881E-003  1.708260972853190E-008
  1.094156386192241E-003  1.708260972853190E-008
  1.094847345619215E-003  1.708260972853190E-008
  1.095347335000560E-003  1.708260972853190E-008
  1.098381552334201E-003  1.708260972853190E-008
  1.106324827560045E-003  1.708260972853190E-008
  1.110067876379342E-003  1.708260972853190E-008
  1.126844302892195E-003  1.708260972853190E-008
  1.132832656949054E-003  1.708260972853190E-008
  1.133797113179517E-003  1.708260972853190E-008
  1.135367294711881E-003  1.708260972853190E-008
  1.142244710821955E-003  1.708260972853190E-008
  1.142964748707994E-003  1.708260972853190E-008
  1.147786162900607E-003  1.708260972853190E-008
  1.154443096468214E-003  1.708260972853190E-008
  1.165393198040050E-003  1.708260972853190E-008
  1.165523048168996E-003  1.708260972853190E-008
  1.165856577234133E-003  1.708260972853190E-008
  1.166085390299909E-003  1.708260972853190E-008
  1.171154528224262E-003  1.708260972853190E-008
  1.171718697117427E-003  1.708260972853190E-008
  1.171739933854858E-003  1.708260972853190E-008
  1.173749082285026E-003  1.708260972853190E-008
  1.178873526691909E-003  1.708260972853190E-008
  1.179430433445369E-003  1.708260972853190E-008
  1.179929395497985E-003  1.708260972853190E-008
  1.180284192941829E-003  1.708260972853190E-008
  1.181504744808772E-003  1.708260972853190E-008
  1.185590650510912E-003  1.708260972853190E-008
  1.207119272150245E-003  1.708260972853190E-008
  1.261437975439736E-003  1.708260972853190E-008
  1.295303853664284E-003  1.708260972853190E-008
  1.372822903922365E-003  1.708260972853190E-008
  1.481804832945491E-003  1.708260972853190E-008
  1.533769940934040E-003  1.708260972853190E-008
  1.560392958124616E-003  1.708260972853190E-008
  1.584787020979988E-003  1.708260972853190E-008
  1.609977288122428E-003  1.708260972853190E-008
  1.659842062463256E-003  1.708260972853190E-008
  1.668819441598304E-003  1.708260972853190E-008
  1.669021422176370E-003  1.708260972853190E-008
  1.715147379498146E-003  1.708260972853190E-008
  1.720653159298608E-003  1.708260972853190E-008
  1.783548097500403E-003  1.708260972853190E-008
  1.906047027478482E-003  1.708260972853190E-008
  1.918591190792110E-003  1.708260972853190E-008
  2.035988430196284E-003  1.708260972853190E-008
  2.053972292182480E-003  1.708260972853190E-008
  2.161771057191378E-003  1.708260972853190E-008
  2.280162531417439E-003  1.708260972853190E-008
  2.338955397610258E-003  1.708260972853190E-008
  2.341253077522744E-003  1.708260972853190E-008
  2.351774310567390E-003  1.708260972853190E-008
  2.371364265825245E-003  1.708260972853190E-008
  2.521390458075244E-003  1.708260972853190E-008
  2.526405597275301E-003  1.708260972853190E-008
  2.560363493993497E-003  1.708260972853190E-008
  2.789528397357149E-003  1.708260972853190E-008
  2.921878129198891E-003  1.708260972853190E-008
  3.023489032703196E-003  1.708260972853190E-008
  3.025126022083583E-003  1.708260972853190E-008
  3.027697619649149E-003  1.708260972853190E-008
  3.030448290249447E-003  1.708260972853190E-008
  3.033949484173472E-003  1.708260972853190E-008
  3.042079934082080E-003  1.708260972853190E-008
  3.042896927888074E-003  1.708260972853190E-008
  3.046704899043929E-003  1.708260972853190E-008
  3.046728385073622E-003  1.708260972853190E-008
  3.081279251656069E-003  1.708260972853190E-008
  3.091840329858112E-003  1.708260972853190E-008
  3.092116304440876E-003  1.708260972853190E-008
  3.096107286330918E-003  1.708260972853190E-008
  3.122737106731810E-003  1.708260972853190E-008
  3.412251795518390E-003  1.708260972853190E-008
  3.417501816694999E-003  1.708260972853190E-008
  3.640922404307139E-003  1.708260972853190E-008
  3.668652746048266E-003  1.708260972853190E-008
  3.675226908945887E-003  1.708260972853190E-008
  3.676994242579160E-003  1.708260972853190E-008
  3.721906983197867E-003  1.708260972853190E-008
  3.723603693383263E-003  1.708260972853190E-008
  3.772219183628665E-003  1.708260972853190E-008
  3.916961450850640E-003  1.708260972853190E-008
  3.944988416862105E-003  1.708260972853190E-008
  4.039153310726730E-003  1.708260972853190E-008
   21.8043774498519       1.708260972853190E-008
   34.8547693998071       1.708260972853190E-008
   398.177614849277       1.708260972853190E-008
 cut=1d-8, nber non-redundant internal coords=         321
 Check on Eigenvals of non-red overlap matrix:
  0.00000002  0.00000011  0.00000021  0.00000032  0.00000049  0.00000089  0.00000131  0.00000149
  0.00000200  0.00000266  0.00000318  0.00000369  0.00000461  0.00000542  0.00000624  0.00000717
  0.00000802  0.00000959  0.00001032  0.00001054  0.00001128  0.00001141  0.00001369  0.00001434
  0.00001561  0.00001573  0.00001645  0.00001763  0.00001785  0.00001826  0.00001849  0.00001891
  0.00002157  0.00002238  0.00002389  0.00002432  0.00002457  0.00002549  0.00002828  0.00002947
  0.00002997  0.00003088  0.00003252  0.00003345  0.00003511  0.00003598  0.00003831  0.00003866
  0.00003994  0.00004078  0.00004253  0.00004261  0.00004383  0.00004524  0.00004758  0.00004879
  0.00004884  0.00004917  0.00005105  0.00005227  0.00005235  0.00005365  0.00005518  0.00005658
  0.00005814  0.00005862  0.00006023  0.00006073  0.00006335  0.00006456  0.00006727  0.00006903
  0.00007100  0.00007134  0.00007236  0.00007387  0.00007502  0.00007766  0.00007967  0.00008143
  0.00008254  0.00008586  0.00008746  0.00008889  0.00009059  0.00009316  0.00009500  0.00009550
  0.00009845  0.00010123  0.00010772  0.00011278  0.00011569  0.00011952  0.00012069  0.00012247
  0.00012254  0.00012616  0.00013194  0.00013436  0.00013546  0.00013636  0.00013732  0.00014071
  0.00014384  0.00014762  0.00014864  0.00015692  0.00015889  0.00016036  0.00016325  0.00016737
  0.00017832  0.00017856  0.00018132  0.00018516  0.00019194  0.00020092  0.00021179  0.00022199
  0.00022327  0.00022933  0.00023011  0.00023013  0.00025075  0.00025548  0.00026875  0.00027501
  0.00028567  0.00028635  0.00029375  0.00029491  0.00030147  0.00030512  0.00031114  0.00032191
  0.00034141  0.00034289  0.00035546  0.00035974  0.00036470  0.00038078  0.00038091  0.00038311
  0.00038622  0.00039198  0.00039248  0.00039718  0.00040917  0.00041296  0.00042314  0.00042590
  0.00042867  0.00043167  0.00043260  0.00043635  0.00044115  0.00044218  0.00044581  0.00045877
  0.00046065  0.00046194  0.00046692  0.00046878  0.00048142  0.00049525  0.00050673  0.00051069
  0.00052300  0.00053380  0.00053440  0.00053453  0.00053481  0.00053717  0.00054378  0.00054403
  0.00055409  0.00055594  0.00055601  0.00055617  0.00055620  0.00055621  0.00055621  0.00057399
  0.00057841  0.00057844  0.00058777  0.00059395  0.00059446  0.00059632  0.00059795  0.00059848
  0.00059889  0.00059924  0.00059954  0.00059985  0.00060018  0.00060046  0.00060219  0.00061004
  0.00061665  0.00062245  0.00062496  0.00062540  0.00062871  0.00063426  0.00063624  0.00063710
  0.00064074  0.00064423  0.00064500  0.00064682  0.00065017  0.00065211  0.00067049  0.00067538
  0.00067590  0.00069393  0.00069771  0.00069850  0.00076775  0.00079754  0.00081272  0.00085073
  0.00090497  0.00093762  0.00098618  0.00098907  0.00099079  0.00106296  0.00107454  0.00107931
  0.00108979  0.00109322  0.00109416  0.00109485  0.00109535  0.00109838  0.00110632  0.00111007
  0.00112684  0.00113283  0.00113380  0.00113537  0.00114224  0.00114296  0.00114779  0.00115444
  0.00116539  0.00116552  0.00116586  0.00116609  0.00117115  0.00117172  0.00117174  0.00117375
  0.00117887  0.00117943  0.00117993  0.00118028  0.00118150  0.00118559  0.00120712  0.00126144
  0.00129530  0.00137282  0.00148180  0.00153377  0.00156039  0.00158479  0.00160998  0.00165984
  0.00166882  0.00166902  0.00171515  0.00172065  0.00178355  0.00190605  0.00191859  0.00203599
  0.00205397  0.00216177  0.00228016  0.00233896  0.00234125  0.00235177  0.00237136  0.00252139
  0.00252641  0.00256036  0.00278953  0.00292188  0.00302349  0.00302513  0.00302770  0.00303045
  0.00303395  0.00304208  0.00304290  0.00304670  0.00304673  0.00308128  0.00309184  0.00309212
  0.00309611  0.00312274  0.00341225  0.00341750  0.00364092  0.00366865  0.00367523  0.00367699
  0.00372191  0.00372360  0.00377222  0.00391696  0.00394499  0.00403915 21.80437745 34.85476940
398.17761485
 d1=
  90.5 582.8 248.8-541.8 557.1-938.9  59.5-155.2  78.9 -19.1  81.6  92.6-110.5 -28.9  37.8  -2.4  -2.6  -7.5   2.1   2.4
   8.3-105.4 -27.2  19.9  -8.1  -4.9   0.3  26.6 -37.1 -30.6  63.4  -4.7  -1.9 -24.7  -2.4  -0.3   3.7  -0.8  -3.2  -4.6
  -2.3   5.6 -22.3  -6.5  35.1 -27.7   4.0  11.6   0.1   0.6  -2.2  17.1   5.8  -7.1  -6.7   2.8  -0.5   2.6  11.0  -1.9
  -3.5   7.8 -26.5   4.5  19.4   9.0 -22.4  -4.2  18.2 -16.9   4.5 -20.4 -24.7   4.8 -20.5  10.9 -17.7  -5.7  31.3  -7.3
   7.0 -12.1   1.8  -2.2  -7.4   1.8  -0.3  -4.4  -7.8  11.4 -20.2  22.6  -6.8  -5.0  -5.4   3.8  -4.5  26.0   0.0  -2.1
   2.0   1.0  -0.5  -1.4   0.9  -0.3  -0.5  -1.5  -2.6  -2.2   1.5  -2.5   6.7  -1.1   0.6   2.5 -19.6   2.1   2.1  -0.1
  -5.0   1.5  -1.5  -0.5  -1.3   4.8  -0.2   2.7   0.1  -0.4   0.0  -0.5  -0.5   2.2   6.1  -1.4  -0.2  -0.6  -1.8   1.5
   0.0  -1.0   0.3   0.0  -0.6   0.8   0.3  -2.0  -2.1   1.3  -0.2  -0.4  -0.9  -0.5   0.3  -0.2   1.1  -0.3   0.9   0.1
  -0.8   0.4  -0.0   0.3   0.1  -0.1   0.1   0.8  -0.0  -0.3  -2.1  -0.2   0.3  -0.1  -4.7 -11.7  -0.3  -0.3   0.0   0.1
   0.3   0.2   0.1  -4.5   0.0  -0.0   0.4   2.5  -0.6   4.4  -9.6   2.3   6.4   1.5   0.1  -0.6   0.0   2.0  -0.1  -3.4
   0.5  -9.0  -1.9   0.2  -0.5   1.3   0.1   0.2   0.1  -0.2   0.1  -0.0   0.1  -0.1   1.1  -3.9  -0.4   3.8  -1.2  -0.1
  -0.7  -3.4   0.6  -0.6  -0.0   0.6  -0.1   0.6   2.3  -0.2  -0.1  -0.3   0.0  -0.0  -0.0   0.0   0.1   0.3   0.1   0.1
   0.3   0.1  -0.4   0.4   0.1   0.2   0.1  -0.0   0.0   0.1   0.0   0.0   0.1   0.1  -0.3  -0.6  -0.3   0.0   0.1   0.0
   0.0  -0.0   1.3   0.5   1.0  -0.0   0.9  -0.0   0.1   0.0   0.0  -0.4  -0.3  -0.2  -0.1   0.6  -0.2   0.2   0.0  -0.0
   0.7  -0.0   0.0  -0.0  -0.5   1.5  -0.0   0.2   0.0  -0.0  -0.0  -0.0  -0.0  -0.3   0.0  -0.0   0.2   0.2   0.7  -0.2
   0.3  -0.0   0.4   0.0  -0.0  -1.6   0.0  -0.0   0.1  -0.0   0.0  -0.1   0.0   0.0   1.2  -0.5  -0.2  -0.0   4.5   0.5
   0.5
 d2=
 -32.8 606.5  87.1 618.3 474.1 948.3-174.4-112.5 -56.5 -48.1 -60.0 114.5 -94.3 -32.5 -43.7   2.4   7.9   6.7   4.6  -0.3
  49.9  91.1  32.0  24.1 -13.4  -2.3  -1.7  50.7 -40.3  24.6  46.7   9.9  -0.2 -23.3   2.0   1.7   3.0  -0.6   5.8   4.6
  -2.1  -5.5  21.4   8.4 -34.4 -26.6  -5.9  11.2   0.1   0.6  16.2  -2.5   3.3  -1.9  -6.6   6.6   0.6  -2.1   9.6   4.7
  -2.3   8.6 -31.9  -4.8 -24.4  -7.1  19.4  -3.0 -19.9  17.9   8.6  -1.2 -14.0   4.6  25.5   8.6 -21.4  -6.0 -33.9   5.2
   5.9 -12.8   0.1   5.9   8.7  -1.9   0.2  -8.1  16.3   1.4 -23.1 -20.8  -0.6  -6.8  -1.4   3.3   4.8  23.3   0.2   2.8
  -0.2   1.2  -0.5  -1.3   0.7  -0.5   0.3  -0.4   2.5  -3.1   0.1   2.3  -5.3  -2.1   0.7   9.6 -15.4   3.9  -1.9   1.0
   7.0   0.4  -1.8  -2.3   1.1  -5.5  -0.1  -2.8  -0.3   0.3   0.4   0.4  -2.1  -3.4   5.5   1.1  -0.6  -0.9   0.3   1.7
   1.7   0.8   0.5  -0.2  -0.9  -0.7  -0.3  -2.5  -1.4  -2.3   0.1  -0.0  -0.7  -0.5   0.4   0.2   1.2  -0.6   1.1  -0.2
  -0.4   0.7   0.0  -0.3   0.1   0.0  -0.1   0.8  -0.0   0.5  -1.5  -0.2  -2.0   0.1   4.5 -13.4  -0.3   0.1   0.0   0.1
  -0.2  -0.0  -0.2   2.2   0.0  -0.0  -0.6   1.5  -0.5  -2.2  -2.1  -1.1   1.5   0.1  -2.4   0.1 -10.3   4.5   0.1  -5.9
   1.1   0.8  -7.9   0.1   1.0  -2.0   0.2   0.5   0.2   0.2   0.2  -0.0   0.2   0.4  -1.6   0.4  -0.2   1.8  -0.1  -4.3
   0.7  -3.5   0.8   0.6  -0.4  -0.3  -0.1   2.4   0.5   0.2  -0.0  -0.3   0.1  -0.0   0.0   0.0   0.0  -0.3   0.1  -0.1
   0.3  -0.0  -0.4   0.3   0.3   0.2   0.2   0.1  -0.0  -0.0  -0.1  -0.0  -0.1   0.2  -0.1  -0.3   0.5   0.0   0.0   0.0
   0.8  -0.0   1.4   0.5  -1.0  -0.0   0.9  -0.1   0.0  -0.0  -0.1  -0.1   0.3  -0.3  -0.5   0.1   0.1  -0.2   0.0  -0.1
   0.9   0.0   0.0   0.5  -0.0  -1.5  -0.2   0.2   0.0  -0.0  -0.0   0.0  -0.0   0.2  -0.1   0.2   0.0  -0.1  -0.6  -0.2
   0.3   0.0  -0.0   0.0   0.4   1.6  -0.0  -0.0  -0.0  -0.1  -0.0  -0.0   0.0  -0.0  -1.2   0.6   0.2   0.0  -0.6   0.2
   0.2
 p1=

 p2=


 Displacement: in terms of nc of 1 THEN of nc of 2


 total reorg energy (cm**-1, kcal/mol)=        0.        0.      0.00      0.00
 Nber of molecules processed=           2
