 Enter ifcurve (0=recti, 1=orth curvi, 2=apprx curvi, -1 = skip
 And atom ordering flag, 0= never changes, 1= use the first order thenceforth,
  2= deduce it (does read on fail), 3= always read it
 Reading file: 
 ./phenothiazine_1_C0S1.log                                                     
                                          
  Entering Gaussian System, Link 0=g16                                          
  
 Gaussian format, type: g94, g98, g03= F F F
  #P Geom=AllCheck Guess=TCheck SCRF=Check GenChk RB3LYP TD(FC,Read)/6-3    
 energy type= TD      
 Original G94 input coords:
  6 -0.838163  0.244364  0.750475
  6 -0.020688  0.825479 -0.294696
  6  1.328193  0.561300 -0.337472
  6  1.937845 -0.272485  0.625119
  7  3.351999 -0.526918  0.552500
  6  4.296733  0.214470  1.368768
  6  3.840324  1.647840  1.672192
  6  4.848963  2.369516  2.573794
  6  5.067223  1.610438  3.886780
  6  5.518710  0.167659  3.623052
  6  4.530011 -0.580926  2.719234
 16  5.193448 -2.248856  2.372700
  6  4.041040 -2.836067  1.080715
  6  4.583898 -4.143911  0.489398
  6  3.708131 -4.652863 -0.663367
  6  3.554501 -3.586349 -1.752768
  6  2.985732 -2.282089 -1.181424
  6  3.871871 -1.740587 -0.051665
  6  1.130941 -0.869071  1.688169
  6 -0.226581 -0.578858  1.697723
  1 -1.900121  0.444441  0.795376
  1 -0.464426  1.468321 -1.045377
  1  1.937969  0.999391 -1.123259
  1  5.261346  0.226192  0.849841
  1  2.856456  1.615854  2.142941
  1  3.714106  2.182103  0.727830
  1  4.487554  3.381255  2.776469
  1  5.808293  2.480808  2.051995
  1  4.134916  1.602490  4.462982
  1  5.815010  2.116203  4.504302
  1  5.620094 -0.378283  4.565478
  1  6.506996  0.171524  3.148578
  1  3.560505 -0.670712  3.208607
  1  3.056408 -2.996864  1.519069
  1  4.642494 -4.894034  1.283371
  1  5.606524 -3.978562  0.130574
  1  2.719070 -4.926103 -0.278183
  1  4.148337 -5.564880 -1.076611
  1  2.894386 -3.947187 -2.546085
  1  4.529515 -3.398870 -2.220928
  1  1.975907 -2.437237 -0.798250
  1  2.907298 -1.520220 -1.960265
  1  4.879100 -1.531044 -0.427844
  1  1.560699 -1.513269  2.442266
  1 -0.834122 -1.018953  2.485006
 nber atoms=          45
  Total Energy, E(TD-HF/TD-DFT) =  -1153.99647256                               
  
          32          49 "  -1153.99647256"
After scan for Atom:   Atom  AN      X      Y      Z        X      Y      Z        X      Y      Z   
After scan for Atom:   Atom  AN      X      Y      Z        X      Y      Z        X      Y      Z   
After scan for Atom:   Atom  AN      X      Y      Z        X      Y      Z        X      Y      Z   
After scan for Atom:   Atom  AN      X      Y      Z        X      Y      Z        X      Y      Z   
After scan for Atom:   Atom  AN      X      Y      Z        X      Y      Z        X      Y      Z   
After scan for Atom:   Atom  AN      X      Y      Z        X      Y      Z        X      Y      Z   
After scan for Atom:   Atom  AN      X      Y      Z        X      Y      Z        X      Y      Z   
After scan for Atom:   Atom  AN      X      Y      Z        X      Y      Z        X      Y      Z   
After scan for Atom:   Atom  AN      X      Y      Z        X      Y      Z        X      Y      Z   
After scan for Atom:   Atom  AN      X      Y      Z        X      Y      Z        X      Y      Z   
After scan for Atom:   Atom  AN      X      Y      Z        X      Y      Z        X      Y      Z   
After scan for Atom:   Atom  AN      X      Y      Z        X      Y      Z        X      Y      Z   
After scan for Atom:   Atom  AN      X      Y      Z        X      Y      Z        X      Y      Z   
After scan for Atom:   Atom  AN      X      Y      Z        X      Y      Z        X      Y      Z   
After scan for Atom:   Atom  AN      X      Y      Z        X      Y      Z        X      Y      Z   
After scan for Atom:   Atom  AN      X      Y      Z        X      Y      Z        X      Y      Z   
After scan for Atom:   Atom  AN      X      Y      Z        X      Y      Z        X      Y      Z   
After scan for Atom:   Atom  AN      X      Y      Z        X      Y      Z        X      Y      Z   
After scan for Atom:   Atom  AN      X      Y      Z        X      Y      Z        X      Y      Z   
After scan for Atom:   Atom  AN      X      Y      Z        X      Y      Z        X      Y      Z   
After scan for Atom:   Atom  AN      X      Y      Z        X      Y      Z        X      Y      Z   
After scan for Atom:   Atom  AN      X      Y      Z        X      Y      Z        X      Y      Z   
After scan for Atom:   Atom  AN      X      Y      Z        X      Y      Z        X      Y      Z   
After scan for Atom:   Atom  AN      X      Y      Z        X      Y      Z        X      Y      Z   
After scan for Atom:   Atom  AN      X      Y      Z        X      Y      Z        X      Y      Z   
After scan for Atom:   Atom  AN      X      Y      Z        X      Y      Z        X      Y      Z   
After scan for Atom:   Atom  AN      X      Y      Z        X      Y      Z        X      Y      Z   
After scan for Atom:   Atom  AN      X      Y      Z        X      Y      Z        X      Y      Z   
After scan for Atom:   Atom  AN      X      Y      Z        X      Y      Z        X      Y      Z   
After scan for Atom:   Atom  AN      X      Y      Z        X      Y      Z        X      Y      Z   
After scan for Atom:   Atom  AN      X      Y      Z        X      Y      Z        X      Y      Z   
After scan for Atom:   Atom  AN      X      Y      Z        X      Y      Z        X      Y      Z   
After scan for Atom:   Atom  AN      X      Y      Z        X      Y      Z        X      Y      Z   
After scan for Atom:   Atom  AN      X      Y      Z        X      Y      Z        X      Y      Z   
After scan for Atom:   Atom  AN      X      Y      Z        X      Y      Z        X      Y      Z   
After scan for Atom:   Atom  AN      X      Y      Z        X      Y      Z        X      Y      Z   
After scan for Atom:   Atom  AN      X      Y      Z        X      Y      Z        X      Y      Z   
After scan for Atom:   Atom  AN      X      Y      Z        X      Y      Z        X      Y      Z   
After scan for Atom:   Atom  AN      X      Y      Z        X      Y      Z        X      Y      Z   
After scan for Atom:   Atom  AN      X      Y      Z        X      Y      Z        X      Y      Z   
After scan for Atom:   Atom  AN      X      Y      Z        X      Y      Z        X      Y      Z   
After scan for Atom:   Atom  AN      X      Y      Z        X      Y      Z        X      Y      Z   
After scan for Atom:   Atom  AN      X      Y      Z        X      Y      Z        X      Y      Z   
 g94    frequencies=
     0.0    0.0    0.0    0.0    0.0    0.0  -20.2   47.9   74.0   78.8
   107.0  140.9  166.9  168.0  193.7  200.0  238.9  292.6  313.7  318.8
   332.4  338.7  342.6  354.7  380.3  397.0  403.1  432.8  440.7  461.6
   500.8  504.0  511.7  541.4  589.2  624.9  634.5  666.2  679.4  686.3
   719.8  739.0  753.8  763.6  783.2  841.4  855.3  865.5  870.4  876.4
   889.2  900.2  920.5  934.6  939.1  954.2  959.8  974.6  989.3  996.8
  1009.6 1048.3 1052.7 1064.8 1084.2 1088.2 1089.3 1096.2 1113.6 1129.1
  1144.4 1155.8 1170.1 1201.9 1212.8 1214.7 1224.5 1232.4 1244.2 1270.5
  1284.3 1289.6 1302.9 1303.6 1319.6 1321.8 1335.1 1337.8 1346.8 1359.8
  1360.6 1369.4 1372.8 1375.3 1377.9 1382.0 1385.9 1388.5 1420.5 1462.2
  1484.0 1487.4 1488.2 1489.8 1490.7 1494.4 1495.2 1504.3 1504.9 1554.2
  3004.8 3005.0 3018.4 3018.7 3021.5 3024.2 3024.3 3034.7 3059.8 3060.0
  3064.4 3064.4 3068.2 3068.4 3071.5 3071.6 3101.0 3103.2 3110.5 3110.9
  3129.4 3131.2 3170.3 3191.0 3200.2
 g94    symmetries=
                                                 A      A      A      A
       A      A      A      A      A      A      A      A      A      A
       A      A      A      A      A      A      A      A      A      A
       A      A      A      A      A      A      A      A      A      A
       A      A      A      A      A      A      A      A      A      A
       A      A      A      A      A      A      A      A      A      A
       A      A      A      A      A      A      A      A      A      A
       A      A      A      A      A      A      A      A      A      A
       A      A      A      A      A      A      A      A      A      A
       A      A      A      A      A      A      A      A      A      A
       A      A      A      A      A      A      A      A      A      A
       A      A      A      A      A      A      A      A      A      A
       A      A      A      A      A      A      A      A      A      A
       A      A      A      A      A
 atomic masses:
 12.0000 12.0000 12.0000 12.0000 14.0031 12.0000 12.0000 12.0000 12.0000 12.0000
 12.0000 31.9721 12.0000 12.0000 12.0000 12.0000 12.0000 12.0000 12.0000 12.0000
  1.0078  1.0078  1.0078  1.0078  1.0078  1.0078  1.0078  1.0078  1.0078  1.0078
  1.0078  1.0078  1.0078  1.0078  1.0078  1.0078  1.0078  1.0078  1.0078  1.0078
  1.0078  1.0078  1.0078  1.0078  1.0078
 looking for force constants in 
 ./phenothiazine_1_C0S1.fchk                                                    
  
 Cartesian Force Constants                  R   N=        9180                  
  
 n3=         135        9180
 g94-fc frequencies=
   -20.3   -6.2   -1.1   -0.0    0.0    0.0    4.6   47.9   74.0   78.8
   107.0  140.9  166.9  168.0  193.7  200.0  238.9  292.6  313.7  318.8
   332.4  338.7  342.6  354.7  380.3  397.0  403.1  432.8  440.7  461.6
   500.9  504.0  511.7  541.4  589.2  624.9  634.5  666.3  679.4  686.3
   719.8  739.0  753.8  763.6  783.2  841.4  855.3  865.5  870.5  876.5
   889.3  900.2  920.6  934.6  939.1  954.2  959.8  974.7  989.3  996.8
  1009.7 1048.4 1052.8 1064.8 1084.3 1088.2 1089.3 1096.3 1113.7 1129.1
  1144.4 1155.9 1170.1 1201.9 1212.9 1214.7 1224.6 1232.4 1244.2 1270.5
  1284.3 1289.6 1303.0 1303.6 1319.6 1321.8 1335.1 1337.8 1346.9 1359.8
  1360.6 1369.5 1372.8 1375.4 1377.9 1382.1 1385.9 1388.6 1420.5 1462.3
  1484.0 1487.4 1488.2 1489.8 1490.7 1494.5 1495.2 1504.3 1504.9 1554.2
  3004.9 3005.1 3018.4 3018.8 3021.5 3024.3 3024.4 3034.7 3059.9 3060.1
  3064.4 3064.5 3068.2 3068.5 3071.6 3071.7 3101.1 3103.3 3110.6 3110.9
  3129.5 3131.3 3170.3 3191.0 3200.3
 at 99999: n3=         135
 symm operator            1 :  F  nop=           0
 symm operator            2 :  F  nop=           0
 symm operator            3 :  F  nop=           0
 symm operator            4 :  F  nop=           0
 symm operator            5 :  F  nop=           0
 symm operator            6 :  F  nop=           0
 symm operator            7 :  F  nop=           0
 The point group of the molecule is  C1
 Symmetry rotation matrix:
   1.00000   0.00000   0.00000
   0.00000   1.00000   0.00000
   0.00000   0.00000   1.00000

 Projecting out zero-frequency components
 generating redundant internal coords
         300        3600          45
 search for int coords
   1 str   2   1   1.449
   2 str   3   2   1.375
   3 str   4   3   1.412
   4 str   5   4   1.439
   5 str   6   5   1.452
   6 str   7   6   1.535
   7 str   8   7   1.533
   8 str   9   8   1.532
   9 str  10   9   1.535
  10 str  11   6   1.585
  11 str  11  10   1.535
  12 str  12  11   1.828
  13 str  13  12   1.828
  14 str  14  13   1.535
  15 str  15  14   1.535
  16 str  16  15   1.532
  17 str  17  16   1.533
  18 str  18   5   1.452
  19 str  18  13   1.585
  20 str  18  17   1.535
  21 str  19   4   1.462
  22 str  20   1   1.396
  23 str  20  19   1.388
  24 str  21   1   1.082
  25 str  22   2   1.083
  26 str  23   3   1.087
  27 str  24   6   1.095
  28 str  25   7   1.091
  29 str  26   7   1.092
  30 str  27   8   1.093
  31 str  28   8   1.098
  32 str  29   9   1.096
  33 str  30   9   1.094
  34 str  31  10   1.094
  35 str  32  10   1.096
  36 str  33  11   1.090
  37 str  34  13   1.090
  38 str  35  14   1.094
  39 str  36  14   1.096
  40 str  37  15   1.096
  41 str  38  15   1.094
  42 str  39  16   1.093
  43 str  40  16   1.098
  44 str  41  17   1.091
  45 str  42  17   1.092
  46 str  43  18   1.095
  47 str  44  19   1.081
  48 str  45  20   1.087
 nber stretches=          48
  49 ben   1   2   3
  50 prop tor   1   2   3   4
  51 prop tor   1   2   3  23
  52 ben   1   2  22
  53 ben   1  20  19
  54 ben   1  20  45
  55 ben   2   1  20
  56 prop tor   2   1  20  19
  57 prop tor   2   1  20  45
  58 ben   2   1  21
  59 ben   2   3   4
  60 prop tor   2   3   4   5
  61 prop tor   2   3   4  19
  62 ben   2   3  23
  63 ben   3   2  22
  64 ben   3   4   5
  65 prop tor   3   4   5   6
  66 prop tor   3   4   5  18
  67 ben   3   4  19
  68 prop tor   3   4  19  20
  69 prop tor   3   4  19  44
  70 ben   4   3  23
  71 ben   4   5   6
  72 prop tor   4   5   6   7
  73 prop tor   4   5   6  11
  74 prop tor   4   5   6  24
  75 ben   4   5  18
  76 prop tor   4   5  18  13
  77 prop tor   4   5  18  17
  78 prop tor   4   5  18  43
  79 ben   4  19  20
  80 prop tor   4  19  20   1
  81 prop tor   4  19  20  45
  82 ben   4  19  44
  83 ben   5   4  19
  84 prop tor   5   4  19  20
  85 prop tor   5   4  19  44
  86 ben   5   6   7
  87 prop tor   5   6   7   8
  88 prop tor   5   6   7  25
  89 prop tor   5   6   7  26
  90 ben   5   6  11
  91 prop tor   5   6  11  10
  92 prop tor   5   6  11  12
  93 prop tor   5   6  11  33
  94 ben   5   6  24
  95 ben   5  18  13
  96 ben   5  18  17
  97 ben   5  18  43
  98 ben   6   5  18
  99 prop tor   6   5  18  13
 100 prop tor   6   5  18  17
 101 prop tor   6   5  18  43
 102 ben   6   7   8
 103 prop tor   6   7   8   9
 104 prop tor   6   7   8  27
 105 prop tor   6   7   8  28
 106 ben   6   7  25
 107 ben   6   7  26
 108 ben   6  11  10
 109 ben   6  11  12
 110 prop tor   6  11  12  13
 111 ben   6  11  33
 112 ben   7   6  11
 113 prop tor   7   6  11  10
 114 prop tor   7   6  11  12
 115 prop tor   7   6  11  33
 116 ben   7   6  24
 117 ben   7   8   9
 118 prop tor   7   8   9  10
 119 prop tor   7   8   9  29
 120 prop tor   7   8   9  30
 121 ben   7   8  27
 122 ben   7   8  28
 123 ben   8   7  25
 124 ben   8   7  26
 125 ben   8   9  10
 126 prop tor   8   9  10  11
 127 prop tor   8   9  10  31
 128 prop tor   8   9  10  32
 129 ben   8   9  29
 130 ben   8   9  30
 131 ben   9   8  27
 132 ben   9   8  28
 133 ben   9  10  11
 134 prop tor   9  10  11   6
 135 prop tor   9  10  11  12
 136 prop tor   9  10  11  33
 137 ben   9  10  31
 138 ben   9  10  32
 139 ben  10   9  29
 140 ben  10   9  30
 141 ben  10  11  12
 142 prop tor  10  11  12  13
 143 ben  10  11  33
 144 prop tor  11   6   7   8
 145 prop tor  11   6   7  25
 146 prop tor  11   6   7  26
 147 ben  11   6  24
 148 ben  11  10  31
 149 ben  11  10  32
 150 ben  11  12  13
 151 prop tor  11  12  13  14
 152 prop tor  11  12  13  18
 153 prop tor  11  12  13  34
 154 ben  12  11  33
 155 ben  12  13  14
 156 prop tor  12  13  14  15
 157 prop tor  12  13  14  35
 158 prop tor  12  13  14  36
 159 ben  12  13  18
 160 prop tor  12  13  18   5
 161 prop tor  12  13  18  17
 162 prop tor  12  13  18  43
 163 ben  12  13  34
 164 ben  13  14  15
 165 prop tor  13  14  15  16
 166 prop tor  13  14  15  37
 167 prop tor  13  14  15  38
 168 ben  13  14  35
 169 ben  13  14  36
 170 ben  13  18  17
 171 ben  13  18  43
 172 ben  14  13  18
 173 prop tor  14  13  18   5
 174 prop tor  14  13  18  17
 175 prop tor  14  13  18  43
 176 ben  14  13  34
 177 ben  14  15  16
 178 prop tor  14  15  16  17
 179 prop tor  14  15  16  39
 180 prop tor  14  15  16  40
 181 ben  14  15  37
 182 ben  14  15  38
 183 ben  15  14  35
 184 ben  15  14  36
 185 ben  15  16  17
 186 prop tor  15  16  17  18
 187 prop tor  15  16  17  41
 188 prop tor  15  16  17  42
 189 ben  15  16  39
 190 ben  15  16  40
 191 ben  16  15  37
 192 ben  16  15  38
 193 ben  16  17  18
 194 prop tor  16  17  18   5
 195 prop tor  16  17  18  13
 196 prop tor  16  17  18  43
 197 ben  16  17  41
 198 ben  16  17  42
 199 ben  17  16  39
 200 ben  17  16  40
 201 ben  17  18  43
 202 prop tor  18   5   6   7
 203 prop tor  18   5   6  11
 204 prop tor  18   5   6  24
 205 prop tor  18  13  14  15
 206 prop tor  18  13  14  35
 207 prop tor  18  13  14  36
 208 ben  18  13  34
 209 ben  18  17  41
 210 ben  18  17  42
 211 prop tor  19   4   5   6
 212 prop tor  19   4   5  18
 213 ben  19  20  45
 214 prop tor  20   1   2   3
 215 prop tor  20   1   2  22
 216 ben  20   1  21
 217 ben  20  19  44
 218 prop tor  21   1   2   3
 219 prop tor  21   1   2  22
 220 prop tor  21   1  20  19
 221 prop tor  21   1  20  45
 222 prop tor  22   2   3   4
 223 prop tor  22   2   3  23
 224 prop tor  23   3   4   5
 225 prop tor  23   3   4  19
 226 prop tor  24   6   7   8
 227 prop tor  24   6   7  25
 228 prop tor  24   6   7  26
 229 prop tor  24   6  11  10
 230 prop tor  24   6  11  12
 231 prop tor  24   6  11  33
 232 prop tor  25   7   8   9
 233 prop tor  25   7   8  27
 234 prop tor  25   7   8  28
 235 ben  25   7  26
 236 prop tor  26   7   8   9
 237 prop tor  26   7   8  27
 238 prop tor  26   7   8  28
 239 prop tor  27   8   9  10
 240 prop tor  27   8   9  29
 241 prop tor  27   8   9  30
 242 ben  27   8  28
 243 prop tor  28   8   9  10
 244 prop tor  28   8   9  29
 245 prop tor  28   8   9  30
 246 prop tor  29   9  10  11
 247 prop tor  29   9  10  31
 248 prop tor  29   9  10  32
 249 ben  29   9  30
 250 prop tor  30   9  10  11
 251 prop tor  30   9  10  31
 252 prop tor  30   9  10  32
 253 prop tor  31  10  11   6
 254 prop tor  31  10  11  12
 255 prop tor  31  10  11  33
 256 ben  31  10  32
 257 prop tor  32  10  11   6
 258 prop tor  32  10  11  12
 259 prop tor  32  10  11  33
 260 prop tor  33  11  12  13
 261 prop tor  34  13  14  15
 262 prop tor  34  13  14  35
 263 prop tor  34  13  14  36
 264 prop tor  34  13  18   5
 265 prop tor  34  13  18  17
 266 prop tor  34  13  18  43
 267 prop tor  35  14  15  16
 268 prop tor  35  14  15  37
 269 prop tor  35  14  15  38
 270 ben  35  14  36
 271 prop tor  36  14  15  16
 272 prop tor  36  14  15  37
 273 prop tor  36  14  15  38
 274 prop tor  37  15  16  17
 275 prop tor  37  15  16  39
 276 prop tor  37  15  16  40
 277 ben  37  15  38
 278 prop tor  38  15  16  17
 279 prop tor  38  15  16  39
 280 prop tor  38  15  16  40
 281 prop tor  39  16  17  18
 282 prop tor  39  16  17  41
 283 prop tor  39  16  17  42
 284 ben  39  16  40
 285 prop tor  40  16  17  18
 286 prop tor  40  16  17  41
 287 prop tor  40  16  17  42
 288 prop tor  41  17  18   5
 289 prop tor  41  17  18  13
 290 prop tor  41  17  18  43
 291 ben  41  17  42
 292 prop tor  42  17  18   5
 293 prop tor  42  17  18  13
 294 prop tor  42  17  18  43
 295 prop tor  44  19  20   1
 296 prop tor  44  19  20  45
 nber bend=              94
 nber lin bend=           0
 nber prop tor=         154
 nber impr tor=           0
 nber tot redund int=         296
 Eigenvalues of G in red int coords
    Gval -0.00000000 -0.00000000 -0.00000000 -0.00000000 -0.00000000 -0.00000000 -0.00000000 -0.00000000
    Gval -0.00000000 -0.00000000 -0.00000000 -0.00000000 -0.00000000 -0.00000000 -0.00000000 -0.00000000
    Gval -0.00000000 -0.00000000 -0.00000000 -0.00000000 -0.00000000 -0.00000000 -0.00000000 -0.00000000
    Gval -0.00000000 -0.00000000 -0.00000000 -0.00000000 -0.00000000 -0.00000000 -0.00000000 -0.00000000
    Gval -0.00000000 -0.00000000 -0.00000000 -0.00000000 -0.00000000 -0.00000000 -0.00000000 -0.00000000
    Gval -0.00000000 -0.00000000 -0.00000000 -0.00000000 -0.00000000 -0.00000000 -0.00000000 -0.00000000
    Gval -0.00000000 -0.00000000 -0.00000000 -0.00000000 -0.00000000 -0.00000000 -0.00000000 -0.00000000
    Gval -0.00000000 -0.00000000 -0.00000000 -0.00000000 -0.00000000 -0.00000000 -0.00000000 -0.00000000
    Gval -0.00000000 -0.00000000 -0.00000000 -0.00000000 -0.00000000 -0.00000000 -0.00000000 -0.00000000
    Gval -0.00000000 -0.00000000 -0.00000000 -0.00000000 -0.00000000 -0.00000000 -0.00000000 -0.00000000
    Gval -0.00000000 -0.00000000 -0.00000000  0.00000000  0.00000000  0.00000000  0.00000000  0.00000000
    Gval  0.00000000  0.00000000  0.00000000  0.00000000  0.00000000  0.00000000  0.00000000  0.00000000
    Gval  0.00000000  0.00000000  0.00000000  0.00000000  0.00000000  0.00000000  0.00000000  0.00000000
    Gval  0.00000000  0.00000000  0.00000000  0.00000000  0.00000000  0.00000000  0.00000000  0.00000000
    Gval  0.00000000  0.00000000  0.00000000  0.00000000  0.00000000  0.00000000  0.00000000  0.00000000
    Gval  0.00000000  0.00000000  0.00000000  0.00000000  0.00000000  0.00000000  0.00000000  0.00000000
    Gval  0.00000000  0.00000000  0.00000000  0.00000000  0.00000000  0.00000000  0.00000000  0.00000000
    Gval  0.00000000  0.00000000  0.00000000  0.00000000  0.00000000  0.00000000  0.00000000  0.00000000
    Gval  0.00000000  0.00000000  0.00000000  0.00000000  0.00000000  0.00000000  0.00000000  0.00000000
    Gval  0.00000000  0.00000000  0.00000000  0.00000000  0.00000000  0.00000000  0.00000000  0.00000000
    Gval  0.00000000  0.00000000  0.00000000  0.00000000  0.00000000  0.00000000  0.00000000  0.00000231
    Gval  0.00000378  0.00000583  0.00000972  0.00001195  0.00001827  0.00001857  0.00002321  0.00002662
    Gval  0.00002910  0.00003594  0.00003820  0.00004247  0.00004682  0.00005129  0.00005783  0.00005896
    Gval  0.00006328  0.00006420  0.00007320  0.00007966  0.00009040  0.00009054  0.00010242  0.00011740
    Gval  0.00012153  0.00013747  0.00015667  0.00016626  0.00018462  0.00019226  0.00019503  0.00020907
    Gval  0.00021384  0.00022793  0.00024964  0.00025983  0.00026034  0.00027590  0.00030420  0.00030757
    Gval  0.00033093  0.00034696  0.00035920  0.00039782  0.00042678  0.00044304  0.00047383  0.00051300
    Gval  0.00052198  0.00054078  0.00057457  0.00057506  0.00057696  0.00057701  0.00058130  0.00058136
    Gval  0.00058451  0.00058551  0.00058590  0.00058603  0.00059067  0.00059126  0.00059306  0.00059324
    Gval  0.00060343  0.00061081  0.00061729  0.00062344  0.00065345  0.00065745  0.00066897  0.00069204
    Gval  0.00074495  0.00079207  0.00103572  0.00104601  0.00105952  0.00110312  0.00113769  0.00116804
    Gval  0.00117114  0.00119289  0.00119314  0.00122820  0.00123720  0.00124099  0.00135406  0.00142985
    Gval  0.00148185  0.00160482  0.00167617  0.00175631  0.00177419  0.00177465  0.00181402  0.00182746
    Gval  0.00184658  0.00187039  0.00188763  0.00188928  0.00191800  0.00202920  0.00224704  0.00229506
    Gval  0.00233910  0.00260597  0.00270217  0.00288595  0.00293444  0.00312212  0.00313666  0.00318581
    Gval  0.00373648  0.00379436  0.00379544  0.00384780  0.00385216  0.00395020  0.00395079  0.00402649
    Gval  0.00402717  0.00402983  0.00403038  0.00406222  0.00407283  0.00407387  0.00436153  0.00436321
  2.313426104915811E-006  2.313426104915811E-006
  3.777823864592489E-006  2.313426104915811E-006
  5.830016729420272E-006  2.313426104915811E-006
  9.715288796262327E-006  2.313426104915811E-006
  1.195271164221693E-005  2.313426104915811E-006
  1.826679089791792E-005  2.313426104915811E-006
  1.857250543456554E-005  2.313426104915811E-006
  2.320573238088127E-005  2.313426104915811E-006
  2.661625319119404E-005  2.313426104915811E-006
  2.909616031243319E-005  2.313426104915811E-006
  3.593672679859004E-005  2.313426104915811E-006
  3.819953479513312E-005  2.313426104915811E-006
  4.246967588466675E-005  2.313426104915811E-006
  4.681806430273800E-005  2.313426104915811E-006
  5.128854056966987E-005  2.313426104915811E-006
  5.782718059224136E-005  2.313426104915811E-006
  5.896169969885605E-005  2.313426104915811E-006
  6.327872275428856E-005  2.313426104915811E-006
  6.420411883161195E-005  2.313426104915811E-006
  7.320301482521322E-005  2.313426104915811E-006
  7.965831750964282E-005  2.313426104915811E-006
  9.039801964198447E-005  2.313426104915811E-006
  9.053822667574765E-005  2.313426104915811E-006
  1.024207942704986E-004  2.313426104915811E-006
  1.174046642773627E-004  2.313426104915811E-006
  1.215269927328423E-004  2.313426104915811E-006
  1.374677014044301E-004  2.313426104915811E-006
  1.566724925720280E-004  2.313426104915811E-006
  1.662601758390696E-004  2.313426104915811E-006
  1.846152626969392E-004  2.313426104915811E-006
  1.922637597706689E-004  2.313426104915811E-006
  1.950342959343824E-004  2.313426104915811E-006
  2.090681331460311E-004  2.313426104915811E-006
  2.138370286653181E-004  2.313426104915811E-006
  2.279309110639760E-004  2.313426104915811E-006
  2.496366469638968E-004  2.313426104915811E-006
  2.598263160889356E-004  2.313426104915811E-006
  2.603398140096676E-004  2.313426104915811E-006
  2.759025134083679E-004  2.313426104915811E-006
  3.041961315151532E-004  2.313426104915811E-006
  3.075670461193157E-004  2.313426104915811E-006
  3.309324281448256E-004  2.313426104915811E-006
  3.469598807528504E-004  2.313426104915811E-006
  3.591983928447819E-004  2.313426104915811E-006
  3.978237008690675E-004  2.313426104915811E-006
  4.267844418676811E-004  2.313426104915811E-006
  4.430376562617734E-004  2.313426104915811E-006
  4.738326440651279E-004  2.313426104915811E-006
  5.129962573380456E-004  2.313426104915811E-006
  5.219806874062266E-004  2.313426104915811E-006
  5.407759028654539E-004  2.313426104915811E-006
  5.745657125071651E-004  2.313426104915811E-006
  5.750551535648398E-004  2.313426104915811E-006
  5.769579100491486E-004  2.313426104915811E-006
  5.770057242530275E-004  2.313426104915811E-006
  5.813024287725457E-004  2.313426104915811E-006
  5.813643416287782E-004  2.313426104915811E-006
  5.845082812796742E-004  2.313426104915811E-006
  5.855121867306953E-004  2.313426104915811E-006
  5.859046370091949E-004  2.313426104915811E-006
  5.860282602210649E-004  2.313426104915811E-006
  5.906690811030821E-004  2.313426104915811E-006
  5.912580653290393E-004  2.313426104915811E-006
  5.930550051158900E-004  2.313426104915811E-006
  5.932408515418253E-004  2.313426104915811E-006
  6.034272952455486E-004  2.313426104915811E-006
  6.108115332983684E-004  2.313426104915811E-006
  6.172864184284508E-004  2.313426104915811E-006
  6.234448353959918E-004  2.313426104915811E-006
  6.534508615726677E-004  2.313426104915811E-006
  6.574508666849471E-004  2.313426104915811E-006
  6.689683646154214E-004  2.313426104915811E-006
  6.920421889909209E-004  2.313426104915811E-006
  7.449530501456082E-004  2.313426104915811E-006
  7.920715366953330E-004  2.313426104915811E-006
  1.035724190640870E-003  2.313426104915811E-006
  1.046009548718625E-003  2.313426104915811E-006
  1.059515414089066E-003  2.313426104915811E-006
  1.103117108986686E-003  2.313426104915811E-006
  1.137688831776914E-003  2.313426104915811E-006
  1.168043153778367E-003  2.313426104915811E-006
  1.171140515021294E-003  2.313426104915811E-006
  1.192891641687644E-003  2.313426104915811E-006
  1.193139263473052E-003  2.313426104915811E-006
  1.228201824690633E-003  2.313426104915811E-006
  1.237202453490708E-003  2.313426104915811E-006
  1.240986875877537E-003  2.313426104915811E-006
  1.354055009292599E-003  2.313426104915811E-006
  1.429853648139563E-003  2.313426104915811E-006
  1.481852673932957E-003  2.313426104915811E-006
  1.604822560542134E-003  2.313426104915811E-006
  1.676167764357188E-003  2.313426104915811E-006
  1.756306811836114E-003  2.313426104915811E-006
  1.774191979981134E-003  2.313426104915811E-006
  1.774649918760433E-003  2.313426104915811E-006
  1.814024571345599E-003  2.313426104915811E-006
  1.827459463762837E-003  2.313426104915811E-006
  1.846584469268787E-003  2.313426104915811E-006
  1.870391420494838E-003  2.313426104915811E-006
  1.887629113803439E-003  2.313426104915811E-006
  1.889280785699937E-003  2.313426104915811E-006
  1.918003680798585E-003  2.313426104915811E-006
  2.029197728834346E-003  2.313426104915811E-006
  2.247044528373121E-003  2.313426104915811E-006
  2.295057026526800E-003  2.313426104915811E-006
  2.339098498526882E-003  2.313426104915811E-006
  2.605967243871772E-003  2.313426104915811E-006
  2.702172165201514E-003  2.313426104915811E-006
  2.885951088682504E-003  2.313426104915811E-006
  2.934437523835248E-003  2.313426104915811E-006
  3.122120249997355E-003  2.313426104915811E-006
  3.136664874033504E-003  2.313426104915811E-006
  3.185811761545007E-003  2.313426104915811E-006
  3.736481131759933E-003  2.313426104915811E-006
  3.794360086896247E-003  2.313426104915811E-006
  3.795441301919313E-003  2.313426104915811E-006
  3.847803389525041E-003  2.313426104915811E-006
  3.852159197776227E-003  2.313426104915811E-006
  3.950202297305602E-003  2.313426104915811E-006
  3.950786697520545E-003  2.313426104915811E-006
  4.026489033755284E-003  2.313426104915811E-006
  4.027174115168466E-003  2.313426104915811E-006
  4.029827200235559E-003  2.313426104915811E-006
  4.030381654886997E-003  2.313426104915811E-006
  4.062224589689830E-003  2.313426104915811E-006
  4.072828514777443E-003  2.313426104915811E-006
  4.073869585475292E-003  2.313426104915811E-006
  4.361529034052754E-003  2.313426104915811E-006
  4.363209048677363E-003  2.313426104915811E-006
 cut=1d-8, nber non-redundant internal coords=         129
 Check on Eigenvals of non-red overlap matrix:
  0.00000231  0.00000378  0.00000583  0.00000972  0.00001195  0.00001827  0.00001857  0.00002321
  0.00002662  0.00002910  0.00003594  0.00003820  0.00004247  0.00004682  0.00005129  0.00005783
  0.00005896  0.00006328  0.00006420  0.00007320  0.00007966  0.00009040  0.00009054  0.00010242
  0.00011740  0.00012153  0.00013747  0.00015667  0.00016626  0.00018462  0.00019226  0.00019503
  0.00020907  0.00021384  0.00022793  0.00024964  0.00025983  0.00026034  0.00027590  0.00030420
  0.00030757  0.00033093  0.00034696  0.00035920  0.00039782  0.00042678  0.00044304  0.00047383
  0.00051300  0.00052198  0.00054078  0.00057457  0.00057506  0.00057696  0.00057701  0.00058130
  0.00058136  0.00058451  0.00058551  0.00058590  0.00058603  0.00059067  0.00059126  0.00059306
  0.00059324  0.00060343  0.00061081  0.00061729  0.00062344  0.00065345  0.00065745  0.00066897
  0.00069204  0.00074495  0.00079207  0.00103572  0.00104601  0.00105952  0.00110312  0.00113769
  0.00116804  0.00117114  0.00119289  0.00119314  0.00122820  0.00123720  0.00124099  0.00135406
  0.00142985  0.00148185  0.00160482  0.00167617  0.00175631  0.00177419  0.00177465  0.00181402
  0.00182746  0.00184658  0.00187039  0.00188763  0.00188928  0.00191800  0.00202920  0.00224704
  0.00229506  0.00233910  0.00260597  0.00270217  0.00288595  0.00293444  0.00312212  0.00313666
  0.00318581  0.00373648  0.00379436  0.00379544  0.00384780  0.00385216  0.00395020  0.00395079
  0.00402649  0.00402717  0.00402983  0.00403038  0.00406222  0.00407283  0.00407387  0.00436153
  0.00436321
 Checking for correct frequencies
 recalc frequencies=
   -20.2   -0.0   -0.0   -0.0    0.0    0.0    0.0   47.9   74.0   78.8
   107.0  140.9  166.9  168.0  193.7  200.0  238.9  292.6  313.7  318.8
   332.4  338.7  342.6  354.7  380.3  397.0  403.1  432.8  440.7  461.6
   500.9  504.0  511.7  541.4  589.2  624.9  634.5  666.3  679.4  686.3
   719.8  739.0  753.8  763.6  783.2  841.4  855.3  865.5  870.5  876.5
   889.3  900.2  920.6  934.6  939.1  954.2  959.8  974.7  989.3  996.8
  1009.7 1048.4 1052.8 1064.8 1084.3 1088.2 1089.3 1096.3 1113.7 1129.1
  1144.4 1155.9 1170.1 1201.9 1212.9 1214.7 1224.6 1232.4 1244.2 1270.5
  1284.3 1289.6 1303.0 1303.6 1319.6 1321.8 1335.1 1337.8 1346.9 1359.8
  1360.6 1369.5 1372.8 1375.4 1377.9 1382.1 1385.9 1388.6 1420.5 1462.3
  1484.0 1487.4 1488.2 1489.8 1490.7 1494.5 1495.2 1504.3 1504.9 1554.2
  3004.9 3005.1 3018.4 3018.8 3021.5 3024.3 3024.4 3034.7 3059.9 3060.1
  3064.4 3064.5 3068.2 3068.5 3071.6 3071.7 3101.1 3103.3 3110.6 3110.9
  3129.5 3131.3 3170.3 3191.0 3200.3
 recalc symmetries=
                                                                       
                                                                       
                                                                       
                                                                       
                                                                       
                                                                       
                                                                       
                                                                       
                                                                       
                                                                       
                                                                       
                                                                       
                                                                       
                                    
 recalc freqs check OK
 Zero-point lengths:
 55.1192 10.0000 10.0000 10.0000 10.0000 10.0000 10.0000 35.8381 28.8120 27.9331
 23.9671 20.8844 19.1877 19.1271 17.8110 17.5287 16.0383 14.4938 13.9970 13.8856
 13.5975 13.4707 13.3937 13.1640 12.7128 12.4420 12.3481 11.9171 11.8090 11.5391
 11.0775 11.0424 10.9594 10.6544 10.2129  9.9169  9.8417  9.6045  9.5110  9.4629
  9.2403  9.1193  9.0294  8.9713  8.8585  8.5465  8.4767  8.4267  8.4028  8.3740
  8.3135  8.2627  8.1709  8.1093  8.0896  8.0257  8.0021  7.9408  7.8818  7.8522
  7.8020  7.6567  7.6406  7.5973  7.5289  7.5150  7.5113  7.4876  7.4288  7.3778
  7.3282  7.2920  7.2475  7.1509  7.1185  7.1132  7.0844  7.0619  7.0282  6.9551
  6.9177  6.9034  6.8680  6.8662  6.8245  6.8189  6.7848  6.7779  6.7551  6.7229
  6.7210  6.6992  6.6910  6.6848  6.6786  6.6685  6.6592  6.6529  6.5777  6.4831
  6.4354  6.4281  6.4263  6.4229  6.4209  6.4129  6.4112  6.3919  6.3906  6.2884
  4.5225  4.5224  4.5124  4.5121  4.5101  4.5080  4.5079  4.5002  4.4817  4.4816
  4.4784  4.4783  4.4756  4.4754  4.4732  4.4731  4.4518  4.4502  4.4450  4.4448
  4.4316  4.4303  4.4029  4.3887  4.3823
 highest evec of mol 1
  0.1963 -0.0410 -0.0028
  0.0228 -0.0397  0.0478
 -0.0088 -0.0089  0.0149
 -0.0091  0.0013  0.0011
  0.0014 -0.0000 -0.0004
  0.0004 -0.0000  0.0000
 -0.0000  0.0002 -0.0003
  0.0000 -0.0001 -0.0000
  0.0002  0.0000 -0.0002
  0.0004  0.0001 -0.0003
  0.0075  0.0008 -0.0046
  0.0001 -0.0001  0.0002
  0.0076  0.0020 -0.0037
  0.0004  0.0002 -0.0003
  0.0002  0.0001 -0.0001
  0.0000  0.0001  0.0001
 -0.0000  0.0003 -0.0003
  0.0004 -0.0002 -0.0001
 -0.0774  0.1115 -0.1297
  0.0342  0.0304 -0.0521
 -0.6420  0.1214  0.0265
 -0.0850  0.1270 -0.1491
  0.0316  0.0218 -0.0395
 -0.0010 -0.0002  0.0009
 -0.0000  0.0000 -0.0004
 -0.0001 -0.0007  0.0012
 -0.0001  0.0003  0.0001
  0.0002  0.0000  0.0000
 -0.0007  0.0001  0.0004
  0.0001  0.0000  0.0002
  0.0003 -0.0005  0.0010
 -0.0024 -0.0003  0.0008
 -0.0272 -0.0030  0.0139
 -0.0271 -0.0046  0.0126
  0.0002 -0.0009  0.0007
 -0.0023  0.0000  0.0010
 -0.0007 -0.0002  0.0002
  0.0001 -0.0002 -0.0000
 -0.0002 -0.0001 -0.0002
  0.0002 -0.0001 -0.0001
  0.0000  0.0004 -0.0001
 -0.0001 -0.0010  0.0011
 -0.0010 -0.0005  0.0007
  0.2567 -0.3751  0.4374
 -0.1092 -0.0799  0.1427
 generating redundant internal coords
         300        3600          45
 Adding extra bonds for z output only
           6           6           6           6           7           6
           6           6           6           6           6          16
           6           6           6           6           6           6
           6           6           1           1           1           1
           1           1           1           1           1           1
           1           1           1           1           1           1
           1           1           1           1           1           1
           1           1           1
 search for int coords
   1 str   2   1   1.449
   2 str   3   2   1.375
   3 str   4   3   1.412
   4 str   5   4   1.439
   5 str   6   5   1.452
   6 str   7   6   1.535
   7 str   8   7   1.533
   8 str   9   8   1.532
   9 str  10   9   1.535
  10 str  11   6   1.585
  11 str  11  10   1.535
  12 str  12  11   1.828
  13 str  13  12   1.828
  14 str  14  13   1.535
  15 str  15  14   1.535
  16 str  16  15   1.532
  17 str  17  16   1.533
  18 str  18   5   1.452
  19 str  18  13   1.585
  20 str  18  17   1.535
  21 str  19   4   1.462
  22 str  20   1   1.396
  23 str  20  19   1.388
  24 str  21   1   1.082
  25 str  22   2   1.083
  26 str  23   3   1.087
  27 str  24   6   1.095
  28 str  25   7   1.091
  29 str  26   7   1.092
  30 str  27   8   1.093
  31 str  28   8   1.098
  32 str  29   9   1.096
  33 str  30   9   1.094
  34 str  31  10   1.094
  35 str  32  10   1.096
  36 str  33  11   1.090
  37 str  34  13   1.090
  38 str  35  14   1.094
  39 str  36  14   1.096
  40 str  37  15   1.096
  41 str  38  15   1.094
  42 str  39  16   1.093
  43 str  40  16   1.098
  44 str  41  17   1.091
  45 str  42  17   1.092
  46 str  43  18   1.095
  47 str  44  19   1.081
  48 str  45  20   1.087
 nber stretches=          48
  49 ben   1   2   3
  50 prop tor   1   2   3   4
  51 prop tor   1   2   3  23
  52 ben   1   2  22
  53 ben   1  20  19
  54 ben   1  20  45
  55 ben   2   1  20
  56 prop tor   2   1  20  19
  57 prop tor   2   1  20  45
  58 ben   2   1  21
  59 ben   2   3   4
  60 prop tor   2   3   4   5
  61 prop tor   2   3   4  19
  62 ben   2   3  23
  63 ben   3   2  22
  64 ben   3   4   5
  65 prop tor   3   4   5   6
  66 prop tor   3   4   5  18
  67 ben   3   4  19
  68 prop tor   3   4  19  20
  69 prop tor   3   4  19  44
  70 ben   4   3  23
  71 ben   4   5   6
  72 prop tor   4   5   6   7
  73 prop tor   4   5   6  11
  74 prop tor   4   5   6  24
  75 ben   4   5  18
  76 prop tor   4   5  18  13
  77 prop tor   4   5  18  17
  78 prop tor   4   5  18  43
  79 ben   4  19  20
  80 prop tor   4  19  20   1
  81 prop tor   4  19  20  45
  82 ben   4  19  44
  83 ben   5   4  19
  84 prop tor   5   4  19  20
  85 prop tor   5   4  19  44
  86 ben   5   6   7
  87 prop tor   5   6   7   8
  88 prop tor   5   6   7  25
  89 prop tor   5   6   7  26
  90 ben   5   6  11
  91 prop tor   5   6  11  10
  92 prop tor   5   6  11  12
  93 prop tor   5   6  11  33
  94 ben   5   6  24
  95 ben   5  18  13
  96 ben   5  18  17
  97 ben   5  18  43
  98 ben   6   5  18
  99 prop tor   6   5  18  13
 100 prop tor   6   5  18  17
 101 prop tor   6   5  18  43
 102 ben   6   7   8
 103 prop tor   6   7   8   9
 104 prop tor   6   7   8  27
 105 prop tor   6   7   8  28
 106 ben   6   7  25
 107 ben   6   7  26
 108 ben   6  11  10
 109 ben   6  11  12
 110 prop tor   6  11  12  13
 111 ben   6  11  33
 112 ben   7   6  11
 113 prop tor   7   6  11  10
 114 prop tor   7   6  11  12
 115 prop tor   7   6  11  33
 116 ben   7   6  24
 117 ben   7   8   9
 118 prop tor   7   8   9  10
 119 prop tor   7   8   9  29
 120 prop tor   7   8   9  30
 121 ben   7   8  27
 122 ben   7   8  28
 123 ben   8   7  25
 124 ben   8   7  26
 125 ben   8   9  10
 126 prop tor   8   9  10  11
 127 prop tor   8   9  10  31
 128 prop tor   8   9  10  32
 129 ben   8   9  29
 130 ben   8   9  30
 131 ben   9   8  27
 132 ben   9   8  28
 133 ben   9  10  11
 134 prop tor   9  10  11   6
 135 prop tor   9  10  11  12
 136 prop tor   9  10  11  33
 137 ben   9  10  31
 138 ben   9  10  32
 139 ben  10   9  29
 140 ben  10   9  30
 141 ben  10  11  12
 142 prop tor  10  11  12  13
 143 ben  10  11  33
 144 prop tor  11   6   7   8
 145 prop tor  11   6   7  25
 146 prop tor  11   6   7  26
 147 ben  11   6  24
 148 ben  11  10  31
 149 ben  11  10  32
 150 ben  11  12  13
 151 prop tor  11  12  13  14
 152 prop tor  11  12  13  18
 153 prop tor  11  12  13  34
 154 ben  12  11  33
 155 ben  12  13  14
 156 prop tor  12  13  14  15
 157 prop tor  12  13  14  35
 158 prop tor  12  13  14  36
 159 ben  12  13  18
 160 prop tor  12  13  18   5
 161 prop tor  12  13  18  17
 162 prop tor  12  13  18  43
 163 ben  12  13  34
 164 ben  13  14  15
 165 prop tor  13  14  15  16
 166 prop tor  13  14  15  37
 167 prop tor  13  14  15  38
 168 ben  13  14  35
 169 ben  13  14  36
 170 ben  13  18  17
 171 ben  13  18  43
 172 ben  14  13  18
 173 prop tor  14  13  18   5
 174 prop tor  14  13  18  17
 175 prop tor  14  13  18  43
 176 ben  14  13  34
 177 ben  14  15  16
 178 prop tor  14  15  16  17
 179 prop tor  14  15  16  39
 180 prop tor  14  15  16  40
 181 ben  14  15  37
 182 ben  14  15  38
 183 ben  15  14  35
 184 ben  15  14  36
 185 ben  15  16  17
 186 prop tor  15  16  17  18
 187 prop tor  15  16  17  41
 188 prop tor  15  16  17  42
 189 ben  15  16  39
 190 ben  15  16  40
 191 ben  16  15  37
 192 ben  16  15  38
 193 ben  16  17  18
 194 prop tor  16  17  18   5
 195 prop tor  16  17  18  13
 196 prop tor  16  17  18  43
 197 ben  16  17  41
 198 ben  16  17  42
 199 ben  17  16  39
 200 ben  17  16  40
 201 ben  17  18  43
 202 prop tor  18   5   6   7
 203 prop tor  18   5   6  11
 204 prop tor  18   5   6  24
 205 prop tor  18  13  14  15
 206 prop tor  18  13  14  35
 207 prop tor  18  13  14  36
 208 ben  18  13  34
 209 ben  18  17  41
 210 ben  18  17  42
 211 prop tor  19   4   5   6
 212 prop tor  19   4   5  18
 213 ben  19  20  45
 214 prop tor  20   1   2   3
 215 prop tor  20   1   2  22
 216 ben  20   1  21
 217 ben  20  19  44
 218 prop tor  21   1   2   3
 219 prop tor  21   1   2  22
 220 prop tor  21   1  20  19
 221 prop tor  21   1  20  45
 222 prop tor  22   2   3   4
 223 prop tor  22   2   3  23
 224 prop tor  23   3   4   5
 225 prop tor  23   3   4  19
 226 prop tor  24   6   7   8
 227 prop tor  24   6   7  25
 228 prop tor  24   6   7  26
 229 prop tor  24   6  11  10
 230 prop tor  24   6  11  12
 231 prop tor  24   6  11  33
 232 prop tor  25   7   8   9
 233 prop tor  25   7   8  27
 234 prop tor  25   7   8  28
 235 ben  25   7  26
 236 prop tor  26   7   8   9
 237 prop tor  26   7   8  27
 238 prop tor  26   7   8  28
 239 prop tor  27   8   9  10
 240 prop tor  27   8   9  29
 241 prop tor  27   8   9  30
 242 ben  27   8  28
 243 prop tor  28   8   9  10
 244 prop tor  28   8   9  29
 245 prop tor  28   8   9  30
 246 prop tor  29   9  10  11
 247 prop tor  29   9  10  31
 248 prop tor  29   9  10  32
 249 ben  29   9  30
 250 prop tor  30   9  10  11
 251 prop tor  30   9  10  31
 252 prop tor  30   9  10  32
 253 prop tor  31  10  11   6
 254 prop tor  31  10  11  12
 255 prop tor  31  10  11  33
 256 ben  31  10  32
 257 prop tor  32  10  11   6
 258 prop tor  32  10  11  12
 259 prop tor  32  10  11  33
 260 prop tor  33  11  12  13
 261 prop tor  34  13  14  15
 262 prop tor  34  13  14  35
 263 prop tor  34  13  14  36
 264 prop tor  34  13  18   5
 265 prop tor  34  13  18  17
 266 prop tor  34  13  18  43
 267 prop tor  35  14  15  16
 268 prop tor  35  14  15  37
 269 prop tor  35  14  15  38
 270 ben  35  14  36
 271 prop tor  36  14  15  16
 272 prop tor  36  14  15  37
 273 prop tor  36  14  15  38
 274 prop tor  37  15  16  17
 275 prop tor  37  15  16  39
 276 prop tor  37  15  16  40
 277 ben  37  15  38
 278 prop tor  38  15  16  17
 279 prop tor  38  15  16  39
 280 prop tor  38  15  16  40
 281 prop tor  39  16  17  18
 282 prop tor  39  16  17  41
 283 prop tor  39  16  17  42
 284 ben  39  16  40
 285 prop tor  40  16  17  18
 286 prop tor  40  16  17  41
 287 prop tor  40  16  17  42
 288 prop tor  41  17  18   5
 289 prop tor  41  17  18  13
 290 prop tor  41  17  18  43
 291 ben  41  17  42
 292 prop tor  42  17  18   5
 293 prop tor  42  17  18  13
 294 prop tor  42  17  18  43
 295 prop tor  44  19  20   1
 296 prop tor  44  19  20  45
 nber bend=              94
 nber lin bend=           0
 nber prop tor=         154
 nber impr tor=           0
 nber tot redund int=         296
 Reading file: 
 ./phenothiazine_1_C1S0.log                                                     
                                          
  Entering Gaussian System, Link 0=g16                                          
  
 Gaussian format, type: g94, g98, g03= F F F
  #P Geom=AllCheck Guess=TCheck SCRF=Check GenChk UB3LYP/6-311G(d,p) Fre    
 energy type= B3LYP   
 Original G94 input coords:
  6 -0.842677  0.308589  0.695580
  6  0.029271  1.134647 -0.012564
  6  1.391087  0.861210 -0.034628
  6  1.888871 -0.264028  0.639717
  7  3.286567 -0.549355  0.575561
  6  4.259905  0.233708  1.333080
  6  3.865031  1.690116  1.625713
  6  4.913158  2.392107  2.499284
  6  5.104306  1.663978  3.830410
  6  5.522469  0.208969  3.596703
  6  4.527828 -0.550142  2.702010
 16  5.228648 -2.196195  2.368539
  6  4.067341 -2.872468  1.140897
  6  4.672690 -4.144405  0.526736
  6  3.788034 -4.711878 -0.592370
  6  3.516489 -3.662792 -1.675422
  6  2.879422 -2.399153 -1.082868
  6  3.780245 -1.802479  0.011303
  6  1.006965 -1.108619  1.331744
  6 -0.349353 -0.808133  1.369727
  1 -1.902461  0.531073  0.718784
  1 -0.351156  1.992104 -0.554040
  1  2.062138  1.489857 -0.603990
  1  5.198693  0.215840  0.774445
  1  2.894126  1.724195  2.126910
  1  3.759253  2.223813  0.678993
  1  4.593222  3.423037  2.667687
  1  5.868945  2.446878  1.965042
  1  4.173898  1.696858  4.409077
  1  5.865332  2.163071  4.434615
  1  5.605215 -0.322482  4.548524
  1  6.513204  0.182961  3.129819
  1  3.560626 -0.648703  3.201511
  1  3.121333 -3.110493  1.629498
  1  4.811014 -4.887972  1.316067
  1  5.667005 -3.911302  0.130143
  1  2.838613 -5.061651 -0.170228
  1  4.276262 -5.587983 -1.025223
  1  2.852820 -4.069698 -2.442078
  1  4.452894 -3.402693 -2.183075
  1  1.896924 -2.643842 -0.672656
  1  2.724481 -1.643583 -1.858114
  1  4.754638 -1.566734 -0.426689
  1  1.376915 -1.973185  1.865605
  1 -1.021793 -1.448591  1.927330
 nber atoms=          45
  SCF Done:  E(UB3LYP) =  -1153.88215713     A.U. after    1 cycles             
  
          23          40 "  -1153.88215713"
After scan for Atom:   Atom  AN      X      Y      Z        X      Y      Z        X      Y      Z   
After scan for Atom:   Atom  AN      X      Y      Z        X      Y      Z        X      Y      Z   
After scan for Atom:   Atom  AN      X      Y      Z        X      Y      Z        X      Y      Z   
After scan for Atom:   Atom  AN      X      Y      Z        X      Y      Z        X      Y      Z   
After scan for Atom:   Atom  AN      X      Y      Z        X      Y      Z        X      Y      Z   
After scan for Atom:   Atom  AN      X      Y      Z        X      Y      Z        X      Y      Z   
After scan for Atom:   Atom  AN      X      Y      Z        X      Y      Z        X      Y      Z   
After scan for Atom:   Atom  AN      X      Y      Z        X      Y      Z        X      Y      Z   
After scan for Atom:   Atom  AN      X      Y      Z        X      Y      Z        X      Y      Z   
After scan for Atom:   Atom  AN      X      Y      Z        X      Y      Z        X      Y      Z   
After scan for Atom:   Atom  AN      X      Y      Z        X      Y      Z        X      Y      Z   
After scan for Atom:   Atom  AN      X      Y      Z        X      Y      Z        X      Y      Z   
After scan for Atom:   Atom  AN      X      Y      Z        X      Y      Z        X      Y      Z   
After scan for Atom:   Atom  AN      X      Y      Z        X      Y      Z        X      Y      Z   
After scan for Atom:   Atom  AN      X      Y      Z        X      Y      Z        X      Y      Z   
After scan for Atom:   Atom  AN      X      Y      Z        X      Y      Z        X      Y      Z   
After scan for Atom:   Atom  AN      X      Y      Z        X      Y      Z        X      Y      Z   
After scan for Atom:   Atom  AN      X      Y      Z        X      Y      Z        X      Y      Z   
After scan for Atom:   Atom  AN      X      Y      Z        X      Y      Z        X      Y      Z   
After scan for Atom:   Atom  AN      X      Y      Z        X      Y      Z        X      Y      Z   
After scan for Atom:   Atom  AN      X      Y      Z        X      Y      Z        X      Y      Z   
After scan for Atom:   Atom  AN      X      Y      Z        X      Y      Z        X      Y      Z   
After scan for Atom:   Atom  AN      X      Y      Z        X      Y      Z        X      Y      Z   
After scan for Atom:   Atom  AN      X      Y      Z        X      Y      Z        X      Y      Z   
After scan for Atom:   Atom  AN      X      Y      Z        X      Y      Z        X      Y      Z   
After scan for Atom:   Atom  AN      X      Y      Z        X      Y      Z        X      Y      Z   
After scan for Atom:   Atom  AN      X      Y      Z        X      Y      Z        X      Y      Z   
After scan for Atom:   Atom  AN      X      Y      Z        X      Y      Z        X      Y      Z   
After scan for Atom:   Atom  AN      X      Y      Z        X      Y      Z        X      Y      Z   
After scan for Atom:   Atom  AN      X      Y      Z        X      Y      Z        X      Y      Z   
After scan for Atom:   Atom  AN      X      Y      Z        X      Y      Z        X      Y      Z   
After scan for Atom:   Atom  AN      X      Y      Z        X      Y      Z        X      Y      Z   
After scan for Atom:   Atom  AN      X      Y      Z        X      Y      Z        X      Y      Z   
After scan for Atom:   Atom  AN      X      Y      Z        X      Y      Z        X      Y      Z   
After scan for Atom:   Atom  AN      X      Y      Z        X      Y      Z        X      Y      Z   
After scan for Atom:   Atom  AN      X      Y      Z        X      Y      Z        X      Y      Z   
After scan for Atom:   Atom  AN      X      Y      Z        X      Y      Z        X      Y      Z   
After scan for Atom:   Atom  AN      X      Y      Z        X      Y      Z        X      Y      Z   
After scan for Atom:   Atom  AN      X      Y      Z        X      Y      Z        X      Y      Z   
After scan for Atom:   Atom  AN      X      Y      Z        X      Y      Z        X      Y      Z   
After scan for Atom:   Atom  AN      X      Y      Z        X      Y      Z        X      Y      Z   
After scan for Atom:   Atom  AN      X      Y      Z        X      Y      Z        X      Y      Z   
After scan for Atom:   Atom  AN      X      Y      Z        X      Y      Z        X      Y      Z   
 g94    frequencies=
     0.0    0.0    0.0    0.0    0.0    0.0   26.1   50.3   66.9   79.9
    92.0  144.8  164.6  178.9  210.0  241.9  266.8  299.6  316.3  321.5
   333.8  343.3  349.5  367.4  403.7  418.0  430.1  449.9  475.8  498.3
   521.7  538.5  598.6  628.3  666.9  707.8  722.9  742.9  752.1  760.9
   787.3  791.0  842.4  845.0  857.0  865.1  874.1  874.6  891.0  937.5
   946.4  951.4  960.4  978.3  991.2  997.6 1013.8 1016.5 1026.2 1041.7
  1043.1 1056.6 1063.8 1084.2 1088.2 1094.5 1105.9 1116.1 1122.6 1144.0
  1155.0 1192.3 1192.5 1209.3 1216.8 1218.9 1221.0 1239.6 1272.7 1282.9
  1286.3 1296.8 1307.6 1315.3 1318.1 1321.8 1334.6 1347.7 1358.3 1365.1
  1371.3 1374.6 1378.4 1380.2 1382.7 1389.9 1393.2 1430.0 1478.0 1486.3
  1487.7 1488.5 1489.7 1494.8 1495.2 1503.5 1503.7 1509.0 1604.9 1615.9
  3018.1 3019.8 3026.0 3026.9 3033.0 3033.0 3043.7 3048.0 3048.5 3055.7
  3069.0 3074.2 3079.6 3080.1 3082.3 3083.4 3085.8 3087.6 3096.1 3098.1
  3185.0 3192.5 3202.5 3212.1 3213.4
 g94    symmetries=
                                                 A      A      A      A
       A      A      A      A      A      A      A      A      A      A
       A      A      A      A      A      A      A      A      A      A
       A      A      A      A      A      A      A      A      A      A
       A      A      A      A      A      A      A      A      A      A
       A      A      A      A      A      A      A      A      A      A
       A      A      A      A      A      A      A      A      A      A
       A      A      A      A      A      A      A      A      A      A
       A      A      A      A      A      A      A      A      A      A
       A      A      A      A      A      A      A      A      A      A
       A      A      A      A      A      A      A      A      A      A
       A      A      A      A      A      A      A      A      A      A
       A      A      A      A      A      A      A      A      A      A
       A      A      A      A      A
 atomic masses:
 12.0000 12.0000 12.0000 12.0000 14.0031 12.0000 12.0000 12.0000 12.0000 12.0000
 12.0000 31.9721 12.0000 12.0000 12.0000 12.0000 12.0000 12.0000 12.0000 12.0000
  1.0078  1.0078  1.0078  1.0078  1.0078  1.0078  1.0078  1.0078  1.0078  1.0078
  1.0078  1.0078  1.0078  1.0078  1.0078  1.0078  1.0078  1.0078  1.0078  1.0078
  1.0078  1.0078  1.0078  1.0078  1.0078
 looking for force constants in 
 ./phenothiazine_1_C1S0.fchk                                                    
  
 Cartesian Force Constants                  R   N=        9180                  
  
 n3=         135        9180
 g94-fc frequencies=
    -5.8   -0.0    0.0    0.0    0.6    4.5   26.2   50.3   66.9   79.9
    92.0  144.9  164.6  178.9  210.0  241.9  266.8  299.7  316.3  321.5
   333.8  343.3  349.5  367.4  403.7  418.0  430.1  449.9  475.8  498.3
   521.7  538.6  598.6  628.3  666.9  707.8  723.0  742.9  752.2  760.9
   787.3  791.0  842.4  845.0  857.0  865.1  874.1  874.6  891.0  937.5
   946.4  951.4  960.4  978.3  991.3  997.6 1013.8 1016.6 1026.2 1041.8
  1043.1 1056.6 1063.8 1084.3 1088.3 1094.5 1105.9 1116.1 1122.6 1144.0
  1155.0 1192.3 1192.5 1209.4 1216.8 1218.9 1221.0 1239.6 1272.7 1282.9
  1286.3 1296.8 1307.6 1315.3 1318.1 1321.8 1334.7 1347.8 1358.3 1365.1
  1371.3 1374.6 1378.4 1380.3 1382.7 1389.9 1393.2 1430.0 1478.0 1486.4
  1487.7 1488.5 1489.7 1494.8 1495.2 1503.5 1503.7 1509.0 1605.0 1615.9
  3018.1 3019.8 3026.1 3026.9 3033.0 3033.1 3043.8 3048.0 3048.6 3055.8
  3069.0 3074.2 3079.7 3080.2 3082.4 3083.5 3085.9 3087.7 3096.2 3098.2
  3185.0 3192.5 3202.6 3212.2 3213.5
 at 99999: n3=         135
 symm operator            1 :  F  nop=           0
 symm operator            2 :  F  nop=           0
 symm operator            3 :  F  nop=           0
 symm operator            4 :  F  nop=           0
 symm operator            5 :  F  nop=           0
 symm operator            6 :  F  nop=           0
 symm operator            7 :  F  nop=           0
 The point group of the molecule is  C1
 Symmetry rotation matrix:
   1.00000   0.00000   0.00000
   0.00000   1.00000   0.00000
   0.00000   0.00000   1.00000

 Projecting out zero-frequency components
 generating redundant internal coords
         300        3600          45
 search for int coords
   1 str   2   1   1.394
   2 str   3   2   1.389
   3 str   4   3   1.403
   4 str   5   4   1.428
   5 str   6   5   1.461
   6 str   7   6   1.537
   7 str   8   7   1.534
   8 str   9   8   1.529
   9 str  10   9   1.532
  10 str  11   6   1.600
  11 str  11  10   1.538
  12 str  12  11   1.820
  13 str  13  12   1.820
  14 str  14  13   1.537
  15 str  15  14   1.535
  16 str  16  15   1.532
  17 str  17  16   1.534
  18 str  18   5   1.460
  19 str  18  13   1.582
  20 str  18  17   1.538
  21 str  19   4   1.404
  22 str  20   1   1.395
  23 str  20  19   1.390
  24 str  21   1   1.083
  25 str  22   2   1.083
  26 str  23   3   1.082
  27 str  24   6   1.093
  28 str  25   7   1.093
  29 str  26   7   1.092
  30 str  27   8   1.092
  31 str  28   8   1.096
  32 str  29   9   1.096
  33 str  30   9   1.092
  34 str  31  10   1.093
  35 str  32  10   1.096
  36 str  33  11   1.093
  37 str  34  13   1.091
  38 str  35  14   1.093
  39 str  36  14   1.096
  40 str  37  15   1.096
  41 str  38  15   1.092
  42 str  39  16   1.093
  43 str  40  16   1.096
  44 str  41  17   1.092
  45 str  42  17   1.094
  46 str  43  18   1.094
  47 str  44  19   1.081
  48 str  45  20   1.083
 nber stretches=          48
  49 ben   1   2   3
  50 prop tor   1   2   3   4
  51 prop tor   1   2   3  23
  52 ben   1   2  22
  53 ben   1  20  19
  54 ben   1  20  45
  55 ben   2   1  20
  56 prop tor   2   1  20  19
  57 prop tor   2   1  20  45
  58 ben   2   1  21
  59 ben   2   3   4
  60 prop tor   2   3   4   5
  61 prop tor   2   3   4  19
  62 ben   2   3  23
  63 ben   3   2  22
  64 ben   3   4   5
  65 prop tor   3   4   5   6
  66 prop tor   3   4   5  18
  67 ben   3   4  19
  68 prop tor   3   4  19  20
  69 prop tor   3   4  19  44
  70 ben   4   3  23
  71 ben   4   5   6
  72 prop tor   4   5   6   7
  73 prop tor   4   5   6  11
  74 prop tor   4   5   6  24
  75 ben   4   5  18
  76 prop tor   4   5  18  13
  77 prop tor   4   5  18  17
  78 prop tor   4   5  18  43
  79 ben   4  19  20
  80 prop tor   4  19  20   1
  81 prop tor   4  19  20  45
  82 ben   4  19  44
  83 ben   5   4  19
  84 prop tor   5   4  19  20
  85 prop tor   5   4  19  44
  86 ben   5   6   7
  87 prop tor   5   6   7   8
  88 prop tor   5   6   7  25
  89 prop tor   5   6   7  26
  90 ben   5   6  11
  91 prop tor   5   6  11  10
  92 prop tor   5   6  11  12
  93 prop tor   5   6  11  33
  94 ben   5   6  24
  95 ben   5  18  13
  96 ben   5  18  17
  97 ben   5  18  43
  98 ben   6   5  18
  99 prop tor   6   5  18  13
 100 prop tor   6   5  18  17
 101 prop tor   6   5  18  43
 102 ben   6   7   8
 103 prop tor   6   7   8   9
 104 prop tor   6   7   8  27
 105 prop tor   6   7   8  28
 106 ben   6   7  25
 107 ben   6   7  26
 108 ben   6  11  10
 109 ben   6  11  12
 110 prop tor   6  11  12  13
 111 ben   6  11  33
 112 ben   7   6  11
 113 prop tor   7   6  11  10
 114 prop tor   7   6  11  12
 115 prop tor   7   6  11  33
 116 ben   7   6  24
 117 ben   7   8   9
 118 prop tor   7   8   9  10
 119 prop tor   7   8   9  29
 120 prop tor   7   8   9  30
 121 ben   7   8  27
 122 ben   7   8  28
 123 ben   8   7  25
 124 ben   8   7  26
 125 ben   8   9  10
 126 prop tor   8   9  10  11
 127 prop tor   8   9  10  31
 128 prop tor   8   9  10  32
 129 ben   8   9  29
 130 ben   8   9  30
 131 ben   9   8  27
 132 ben   9   8  28
 133 ben   9  10  11
 134 prop tor   9  10  11   6
 135 prop tor   9  10  11  12
 136 prop tor   9  10  11  33
 137 ben   9  10  31
 138 ben   9  10  32
 139 ben  10   9  29
 140 ben  10   9  30
 141 ben  10  11  12
 142 prop tor  10  11  12  13
 143 ben  10  11  33
 144 prop tor  11   6   7   8
 145 prop tor  11   6   7  25
 146 prop tor  11   6   7  26
 147 ben  11   6  24
 148 ben  11  10  31
 149 ben  11  10  32
 150 ben  11  12  13
 151 prop tor  11  12  13  14
 152 prop tor  11  12  13  18
 153 prop tor  11  12  13  34
 154 ben  12  11  33
 155 ben  12  13  14
 156 prop tor  12  13  14  15
 157 prop tor  12  13  14  35
 158 prop tor  12  13  14  36
 159 ben  12  13  18
 160 prop tor  12  13  18   5
 161 prop tor  12  13  18  17
 162 prop tor  12  13  18  43
 163 ben  12  13  34
 164 ben  13  14  15
 165 prop tor  13  14  15  16
 166 prop tor  13  14  15  37
 167 prop tor  13  14  15  38
 168 ben  13  14  35
 169 ben  13  14  36
 170 ben  13  18  17
 171 ben  13  18  43
 172 ben  14  13  18
 173 prop tor  14  13  18   5
 174 prop tor  14  13  18  17
 175 prop tor  14  13  18  43
 176 ben  14  13  34
 177 ben  14  15  16
 178 prop tor  14  15  16  17
 179 prop tor  14  15  16  39
 180 prop tor  14  15  16  40
 181 ben  14  15  37
 182 ben  14  15  38
 183 ben  15  14  35
 184 ben  15  14  36
 185 ben  15  16  17
 186 prop tor  15  16  17  18
 187 prop tor  15  16  17  41
 188 prop tor  15  16  17  42
 189 ben  15  16  39
 190 ben  15  16  40
 191 ben  16  15  37
 192 ben  16  15  38
 193 ben  16  17  18
 194 prop tor  16  17  18   5
 195 prop tor  16  17  18  13
 196 prop tor  16  17  18  43
 197 ben  16  17  41
 198 ben  16  17  42
 199 ben  17  16  39
 200 ben  17  16  40
 201 ben  17  18  43
 202 prop tor  18   5   6   7
 203 prop tor  18   5   6  11
 204 prop tor  18   5   6  24
 205 prop tor  18  13  14  15
 206 prop tor  18  13  14  35
 207 prop tor  18  13  14  36
 208 ben  18  13  34
 209 ben  18  17  41
 210 ben  18  17  42
 211 prop tor  19   4   5   6
 212 prop tor  19   4   5  18
 213 ben  19  20  45
 214 prop tor  20   1   2   3
 215 prop tor  20   1   2  22
 216 ben  20   1  21
 217 ben  20  19  44
 218 prop tor  21   1   2   3
 219 prop tor  21   1   2  22
 220 prop tor  21   1  20  19
 221 prop tor  21   1  20  45
 222 prop tor  22   2   3   4
 223 prop tor  22   2   3  23
 224 prop tor  23   3   4   5
 225 prop tor  23   3   4  19
 226 prop tor  24   6   7   8
 227 prop tor  24   6   7  25
 228 prop tor  24   6   7  26
 229 prop tor  24   6  11  10
 230 prop tor  24   6  11  12
 231 prop tor  24   6  11  33
 232 prop tor  25   7   8   9
 233 prop tor  25   7   8  27
 234 prop tor  25   7   8  28
 235 ben  25   7  26
 236 prop tor  26   7   8   9
 237 prop tor  26   7   8  27
 238 prop tor  26   7   8  28
 239 prop tor  27   8   9  10
 240 prop tor  27   8   9  29
 241 prop tor  27   8   9  30
 242 ben  27   8  28
 243 prop tor  28   8   9  10
 244 prop tor  28   8   9  29
 245 prop tor  28   8   9  30
 246 prop tor  29   9  10  11
 247 prop tor  29   9  10  31
 248 prop tor  29   9  10  32
 249 ben  29   9  30
 250 prop tor  30   9  10  11
 251 prop tor  30   9  10  31
 252 prop tor  30   9  10  32
 253 prop tor  31  10  11   6
 254 prop tor  31  10  11  12
 255 prop tor  31  10  11  33
 256 ben  31  10  32
 257 prop tor  32  10  11   6
 258 prop tor  32  10  11  12
 259 prop tor  32  10  11  33
 260 prop tor  33  11  12  13
 261 prop tor  34  13  14  15
 262 prop tor  34  13  14  35
 263 prop tor  34  13  14  36
 264 prop tor  34  13  18   5
 265 prop tor  34  13  18  17
 266 prop tor  34  13  18  43
 267 prop tor  35  14  15  16
 268 prop tor  35  14  15  37
 269 prop tor  35  14  15  38
 270 ben  35  14  36
 271 prop tor  36  14  15  16
 272 prop tor  36  14  15  37
 273 prop tor  36  14  15  38
 274 prop tor  37  15  16  17
 275 prop tor  37  15  16  39
 276 prop tor  37  15  16  40
 277 ben  37  15  38
 278 prop tor  38  15  16  17
 279 prop tor  38  15  16  39
 280 prop tor  38  15  16  40
 281 prop tor  39  16  17  18
 282 prop tor  39  16  17  41
 283 prop tor  39  16  17  42
 284 ben  39  16  40
 285 prop tor  40  16  17  18
 286 prop tor  40  16  17  41
 287 prop tor  40  16  17  42
 288 prop tor  41  17  18   5
 289 prop tor  41  17  18  13
 290 prop tor  41  17  18  43
 291 ben  41  17  42
 292 prop tor  42  17  18   5
 293 prop tor  42  17  18  13
 294 prop tor  42  17  18  43
 295 prop tor  44  19  20   1
 296 prop tor  44  19  20  45
 nber bend=              94
 nber lin bend=           0
 nber prop tor=         154
 nber impr tor=           0
 nber tot redund int=         296
 Eigenvalues of G in red int coords
    Gval -0.00000000 -0.00000000 -0.00000000 -0.00000000 -0.00000000 -0.00000000 -0.00000000 -0.00000000
    Gval -0.00000000 -0.00000000 -0.00000000 -0.00000000 -0.00000000 -0.00000000 -0.00000000 -0.00000000
    Gval -0.00000000 -0.00000000 -0.00000000 -0.00000000 -0.00000000 -0.00000000 -0.00000000 -0.00000000
    Gval -0.00000000 -0.00000000 -0.00000000 -0.00000000 -0.00000000 -0.00000000 -0.00000000 -0.00000000
    Gval -0.00000000 -0.00000000 -0.00000000 -0.00000000 -0.00000000 -0.00000000 -0.00000000 -0.00000000
    Gval -0.00000000 -0.00000000 -0.00000000 -0.00000000 -0.00000000 -0.00000000 -0.00000000 -0.00000000
    Gval -0.00000000 -0.00000000 -0.00000000 -0.00000000 -0.00000000 -0.00000000 -0.00000000 -0.00000000
    Gval -0.00000000 -0.00000000 -0.00000000 -0.00000000 -0.00000000 -0.00000000 -0.00000000 -0.00000000
    Gval -0.00000000 -0.00000000 -0.00000000 -0.00000000 -0.00000000 -0.00000000 -0.00000000 -0.00000000
    Gval -0.00000000 -0.00000000 -0.00000000 -0.00000000 -0.00000000 -0.00000000 -0.00000000 -0.00000000
    Gval -0.00000000 -0.00000000 -0.00000000 -0.00000000  0.00000000  0.00000000  0.00000000  0.00000000
    Gval  0.00000000  0.00000000  0.00000000  0.00000000  0.00000000  0.00000000  0.00000000  0.00000000
    Gval  0.00000000  0.00000000  0.00000000  0.00000000  0.00000000  0.00000000  0.00000000  0.00000000
    Gval  0.00000000  0.00000000  0.00000000  0.00000000  0.00000000  0.00000000  0.00000000  0.00000000
    Gval  0.00000000  0.00000000  0.00000000  0.00000000  0.00000000  0.00000000  0.00000000  0.00000000
    Gval  0.00000000  0.00000000  0.00000000  0.00000000  0.00000000  0.00000000  0.00000000  0.00000000
    Gval  0.00000000  0.00000000  0.00000000  0.00000000  0.00000000  0.00000000  0.00000000  0.00000000
    Gval  0.00000000  0.00000000  0.00000000  0.00000000  0.00000000  0.00000000  0.00000000  0.00000000
    Gval  0.00000000  0.00000000  0.00000000  0.00000000  0.00000000  0.00000000  0.00000000  0.00000000
    Gval  0.00000000  0.00000000  0.00000000  0.00000000  0.00000000  0.00000000  0.00000000  0.00000000
    Gval  0.00000000  0.00000000  0.00000000  0.00000000  0.00000000  0.00000000  0.00000000  0.00000218
    Gval  0.00000391  0.00000633  0.00000964  0.00001206  0.00001850  0.00001888  0.00002336  0.00002610
    Gval  0.00002985  0.00003567  0.00003864  0.00004345  0.00004692  0.00005143  0.00005791  0.00005919
    Gval  0.00006338  0.00006435  0.00007311  0.00007990  0.00008787  0.00009427  0.00010260  0.00011766
    Gval  0.00012162  0.00013877  0.00015691  0.00016672  0.00018414  0.00019233  0.00019470  0.00020640
    Gval  0.00021474  0.00022700  0.00024848  0.00025930  0.00026691  0.00027766  0.00029377  0.00031519
    Gval  0.00032993  0.00035503  0.00036610  0.00039729  0.00043089  0.00044510  0.00047301  0.00051352
    Gval  0.00052216  0.00053160  0.00057428  0.00057480  0.00057705  0.00057709  0.00058112  0.00058142
    Gval  0.00058412  0.00058526  0.00058579  0.00058589  0.00059049  0.00059120  0.00059306  0.00059333
    Gval  0.00060448  0.00061101  0.00061697  0.00062383  0.00065289  0.00066084  0.00066858  0.00069840
    Gval  0.00073248  0.00079783  0.00103970  0.00104703  0.00106168  0.00111336  0.00113785  0.00117392
    Gval  0.00117517  0.00118642  0.00119359  0.00121560  0.00123943  0.00124238  0.00136895  0.00143846
    Gval  0.00150158  0.00160729  0.00167118  0.00177151  0.00177318  0.00180462  0.00181417  0.00183120
    Gval  0.00184939  0.00187456  0.00188811  0.00189045  0.00192129  0.00207124  0.00223432  0.00228762
    Gval  0.00236081  0.00259529  0.00269874  0.00288187  0.00292376  0.00311039  0.00312971  0.00317378
    Gval  0.00376060  0.00378216  0.00380256  0.00384282  0.00385361  0.00395014  0.00395552  0.00401763
    Gval  0.00402183  0.00403042  0.00403096  0.00407077  0.00407320  0.00407452  0.00435793  0.00435955
  2.177000024530590E-006  2.177000024530590E-006
  3.909194182418381E-006  2.177000024530590E-006
  6.334002640000172E-006  2.177000024530590E-006
  9.636942925664380E-006  2.177000024530590E-006
  1.205532274810951E-005  2.177000024530590E-006
  1.849893829850435E-005  2.177000024530590E-006
  1.888035245213979E-005  2.177000024530590E-006
  2.336435818934506E-005  2.177000024530590E-006
  2.609759009643341E-005  2.177000024530590E-006
  2.984721879339764E-005  2.177000024530590E-006
  3.566713258707930E-005  2.177000024530590E-006
  3.863954111167250E-005  2.177000024530590E-006
  4.345112799467428E-005  2.177000024530590E-006
  4.692390031386825E-005  2.177000024530590E-006
  5.142938139436249E-005  2.177000024530590E-006
  5.790779905661150E-005  2.177000024530590E-006
  5.919154918810224E-005  2.177000024530590E-006
  6.338131475197109E-005  2.177000024530590E-006
  6.435415195075817E-005  2.177000024530590E-006
  7.310928836712718E-005  2.177000024530590E-006
  7.989804261634051E-005  2.177000024530590E-006
  8.786789168772927E-005  2.177000024530590E-006
  9.427163066098648E-005  2.177000024530590E-006
  1.025981302461552E-004  2.177000024530590E-006
  1.176565014472037E-004  2.177000024530590E-006
  1.216234397446320E-004  2.177000024530590E-006
  1.387683832639295E-004  2.177000024530590E-006
  1.569142998320271E-004  2.177000024530590E-006
  1.667179076490065E-004  2.177000024530590E-006
  1.841405692105031E-004  2.177000024530590E-006
  1.923270978502197E-004  2.177000024530590E-006
  1.946975046021642E-004  2.177000024530590E-006
  2.063978574052138E-004  2.177000024530590E-006
  2.147411932001178E-004  2.177000024530590E-006
  2.269951170606750E-004  2.177000024530590E-006
  2.484826720559748E-004  2.177000024530590E-006
  2.593031642177270E-004  2.177000024530590E-006
  2.669090235886179E-004  2.177000024530590E-006
  2.776556506697268E-004  2.177000024530590E-006
  2.937671560418886E-004  2.177000024530590E-006
  3.151932389205081E-004  2.177000024530590E-006
  3.299295385703067E-004  2.177000024530590E-006
  3.550338768797161E-004  2.177000024530590E-006
  3.661044700671307E-004  2.177000024530590E-006
  3.972922663800797E-004  2.177000024530590E-006
  4.308853374892942E-004  2.177000024530590E-006
  4.450969356029663E-004  2.177000024530590E-006
  4.730063165501916E-004  2.177000024530590E-006
  5.135163686567311E-004  2.177000024530590E-006
  5.221649198131436E-004  2.177000024530590E-006
  5.315993489685206E-004  2.177000024530590E-006
  5.742804513027117E-004  2.177000024530590E-006
  5.748025370886862E-004  2.177000024530590E-006
  5.770515032727617E-004  2.177000024530590E-006
  5.770938171275117E-004  2.177000024530590E-006
  5.811177417293056E-004  2.177000024530590E-006
  5.814217398195641E-004  2.177000024530590E-006
  5.841176438204441E-004  2.177000024530590E-006
  5.852583670482285E-004  2.177000024530590E-006
  5.857895042145773E-004  2.177000024530590E-006
  5.858900827048463E-004  2.177000024530590E-006
  5.904939503369327E-004  2.177000024530590E-006
  5.911988973736863E-004  2.177000024530590E-006
  5.930616382572853E-004  2.177000024530590E-006
  5.933279632407192E-004  2.177000024530590E-006
  6.044845919144018E-004  2.177000024530590E-006
  6.110136846280384E-004  2.177000024530590E-006
  6.169695402440202E-004  2.177000024530590E-006
  6.238260109417911E-004  2.177000024530590E-006
  6.528859170762339E-004  2.177000024530590E-006
  6.608428706940455E-004  2.177000024530590E-006
  6.685836694233007E-004  2.177000024530590E-006
  6.983983281528422E-004  2.177000024530590E-006
  7.324794354260708E-004  2.177000024530590E-006
  7.978339050515883E-004  2.177000024530590E-006
  1.039696971790104E-003  2.177000024530590E-006
  1.047026221198721E-003  2.177000024530590E-006
  1.061680145697923E-003  2.177000024530590E-006
  1.113362258148221E-003  2.177000024530590E-006
  1.137854126327528E-003  2.177000024530590E-006
  1.173915026613660E-003  2.177000024530590E-006
  1.175166665277092E-003  2.177000024530590E-006
  1.186420052382485E-003  2.177000024530590E-006
  1.193594590941452E-003  2.177000024530590E-006
  1.215600787570858E-003  2.177000024530590E-006
  1.239427714251451E-003  2.177000024530590E-006
  1.242378720325514E-003  2.177000024530590E-006
  1.368949327389710E-003  2.177000024530590E-006
  1.438461585877479E-003  2.177000024530590E-006
  1.501579287713073E-003  2.177000024530590E-006
  1.607287963859021E-003  2.177000024530590E-006
  1.671183206823814E-003  2.177000024530590E-006
  1.771511139451692E-003  2.177000024530590E-006
  1.773178709661881E-003  2.177000024530590E-006
  1.804619014293922E-003  2.177000024530590E-006
  1.814171827897203E-003  2.177000024530590E-006
  1.831201170183729E-003  2.177000024530590E-006
  1.849385330006404E-003  2.177000024530590E-006
  1.874561636312348E-003  2.177000024530590E-006
  1.888105214968998E-003  2.177000024530590E-006
  1.890451774247156E-003  2.177000024530590E-006
  1.921286022442560E-003  2.177000024530590E-006
  2.071242034272250E-003  2.177000024530590E-006
  2.234316189811506E-003  2.177000024530590E-006
  2.287617606451208E-003  2.177000024530590E-006
  2.360809165837945E-003  2.177000024530590E-006
  2.595286373516847E-003  2.177000024530590E-006
  2.698739028749833E-003  2.177000024530590E-006
  2.881871105435711E-003  2.177000024530590E-006
  2.923763465017508E-003  2.177000024530590E-006
  3.110390117392393E-003  2.177000024530590E-006
  3.129712936004949E-003  2.177000024530590E-006
  3.173783669098512E-003  2.177000024530590E-006
  3.760604216029636E-003  2.177000024530590E-006
  3.782159448864123E-003  2.177000024530590E-006
  3.802555921907189E-003  2.177000024530590E-006
  3.842817938276409E-003  2.177000024530590E-006
  3.853613879666947E-003  2.177000024530590E-006
  3.950141601660628E-003  2.177000024530590E-006
  3.955515952410814E-003  2.177000024530590E-006
  4.017633426476788E-003  2.177000024530590E-006
  4.021827867873207E-003  2.177000024530590E-006
  4.030415787587296E-003  2.177000024530590E-006
  4.030959167493699E-003  2.177000024530590E-006
  4.070770344156037E-003  2.177000024530590E-006
  4.073198220307457E-003  2.177000024530590E-006
  4.074517981572183E-003  2.177000024530590E-006
  4.357933031864067E-003  2.177000024530590E-006
  4.359545714955389E-003  2.177000024530590E-006
 cut=1d-8, nber non-redundant internal coords=         129
 Check on Eigenvals of non-red overlap matrix:
  0.00000218  0.00000391  0.00000633  0.00000964  0.00001206  0.00001850  0.00001888  0.00002336
  0.00002610  0.00002985  0.00003567  0.00003864  0.00004345  0.00004692  0.00005143  0.00005791
  0.00005919  0.00006338  0.00006435  0.00007311  0.00007990  0.00008787  0.00009427  0.00010260
  0.00011766  0.00012162  0.00013877  0.00015691  0.00016672  0.00018414  0.00019233  0.00019470
  0.00020640  0.00021474  0.00022700  0.00024848  0.00025930  0.00026691  0.00027766  0.00029377
  0.00031519  0.00032993  0.00035503  0.00036610  0.00039729  0.00043089  0.00044510  0.00047301
  0.00051352  0.00052216  0.00053160  0.00057428  0.00057480  0.00057705  0.00057709  0.00058112
  0.00058142  0.00058412  0.00058526  0.00058579  0.00058589  0.00059049  0.00059120  0.00059306
  0.00059333  0.00060448  0.00061101  0.00061697  0.00062383  0.00065289  0.00066084  0.00066858
  0.00069840  0.00073248  0.00079783  0.00103970  0.00104703  0.00106168  0.00111336  0.00113785
  0.00117392  0.00117517  0.00118642  0.00119359  0.00121560  0.00123943  0.00124238  0.00136895
  0.00143846  0.00150158  0.00160729  0.00167118  0.00177151  0.00177318  0.00180462  0.00181417
  0.00183120  0.00184939  0.00187456  0.00188811  0.00189045  0.00192129  0.00207124  0.00223432
  0.00228762  0.00236081  0.00259529  0.00269874  0.00288187  0.00292376  0.00311039  0.00312971
  0.00317378  0.00376060  0.00378216  0.00380256  0.00384282  0.00385361  0.00395014  0.00395552
  0.00401763  0.00402183  0.00403042  0.00403096  0.00407077  0.00407320  0.00407452  0.00435793
  0.00435955
 Checking for correct frequencies
 recalc frequencies=
    -0.0   -0.0   -0.0    0.0    0.0    0.0   26.1   50.3   66.9   79.9
    92.0  144.9  164.6  178.9  210.0  241.9  266.8  299.7  316.3  321.5
   333.8  343.3  349.5  367.4  403.7  418.0  430.1  449.9  475.8  498.3
   521.7  538.6  598.6  628.3  666.9  707.8  723.0  742.9  752.2  760.9
   787.3  791.0  842.4  845.0  857.0  865.1  874.1  874.6  891.0  937.5
   946.4  951.4  960.4  978.3  991.3  997.6 1013.8 1016.6 1026.2 1041.8
  1043.1 1056.6 1063.8 1084.3 1088.3 1094.5 1105.9 1116.1 1122.6 1144.0
  1155.0 1192.3 1192.5 1209.4 1216.8 1218.9 1221.0 1239.6 1272.7 1282.9
  1286.3 1296.8 1307.6 1315.3 1318.1 1321.8 1334.7 1347.8 1358.3 1365.1
  1371.3 1374.6 1378.4 1380.3 1382.7 1389.9 1393.2 1430.0 1478.0 1486.4
  1487.7 1488.5 1489.7 1494.8 1495.2 1503.5 1503.7 1509.0 1605.0 1615.9
  3018.1 3019.8 3026.1 3026.9 3033.0 3033.1 3043.8 3048.0 3048.6 3055.8
  3069.0 3074.2 3079.7 3080.2 3082.4 3083.5 3085.9 3087.7 3096.2 3098.2
  3185.0 3192.5 3202.6 3212.2 3213.5
 recalc symmetries=
                                                                       
                                                                       
                                                                       
                                                                       
                                                                       
                                                                       
                                                                       
                                                                       
                                                                       
                                                                       
                                                                       
                                                                       
                                                                       
                                    
 recalc freqs check OK
 Zero-point lengths:
 10.0000 10.0000 10.0000 10.0000 10.0000 10.0000 48.4807 34.9484 30.3064 27.7395
 25.8503 20.5984 19.3246 18.5336 17.1055 15.9395 15.1767 14.3213 13.9398 13.8263
 13.5694 13.3802 13.2600 12.9344 12.3390 12.1253 11.9533 11.6883 11.3654 11.1060
 10.8538 10.6827 10.1329  9.8901  9.5996  9.3183  9.2202  9.0954  9.0395  8.9873
  8.8351  8.8149  8.5413  8.5282  8.4685  8.4288  8.3851  8.3829  8.3051  8.0968
  8.0585  8.0375  7.9994  7.9261  7.8742  7.8491  7.7862  7.7755  7.7388  7.6809
  7.6759  7.6267  7.6009  7.5289  7.5150  7.4934  7.4549  7.4206  7.3990  7.3296
  7.2946  7.1795  7.1791  7.1288  7.1069  7.1008  7.0948  7.0414  6.9491  6.9215
  6.9124  6.8842  6.8557  6.8356  6.8285  6.8188  6.7859  6.7529  6.7265  6.7098
  6.6947  6.6866  6.6774  6.6729  6.6670  6.6497  6.6419  6.5558  6.4485  6.4303
  6.4274  6.4256  6.4231  6.4121  6.4113  6.3936  6.3931  6.3819  6.1882  6.1671
  4.5126  4.5113  4.5067  4.5060  4.5015  4.5015  4.4936  4.4904  4.4900  4.4847
  4.4750  4.4712  4.4673  4.4669  4.4653  4.4645  4.4628  4.4615  4.4554  4.4539
  4.3928  4.3876  4.3807  4.3742  4.3733
 highest evec of mol 2
  0.0791 -0.0176 -0.0011
  0.0322 -0.0702  0.0441
 -0.0837 -0.0760  0.0692
 -0.0090 -0.0003  0.0014
  0.0002  0.0002 -0.0001
  0.0008  0.0000  0.0004
 -0.0005 -0.0025  0.0039
  0.0001  0.0001 -0.0000
  0.0000 -0.0000 -0.0001
  0.0001 -0.0000  0.0000
  0.0018  0.0004 -0.0016
  0.0002 -0.0001  0.0002
  0.0068  0.0028 -0.0043
  0.0005  0.0001 -0.0003
  0.0003  0.0001 -0.0001
  0.0002  0.0000 -0.0000
  0.0016  0.0006 -0.0006
  0.0014 -0.0005 -0.0001
 -0.0740  0.1650 -0.1009
  0.0725  0.0647 -0.0572
 -0.2467  0.0523  0.0051
 -0.0977  0.2196 -0.1389
  0.2684  0.2504 -0.2241
 -0.0001  0.0002  0.0004
  0.0018 -0.0002 -0.0001
 -0.0019  0.0082 -0.0153
  0.0000  0.0001  0.0000
 -0.0001 -0.0000  0.0001
 -0.0002  0.0001  0.0001
 -0.0000  0.0000 -0.0001
  0.0001 -0.0000 -0.0000
 -0.0007 -0.0001  0.0002
 -0.0065 -0.0006  0.0037
 -0.0290 -0.0062  0.0152
  0.0001 -0.0004  0.0003
 -0.0022 -0.0003  0.0010
 -0.0008 -0.0004  0.0003
 -0.0001  0.0001  0.0000
 -0.0002 -0.0002 -0.0003
 -0.0007 -0.0000  0.0004
 -0.0052 -0.0014  0.0016
 -0.0003 -0.0005  0.0003
 -0.0023 -0.0006  0.0010
  0.2372 -0.5436  0.3323
 -0.2182 -0.2066  0.1805
 Enter nber and list of atoms to keep of mol #2
 keep list:          45           1           2           3           4
           5           6           7           8           9          10
          11          12          13          14          15          16
          17          18          19          20          21          22
          23          24          25          26          27          28
          29          30          31          32          33          34
          35          36          37          38          39          40
          41          42          43          44          45
 reordering atoms
           1 -0.741667541121606     
           2  -1.14887968820205     
           3 -0.941134738821266     
           4 -0.298228727595237     
           5 -6.084064734822175E-002
           6  -1.14223208719838     
           7  -2.54556560253388     
           8  -3.61446074966891     
           9  -3.62701536600779     
          10  -2.25411707136851     
          11  -1.12669550229713     
          12  0.452820199768194     
          13   1.67391328304817     
          14   3.06482222438314     
          15   4.12970242219118     
          16   3.74402738684893     
          17   2.37180569843793     
[...]
 nber times 1st assigned=           3           0
 nber times 1st assigned=           4           0
 nber times 1st assigned=           5           0
 nber times 1st assigned=           6           0
 nber times 1st assigned=           7           0
 nber times 1st assigned=           8           0
 nber times 1st assigned=           9           0
 nber times 1st assigned=          10           0
 nber times 1st assigned=          11           0
 nber times 1st assigned=          12           0
 nber times 1st assigned=          13           0
 nber times 1st assigned=          14           0
 nber times 1st assigned=          15           0
 nber times 1st assigned=          16           0
 nber times 1st assigned=          17           0
 nber times 1st assigned=          18           0
 nber times 1st assigned=          19           0
 nber times 1st assigned=          20           0
 nber times 1st assigned=          21           0
 nber times 1st assigned=          22           0
 nber times 1st assigned=          23           0
 nber times 1st assigned=          24           0
 nber times 1st assigned=          25           0
 nber times 1st assigned=          26           0
 nber times 1st assigned=          27           0
 nber times 1st assigned=          28           0
 nber times 1st assigned=          29           0
 nber times 1st assigned=          30           0
 nber times 1st assigned=          31           0
 nber times 1st assigned=          32           0
 nber times 1st assigned=          33           0
 nber times 1st assigned=          34           0
 nber times 1st assigned=          35           0
 nber times 1st assigned=          36           0
 nber times 1st assigned=          37           0
 nber times 1st assigned=          38           0
 nber times 1st assigned=          39           0
 nber times 1st assigned=          40           0
 nber times 1st assigned=          41           0
 nber times 1st assigned=          42           0
 nber times 1st assigned=          43           0
 nber times 1st assigned=          44           0
 nber times 1st assigned=          45           0
 nber times 1st assigned=          46           0
 nber times 1st assigned=          47           0
 nber times 1st assigned=          48           0
 nber times 1st assigned=          49           0
 nber times 1st assigned=          50           0
 nber times 1st assigned=          51           0
 nber times 1st assigned=          52           0
 nber times 1st assigned=          53           0
 nber times 1st assigned=          54           0
 nber times 1st assigned=          55           0
 nber times 1st assigned=          56           0
 nber times 1st assigned=          57           0
 nber times 1st assigned=          58           0
 nber times 1st assigned=          59           0
 nber times 1st assigned=          60           0
 nber times 1st assigned=          61           0
 nber times 1st assigned=          62           0
 nber times 1st assigned=          63           0
 nber times 1st assigned=          64           0
 nber times 1st assigned=          65           0
 nber times 1st assigned=          66           0
 nber times 1st assigned=          67           0
 nber times 1st assigned=          68           0
 nber times 1st assigned=          69           0
 nber times 1st assigned=          70           0
 nber times 1st assigned=          71           0
 nber times 1st assigned=          72           0
 nber times 1st assigned=          73           0
 nber times 1st assigned=          74           0
 nber times 1st assigned=          75           0
 nber times 1st assigned=          76           0
 nber times 1st assigned=          77           0
 nber times 1st assigned=          78           0
 nber times 1st assigned=          79           0
 nber times 1st assigned=          80           0
 nber times 1st assigned=          81           0
 nber times 1st assigned=          82           0
 nber times 1st assigned=          83           0
 nber times 1st assigned=          84           0
 nber times 1st assigned=          85           0
 nber times 1st assigned=          86           0
 nber times 1st assigned=          87           0
 nber times 1st assigned=          88           0
 nber times 1st assigned=          89           0
 nber times 1st assigned=          90           0
 nber times 1st assigned=          91           0
 nber times 1st assigned=          92           0
 nber times 1st assigned=          93           0
 nber times 1st assigned=          94           0
 nber times 1st assigned=          95           0
 nber times 1st assigned=          96           0
 nber times 1st assigned=          97           0
 nber times 1st assigned=          98           0
 nber times 1st assigned=          99           0
 nber times 1st assigned=         100           0
 nber times 1st assigned=         101           0
 nber times 1st assigned=         102           0
 nber times 1st assigned=         103           0
 nber times 1st assigned=         104           0
 nber times 1st assigned=         105           0
 nber times 1st assigned=         106           0
 nber times 1st assigned=         107           0
 nber times 1st assigned=         108           0
 nber times 1st assigned=         109           0
 nber times 1st assigned=         110           0
 nber times 1st assigned=         111           0
 nber times 1st assigned=         112           0
 nber times 1st assigned=         113           0
 nber times 1st assigned=         114           0
 nber times 1st assigned=         115           0
 nber times 1st assigned=         116           0
 nber times 1st assigned=         117           0
 nber times 1st assigned=         118           0
 nber times 1st assigned=         119           0
 nber times 1st assigned=         120           0
 nber times 1st assigned=         121           0
 nber times 1st assigned=         122           0
 nber times 1st assigned=         123           0
 nber times 1st assigned=         124           0
 nber times 1st assigned=         125           0
 nber times 1st assigned=         126           0
 nber times 1st assigned=         127           0
 nber times 1st assigned=         128           0
 nber times 1st assigned=         129           0
 nber times 1st assigned=         130           0
 nber times 1st assigned=         131           0
 nber times 1st assigned=         132           0
 nber times 1st assigned=         133           0
 nber times 1st assigned=         134           0
 nber times 1st assigned=         135           0
 modes represented=   134.550537714690     
 p1=
   -9.    0.    0.    0.   -0.   -0.   -0.  -25.   23.   34.  141.   -8.  -31.   18.   11.    1.    4.    3.    1.   -1.
   -2.  -19.    9.    8.   -4.    0.    9.    1.    1.    5.   -2.    3.   -5.   -1.   -2.   -0.    1.    1.   -4.   -0.
    6.    4.   -0.   -1.   -2.   -1.   -1.   -2.   -1.    1.   -1.   -1.    1.   -0.    2.   -2.   -0.    2.    6.   -1.
    1.    0.    1.   -0.    0.   -0.    0.    1.   -1.    1.    1.   -1.   -2.    0.    1.   -1.    0.    2.   -0.   -1.
    0.    0.    1.   -0.    1.   -0.   -0.   -0.    0.    0.    0.   -0.    0.    0.    0.    0.   -0.   -0.   -1.   -0.
   -0.    0.    0.   -0.    0.    0.    0.    0.    0.   -4.    0.    0.    0.    0.    0.   -0.   -0.   -0.    0.    0.
    0.    0.    0.   -0.   -0.    0.    0.    0.    0.   -0.   -0.   -0.   -0.    0.    0.
 p2=
    0.    0.   -0.   -0.   -0.   -0.  135.  -55.  -43.   15.   -0.   -7.   -1.   -4.   -8.   10.   -1.    3.   -3.   -0.
   -1.   -4.   -3.    1.    1.    3.   -0.    2.    1.    1.    0.    2.    0.    2.    0.    1.   -2.   -0.    4.   -2.
    1.    3.    0.   -1.    1.    0.   -0.   -1.    0.    0.    0.    0.   -0.    1.   -0.   -0.   -6.   -0.   -0.   -2.
    2.    0.    0.    0.   -0.    0.    0.    0.    1.    0.   -2.    4.    2.   -1.   -2.    0.    0.    1.   -0.    1.
    0.    0.    0.    0.    1.   -1.    0.    0.    1.    0.    0.   -0.    0.   -0.   -0.    0.    0.    1.   -2.   -0.
    0.   -0.    0.   -0.   -0.   -0.    0.   -1.   -4.   -4.   -0.    0.    0.   -0.   -0.   -0.    0.    0.   -0.   -0.
    0.   -0.   -0.    0.    0.   -0.    0.   -0.   -0.   -0.   -0.   -0.   -0.    0.   -0.

 Displacement: in terms of nc of 1 THEN of nc of 2

   1     freq=   -20. Q= -0.170 lam=    -0.3     freq=    -0. Q= -0.000 lam=    -0.0
   2     freq=    -0. Q=  0.000 lam=    -0.0     freq=    -0. Q=  0.000 lam=    -0.0
   3     freq=    -0. Q=  0.000 lam=    -0.0     freq=    -0. Q=  0.000 lam=    -0.0
   4     freq=    -0. Q=  0.000 lam=    -0.0     freq=     0. Q=  0.000 lam=     0.0
   5     freq=     0. Q= -0.000 lam=     0.0     freq=     0. Q= -0.000 lam=     0.0
   6     freq=     0. Q= -0.000 lam=     0.0     freq=     0. Q= -0.000 lam=     0.0
   7     freq=     0. Q= -0.000 lam=     0.0     freq=    26. Q= -2.788 lam=   101.6
   8     freq=    48. Q= -0.700 lam=    11.7     freq=    50. Q= -1.578 lam=    62.6
   9     freq=    74. Q=  0.792 lam=    23.2     freq=    67. Q=  1.405 lam=    66.0
  10     freq=    79. Q=  1.223 lam=    58.9     freq=    80. Q=  0.548 lam=    12.0
  11     freq=   107. Q=  5.893 lam=  1857.8     freq=    92. Q=  0.006 lam=     0.0
  12     freq=   141. Q= -0.387 lam=    10.6     freq=   145. Q= -0.341 lam=     8.4
  13     freq=   167. Q= -1.612 lam=   216.8     freq=   165. Q= -0.057 lam=     0.3
  14     freq=   168. Q=  0.959 lam=    77.3     freq=   179. Q=  0.230 lam=     4.7
  15     freq=   194. Q=  0.627 lam=    38.1     freq=   210. Q=  0.496 lam=    25.9
  16     freq=   200. Q=  0.051 lam=     0.3     freq=   242. Q=  0.604 lam=    44.1
  17     freq=   239. Q=  0.233 lam=     6.5     freq=   267. Q=  0.057 lam=     0.4
  18     freq=   293. Q=  0.203 lam=     6.0     freq=   300. Q=  0.228 lam=     7.8
  19     freq=   314. Q=  0.086 lam=     1.2     freq=   316. Q=  0.192 lam=     5.8
  20     freq=   319. Q= -0.047 lam=     0.3     freq=   321. Q= -0.005 lam=     0.0
  21     freq=   332. Q= -0.162 lam=     4.4     freq=   334. Q= -0.040 lam=     0.3
  22     freq=   339. Q= -1.441 lam=   351.4     freq=   343. Q= -0.285 lam=    13.9
  23     freq=   343. Q=  0.687 lam=    80.9     freq=   350. Q=  0.204 lam=     7.3
  24     freq=   355. Q=  0.581 lam=    59.9     freq=   367. Q=  0.085 lam=     1.3
  25     freq=   380. Q= -0.341 lam=    22.0     freq=   404. Q= -0.070 lam=     1.0
  26     freq=   397. Q=  0.005 lam=     0.0     freq=   418. Q=  0.207 lam=     9.0
  27     freq=   403. Q=  0.760 lam=   116.5     freq=   430. Q=  0.004 lam=     0.0
  28     freq=   433. Q=  0.079 lam=     1.4     freq=   450. Q=  0.137 lam=     4.2
  29     freq=   441. Q=  0.124 lam=     3.4     freq=   476. Q=  0.067 lam=     1.1
  30     freq=   462. Q=  0.392 lam=    35.5     freq=   498. Q=  0.079 lam=     1.6
  31     freq=   501. Q= -0.145 lam=     5.3     freq=   522. Q= -0.036 lam=     0.3
  32     freq=   504. Q=  0.314 lam=    24.8     freq=   539. Q=  0.148 lam=     5.9
  33     freq=   512. Q= -0.457 lam=    53.3     freq=   599. Q= -0.003 lam=     0.0
  34     freq=   541. Q= -0.098 lam=     2.6     freq=   628. Q= -0.251 lam=    19.8
  35     freq=   589. Q= -0.201 lam=    11.9     freq=   667. Q= -0.034 lam=     0.4
  36     freq=   625. Q= -0.014 lam=     0.1     freq=   708. Q= -0.065 lam=     1.5
  37     freq=   635. Q=  0.075 lam=     1.8     freq=   723. Q=  0.186 lam=    12.5
  38     freq=   666. Q=  0.063 lam=     1.3     freq=   743. Q=  0.039 lam=     0.6
  39     freq=   679. Q= -0.394 lam=    52.9     freq=   752. Q= -0.435 lam=    71.3
  40     freq=   686. Q= -0.047 lam=     0.7     freq=   761. Q= -0.180 lam=    12.3
  41     freq=   720. Q=  0.600 lam=   129.8     freq=   787. Q=  0.148 lam=     8.6
  42     freq=   739. Q=  0.424 lam=    66.3     freq=   791. Q=  0.320 lam=    40.5
  43     freq=   754. Q= -0.028 lam=     0.3     freq=   842. Q= -0.023 lam=     0.2
  44     freq=   764. Q= -0.166 lam=    10.5     freq=   845. Q= -0.068 lam=     2.0
  45     freq=   783. Q= -0.190 lam=    14.1     freq=   857. Q= -0.106 lam=     4.8
  46     freq=   841. Q= -0.103 lam=     4.5     freq=   865. Q= -0.046 lam=     0.9
  47     freq=   855. Q= -0.153 lam=    10.0     freq=   874. Q= -0.008 lam=     0.0
  48     freq=   866. Q= -0.243 lam=    25.6     freq=   875. Q= -0.143 lam=     8.9
  49     freq=   870. Q= -0.091 lam=     3.6     freq=   891. Q= -0.059 lam=     1.5
  50     freq=   876. Q=  0.080 lam=     2.8     freq=   937. Q=  0.024 lam=     0.3
  51     freq=   889. Q= -0.097 lam=     4.1     freq=   946. Q= -0.056 lam=     1.5
  52     freq=   900. Q= -0.174 lam=    13.7     freq=   951. Q= -0.022 lam=     0.2
  53     freq=   921. Q=  0.139 lam=     8.9     freq=   960. Q=  0.036 lam=     0.6
  54     freq=   935. Q= -0.023 lam=     0.3     freq=   978. Q= -0.134 lam=     8.8
  55     freq=   939. Q=  0.253 lam=    30.0     freq=   991. Q=  0.055 lam=     1.5
  56     freq=   954. Q= -0.222 lam=    23.5     freq=   998. Q= -0.036 lam=     0.6
  57     freq=   960. Q= -0.022 lam=     0.2     freq=  1014. Q= -0.734 lam=   273.3
  58     freq=   975. Q=  0.269 lam=    35.4     freq=  1017. Q=  0.025 lam=     0.3
  59     freq=   989. Q=  0.753 lam=   280.7     freq=  1026. Q=  0.008 lam=     0.0
  60     freq=   997. Q= -0.072 lam=     2.5     freq=  1042. Q= -0.276 lam=    39.7
  61     freq=  1010. Q=  0.164 lam=    13.5     freq=  1043. Q=  0.204 lam=    21.8
  62     freq=  1048. Q=  0.046 lam=     1.1     freq=  1057. Q=  0.011 lam=     0.1
  63     freq=  1053. Q=  0.114 lam=     6.8     freq=  1064. Q=  0.038 lam=     0.8
  64     freq=  1065. Q= -0.013 lam=     0.1     freq=  1084. Q= -0.035 lam=     0.7
  65     freq=  1084. Q=  0.011 lam=     0.1     freq=  1088. Q=  0.006 lam=     0.0
  66     freq=  1088. Q= -0.013 lam=     0.1     freq=  1095. Q= -0.035 lam=     0.7
  67     freq=  1089. Q=  0.002 lam=     0.0     freq=  1106. Q=  0.041 lam=     0.9
  68     freq=  1096. Q=  0.166 lam=    15.2     freq=  1116. Q=  0.002 lam=     0.0
  69     freq=  1114. Q= -0.147 lam=    12.0     freq=  1123. Q= -0.190 lam=    20.2
  70     freq=  1129. Q=  0.104 lam=     6.1     freq=  1144. Q=  0.021 lam=     0.3
  71     freq=  1144. Q=  0.167 lam=    16.0     freq=  1155. Q=  0.223 lam=    28.7
  72     freq=  1156. Q= -0.172 lam=    17.1     freq=  1192. Q= -0.509 lam=   154.7
  73     freq=  1170. Q= -0.289 lam=    48.7     freq=  1192. Q= -0.309 lam=    57.0
  74     freq=  1202. Q=  0.010 lam=     0.1     freq=  1209. Q=  0.109 lam=     7.2
  75     freq=  1213. Q=  0.133 lam=    10.8     freq=  1217. Q=  0.230 lam=    32.1
  76     freq=  1215. Q= -0.107 lam=     6.9     freq=  1219. Q= -0.061 lam=     2.2
  77     freq=  1225. Q=  0.055 lam=     1.9     freq=  1221. Q=  0.048 lam=     1.4
  78     freq=  1232. Q=  0.260 lam=    41.6     freq=  1240. Q=  0.139 lam=    12.0
  79     freq=  1244. Q= -0.059 lam=     2.1     freq=  1273. Q= -0.025 lam=     0.4
  80     freq=  1270. Q= -0.150 lam=    14.4     freq=  1283. Q= -0.087 lam=     4.9
  81     freq=  1284. Q=  0.046 lam=     1.3     freq=  1286. Q=  0.039 lam=     1.0
  82     freq=  1290. Q=  0.025 lam=     0.4     freq=  1297. Q=  0.023 lam=     0.4
  83     freq=  1303. Q=  0.096 lam=     6.1     freq=  1308. Q=  0.055 lam=     2.0
  84     freq=  1304. Q= -0.020 lam=     0.3     freq=  1315. Q= -0.043 lam=     1.2
  85     freq=  1320. Q=  0.127 lam=    10.7     freq=  1318. Q=  0.084 lam=     4.6
  86     freq=  1322. Q= -0.032 lam=     0.7     freq=  1322. Q= -0.093 lam=     5.7
  87     freq=  1335. Q= -0.038 lam=     1.0     freq=  1335. Q= -0.066 lam=     2.9
  88     freq=  1338. Q= -0.007 lam=     0.0     freq=  1348. Q= -0.074 lam=     3.7
  89     freq=  1347. Q=  0.031 lam=     0.6     freq=  1358. Q=  0.134 lam=    12.2
  90     freq=  1360. Q=  0.040 lam=     1.1     freq=  1365. Q=  0.050 lam=     1.7
  91     freq=  1361. Q=  0.026 lam=     0.5     freq=  1371. Q=  0.014 lam=     0.1
  92     freq=  1369. Q= -0.034 lam=     0.8     freq=  1375. Q= -0.020 lam=     0.3
  93     freq=  1373. Q=  0.056 lam=     2.2     freq=  1378. Q=  0.003 lam=     0.0
  94     freq=  1375. Q=  0.035 lam=     0.8     freq=  1380. Q=  0.020 lam=     0.3
  95     freq=  1378. Q=  0.030 lam=     0.6     freq=  1383. Q=  0.024 lam=     0.4
  96     freq=  1382. Q=  0.010 lam=     0.1     freq=  1390. Q=  0.057 lam=     2.2
  97     freq=  1386. Q= -0.061 lam=     2.6     freq=  1393. Q= -0.058 lam=     2.3
  98     freq=  1389. Q= -0.019 lam=     0.3     freq=  1430. Q= -0.162 lam=    18.8
  99     freq=  1420. Q= -0.153 lam=    16.6     freq=  1478. Q= -0.242 lam=    43.3
 100     freq=  1462. Q= -0.057 lam=     2.4     freq=  1486. Q= -0.017 lam=     0.2
 101     freq=  1484. Q= -0.049 lam=     1.8     freq=  1488. Q= -0.056 lam=     2.4
 102     freq=  1487. Q=  0.018 lam=     0.3     freq=  1489. Q=  0.022 lam=     0.4
 103     freq=  1488. Q=  0.031 lam=     0.7     freq=  1490. Q=  0.045 lam=     1.5
 104     freq=  1490. Q= -0.005 lam=     0.0     freq=  1495. Q= -0.022 lam=     0.3
 105     freq=  1491. Q=  0.026 lam=     0.5     freq=  1495. Q=  0.030 lam=     0.7
 106     freq=  1494. Q=  0.014 lam=     0.2     freq=  1503. Q=  0.044 lam=     1.4
 107     freq=  1495. Q=  0.049 lam=     1.8     freq=  1504. Q=  0.047 lam=     1.7
 108     freq=  1504. Q=  0.027 lam=     0.6     freq=  1509. Q=  0.174 lam=    22.8
 109     freq=  1505. Q=  0.018 lam=     0.2     freq=  1605. Q=  0.679 lam=   369.9
 110     freq=  1554. Q= -0.687 lam=   367.3     freq=  1616. Q= -0.610 lam=   301.0
 111     freq=  3005. Q=  0.007 lam=     0.1     freq=  3018. Q=  0.009 lam=     0.1
 112     freq=  3005. Q=  0.013 lam=     0.2     freq=  3020. Q=  0.011 lam=     0.2
 113     freq=  3018. Q=  0.003 lam=     0.0     freq=  3026. Q=  0.000 lam=     0.0
 114     freq=  3019. Q=  0.005 lam=     0.0     freq=  3027. Q=  0.001 lam=     0.0
 115     freq=  3021. Q=  0.001 lam=     0.0     freq=  3033. Q=  0.001 lam=     0.0
 116     freq=  3024. Q= -0.002 lam=     0.0     freq=  3033. Q= -0.007 lam=     0.1
 117     freq=  3024. Q= -0.001 lam=     0.0     freq=  3044. Q= -0.008 lam=     0.1
 118     freq=  3035. Q= -0.030 lam=     1.3     freq=  3048. Q= -0.031 lam=     1.4
 119     freq=  3060. Q=  0.002 lam=     0.0     freq=  3049. Q=  0.024 lam=     0.9
 120     freq=  3060. Q=  0.022 lam=     0.7     freq=  3056. Q=  0.005 lam=     0.0
 121     freq=  3064. Q=  0.008 lam=     0.1     freq=  3069. Q=  0.035 lam=     1.8
 122     freq=  3064. Q=  0.019 lam=     0.5     freq=  3074. Q=  0.003 lam=     0.0
 123     freq=  3068. Q=  0.003 lam=     0.0     freq=  3080. Q=  0.004 lam=     0.0
 124     freq=  3068. Q= -0.005 lam=     0.0     freq=  3080. Q= -0.006 lam=     0.1
 125     freq=  3072. Q= -0.003 lam=     0.0     freq=  3082. Q= -0.005 lam=     0.0
 126     freq=  3072. Q=  0.009 lam=     0.1     freq=  3083. Q=  0.014 lam=     0.3
 127     freq=  3101. Q=  0.020 lam=     0.6     freq=  3086. Q=  0.016 lam=     0.4
 128     freq=  3103. Q=  0.032 lam=     1.6     freq=  3088. Q=  0.005 lam=     0.0
 129     freq=  3111. Q=  0.000 lam=     0.0     freq=  3096. Q=  0.018 lam=     0.5
 130     freq=  3111. Q= -0.016 lam=     0.4     freq=  3098. Q= -0.018 lam=     0.5
 131     freq=  3129. Q= -0.021 lam=     0.7     freq=  3185. Q= -0.038 lam=     2.4
 132     freq=  3131. Q= -0.050 lam=     3.9     freq=  3192. Q= -0.040 lam=     2.6
 133     freq=  3170. Q= -0.023 lam=     0.8     freq=  3202. Q= -0.014 lam=     0.3
 134     freq=  3191. Q=  0.011 lam=     0.2     freq=  3212. Q=  0.012 lam=     0.2
 135     freq=  3200. Q=  0.021 lam=     0.7     freq=  3213. Q=  0.026 lam=     1.1

 total reorg energy (cm**-1, kcal/mol)=     4454.     2063.     12.74      5.90
 Nber of molecules processed=           2
