 Enter ifcurve (0=recti, 1=orth curvi, 2=apprx curvi, -1 = skip
 And atom ordering flag, 0= never changes, 1= use the first order thenceforth,
  2= deduce it (does read on fail), 3= always read it
 Reading file: 
 ./phenothiazine-pyrene_0_C0S0.log                                              
                                          
  Entering Gaussian System, Link 0=g16                                          
  
 Gaussian format, type: g94, g98, g03= F F F
  #P Geom=AllCheck Guess=TCheck SCRF=Check Test GenChk RB3LYP/6-311G(d,p    
 energy type= B3LYP   
 Original G94 input coords:
  6 -4.142573  3.324773 -1.605477
  6 -2.791289  3.396844 -1.287883
  6 -2.112682  2.276101 -0.815440
  6 -2.765130  1.043293 -0.675750
  6 -4.122897  0.973277 -1.036580
  6 -4.805457  2.108151 -1.466869
 16 -4.949376 -0.603616 -1.074410
  6 -4.126370 -1.379128  0.301232
  6 -4.811898 -2.327805  1.055579
  6 -4.151782 -3.070343  2.031134
  6 -2.800340 -2.836966  2.257282
  6 -2.118767 -1.859204  1.536703
  6 -2.768334 -1.107706  0.547596
  7 -2.088808 -0.109849 -0.198796
  6 -0.649907 -0.082229 -0.145985
  6  0.063136 -0.676123 -1.182834
  6  1.464836 -0.677681 -1.181396
  6  2.231760 -1.281205 -2.235199
  6  3.590045 -1.270419 -2.213159
  6  4.316775 -0.656290 -1.137282
  6  5.718021 -0.632483 -1.092781
  6  6.385639 -0.027345 -0.032795
  6  5.675568  0.567286  1.005790
  6  4.273791  0.569066  1.006059
  6  3.503857  1.171622  2.058639
  6  2.145775  1.161507  2.038037
  6  1.421157  0.546527  0.960258
  6  0.020910  0.523691  0.916683
  6  2.157872 -0.060241 -0.099529
  6  3.581924 -0.049129 -0.076791
  1 -4.676925  4.197975 -1.959975
  1 -2.252912  4.331491 -1.395546
  1 -1.064072  2.358087 -0.567181
  1 -5.857560  2.024692 -1.714355
  1 -5.864115 -2.495542  0.856016
  1 -4.688424 -3.820296  2.599696
  1 -2.264186 -3.408405  3.006288
  1 -1.070067 -1.689893  1.735505
  1 -0.482231 -1.140283 -1.996396
  1  1.699564 -1.749682 -3.056037
  1  4.153713 -1.731081 -3.017591
  1  6.280644 -1.093326 -1.897617
  1  7.469617 -0.018848 -0.015756
  1  6.205472  1.036659  1.827740
  1  4.034774  1.640696  2.880339
  1  1.581327  1.621773  2.842015
  1 -0.550077  0.981606  1.716818
 nber atoms=          47
  SCF Done:  E(RB3LYP) =  -1530.48494329     A.U. after    1 cycles             
  
          23          40 "  -1530.48494329"
After scan for Atom:   Atom  AN      X      Y      Z        X      Y      Z        X      Y      Z   
After scan for Atom:   Atom  AN      X      Y      Z        X      Y      Z        X      Y      Z   
After scan for Atom:   Atom  AN      X      Y      Z        X      Y      Z        X      Y      Z   
After scan for Atom:   Atom  AN      X      Y      Z        X      Y      Z        X      Y      Z   
After scan for Atom:   Atom  AN      X      Y      Z        X      Y      Z        X      Y      Z   
After scan for Atom:   Atom  AN      X      Y      Z        X      Y      Z        X      Y      Z   
After scan for Atom:   Atom  AN      X      Y      Z        X      Y      Z        X      Y      Z   
After scan for Atom:   Atom  AN      X      Y      Z        X      Y      Z        X      Y      Z   
After scan for Atom:   Atom  AN      X      Y      Z        X      Y      Z        X      Y      Z   
After scan for Atom:   Atom  AN      X      Y      Z        X      Y      Z        X      Y      Z   
After scan for Atom:   Atom  AN      X      Y      Z        X      Y      Z        X      Y      Z   
After scan for Atom:   Atom  AN      X      Y      Z        X      Y      Z        X      Y      Z   
After scan for Atom:   Atom  AN      X      Y      Z        X      Y      Z        X      Y      Z   
After scan for Atom:   Atom  AN      X      Y      Z        X      Y      Z        X      Y      Z   
After scan for Atom:   Atom  AN      X      Y      Z        X      Y      Z        X      Y      Z   
After scan for Atom:   Atom  AN      X      Y      Z        X      Y      Z        X      Y      Z   
After scan for Atom:   Atom  AN      X      Y      Z        X      Y      Z        X      Y      Z   
After scan for Atom:   Atom  AN      X      Y      Z        X      Y      Z        X      Y      Z   
After scan for Atom:   Atom  AN      X      Y      Z        X      Y      Z        X      Y      Z   
After scan for Atom:   Atom  AN      X      Y      Z        X      Y      Z        X      Y      Z   
After scan for Atom:   Atom  AN      X      Y      Z        X      Y      Z        X      Y      Z   
After scan for Atom:   Atom  AN      X      Y      Z        X      Y      Z        X      Y      Z   
After scan for Atom:   Atom  AN      X      Y      Z        X      Y      Z        X      Y      Z   
After scan for Atom:   Atom  AN      X      Y      Z        X      Y      Z        X      Y      Z   
After scan for Atom:   Atom  AN      X      Y      Z        X      Y      Z        X      Y      Z   
After scan for Atom:   Atom  AN      X      Y      Z        X      Y      Z        X      Y      Z   
After scan for Atom:   Atom  AN      X      Y      Z        X      Y      Z        X      Y      Z   
After scan for Atom:   Atom  AN      X      Y      Z        X      Y      Z        X      Y      Z   
After scan for Atom:   Atom  AN      X      Y      Z        X      Y      Z        X      Y      Z   
After scan for Atom:   Atom  AN      X      Y      Z        X      Y      Z        X      Y      Z   
After scan for Atom:   Atom  AN      X      Y      Z        X      Y      Z        X      Y      Z   
After scan for Atom:   Atom  AN      X      Y      Z        X      Y      Z        X      Y      Z   
After scan for Atom:   Atom  AN      X      Y      Z        X      Y      Z        X      Y      Z   
After scan for Atom:   Atom  AN      X      Y      Z        X      Y      Z        X      Y      Z   
After scan for Atom:   Atom  AN      X      Y      Z        X      Y      Z        X      Y      Z   
After scan for Atom:   Atom  AN      X      Y      Z        X      Y      Z        X      Y      Z   
After scan for Atom:   Atom  AN      X      Y      Z        X      Y      Z        X      Y      Z   
After scan for Atom:   Atom  AN      X      Y      Z        X      Y      Z        X      Y      Z   
After scan for Atom:   Atom  AN      X      Y      Z        X      Y      Z        X      Y      Z   
After scan for Atom:   Atom  AN      X      Y      Z        X      Y      Z        X      Y      Z   
After scan for Atom:   Atom  AN      X      Y      Z        X      Y      Z        X      Y      Z   
After scan for Atom:   Atom  AN      X      Y      Z        X      Y      Z        X      Y      Z   
After scan for Atom:   Atom  AN      X      Y      Z        X      Y      Z        X      Y      Z   
After scan for Atom:   Atom  AN      X      Y      Z        X      Y      Z        X      Y      Z   
After scan for Atom:   Atom  AN      X      Y      Z        X      Y      Z        X      Y      Z   
 g94    frequencies=
     0.0    0.0    0.0    0.0    0.0    0.0   21.2   28.2   31.5   53.9
    91.3  112.0  138.6  155.5  158.8  205.2  207.2  225.3  236.8  257.8
   299.7  329.9  355.0  358.0  407.0  409.4  429.5  435.6  436.2  451.4
   465.3  477.9  509.3  514.3  514.5  534.7  538.4  542.4  545.9  554.3
   583.2  600.7  609.5  667.3  667.4  688.5  701.1  711.2  726.4  731.7
   741.6  758.2  759.5  760.4  771.0  777.0  817.2  827.6  828.3  843.8
   851.7  863.2  865.2  894.6  907.3  920.8  941.3  941.3  949.9  977.9
   978.0  979.8  984.2  992.3  997.5 1015.5 1021.4 1061.2 1065.4 1079.6
  1092.4 1104.5 1134.0 1147.4 1151.9 1164.4 1172.3 1181.5 1186.0 1189.4
  1203.6 1221.3 1252.2 1258.7 1261.8 1266.3 1293.8 1315.1 1325.6 1328.8
  1338.0 1340.3 1351.5 1397.6 1404.7 1431.8 1449.0 1465.4 1466.8 1475.5
  1486.2 1493.1 1493.9 1519.4 1528.7 1599.7 1603.6 1614.6 1619.3 1621.7
  1632.9 1641.4 1643.5 1670.6 3158.7 3159.8 3161.4 3167.6 3167.8 3168.9
  3175.9 3176.2 3176.3 3178.3 3178.5 3185.1 3185.4 3191.7 3191.8 3212.2
  3212.6
 g94    symmetries=
                                                 A      A      A      A
       A      A      A      A      A      A      A      A      A      A
       A      A      A      A      A      A      A      A      A      A
       A      A      A      A      A      A      A      A      A      A
       A      A      A      A      A      A      A      A      A      A
       A      A      A      A      A      A      A      A      A      A
       A      A      A      A      A      A      A      A      A      A
       A      A      A      A      A      A      A      A      A      A
       A      A      A      A      A      A      A      A      A      A
       A      A      A      A      A      A      A      A      A      A
       A      A      A      A      A      A      A      A      A      A
       A      A      A      A      A      A      A      A      A      A
       A      A      A      A      A      A      A      A      A      A
       A      A      A      A      A      A      A      A      A      A
       A
 atomic masses:
 12.0000 12.0000 12.0000 12.0000 12.0000 12.0000 31.9721 12.0000 12.0000 12.0000
 12.0000 12.0000 12.0000 14.0031 12.0000 12.0000 12.0000 12.0000 12.0000 12.0000
 12.0000 12.0000 12.0000 12.0000 12.0000 12.0000 12.0000 12.0000 12.0000 12.0000
  1.0078  1.0078  1.0078  1.0078  1.0078  1.0078  1.0078  1.0078  1.0078  1.0078
  1.0078  1.0078  1.0078  1.0078  1.0078  1.0078  1.0078
 looking for force constants in 
 ./phenothiazine-pyrene_0_C0S0.fchk                                             
  
 Cartesian Force Constants                  R   N=       10011                  
  
 n3=         141       10011
 g94-fc frequencies=
    -0.0   -0.0    0.0    1.4    2.3    5.2   21.2   28.2   31.5   53.9
    91.3  112.0  138.6  155.5  158.9  205.2  207.2  225.3  236.8  257.8
   299.7  329.9  355.0  358.0  407.0  409.4  429.5  435.6  436.2  451.4
   465.3  477.9  509.3  514.3  514.5  534.8  538.4  542.4  545.9  554.3
   583.2  600.8  609.5  667.3  667.5  688.5  701.1  711.2  726.4  731.8
   741.6  758.2  759.5  760.4  771.0  777.0  817.2  827.6  828.4  843.8
   851.7  863.2  865.2  894.6  907.3  920.8  941.3  941.4  949.9  977.9
   978.0  979.8  984.3  992.3  997.5 1015.5 1021.4 1061.2 1065.5 1079.6
  1092.4 1104.5 1134.0 1147.4 1151.9 1164.4 1172.3 1181.6 1186.0 1189.4
  1203.7 1221.4 1252.2 1258.7 1261.9 1266.4 1293.9 1315.1 1325.7 1328.9
  1338.0 1340.4 1351.5 1397.6 1404.7 1431.8 1449.0 1465.5 1466.8 1475.6
  1486.3 1493.1 1494.0 1519.5 1528.7 1599.8 1603.6 1614.6 1619.4 1621.7
  1632.9 1641.4 1643.5 1670.6 3158.8 3159.9 3161.5 3167.7 3167.8 3169.0
  3175.9 3176.3 3176.4 3178.3 3178.5 3185.1 3185.4 3191.7 3191.9 3212.3
  3212.7
 at 99999: n3=         141
 symm operator            1 :  F  nop=           0
 symm operator            2 :  F  nop=           0
 symm operator            3 :  F  nop=           0
 symm operator            4 :  F  nop=           0
 symm operator            5 :  F  nop=           0
 symm operator            6 :  F  nop=           0
 symm operator            7 :  F  nop=           0
 The point group of the molecule is  C1
 Symmetry rotation matrix:
   1.00000   0.00000   0.00000
   0.00000   1.00000   0.00000
   0.00000   0.00000   1.00000

 Projecting out zero-frequency components
 generating redundant internal coords
         300        3600          47
 search for int coords
   1 str   2   1   1.390
   2 str   3   2   1.393
   3 str   4   3   1.402
   4 str   5   4   1.407
   5 str   6   1   1.392
   6 str   6   5   1.392
   7 str   7   5   1.781
   8 str   8   7   1.781
   9 str   9   8   1.392
  10 str  10   9   1.392
  11 str  11  10   1.390
  12 str  12  11   1.393
  13 str  13   8   1.407
  14 str  13  12   1.402
  15 str  14   4   1.419
  16 str  14  13   1.419
  17 str  15  14   1.440
  18 str  16  15   1.391
  19 str  17  16   1.402
  20 str  18  17   1.436
  21 str  19  18   1.359
  22 str  20  19   1.436
  23 str  21  20   1.402
  24 str  22  21   1.391
  25 str  23  22   1.392
  26 str  24  23   1.402
  27 str  25  24   1.437
  28 str  26  25   1.358
  29 str  27  26   1.437
  30 str  28  15   1.395
  31 str  28  27   1.401
  32 str  29  17   1.425
  33 str  29  27   1.426
  34 str  30  20   1.426
  35 str  30  24   1.426
  36 str  30  29   1.424
  37 str  31   1   1.083
  38 str  32   2   1.084
  39 str  33   3   1.081
  40 str  34   6   1.084
  41 str  35   9   1.084
  42 str  36  10   1.083
  43 str  37  11   1.084
  44 str  38  12   1.081
  45 str  39  16   1.084
  46 str  40  18   1.085
  47 str  41  19   1.085
  48 str  42  21   1.085
  49 str  43  22   1.084
  50 str  44  23   1.085
  51 str  45  25   1.085
  52 str  46  26   1.085
  53 str  47  28   1.084
 nber stretches=          53
  54 ben   1   2   3
  55 prop tor   1   2   3   4
  56 prop tor   1   2   3  33
  57 ben   1   2  32
  58 ben   1   6   5
  59 ben   1   6  34
  60 ben   2   1   6
  61 prop tor   2   1   6   5
  62 prop tor   2   1   6  34
  63 ben   2   1  31
  64 ben   2   3   4
  65 prop tor   2   3   4   5
  66 prop tor   2   3   4  14
  67 ben   2   3  33
  68 ben   3   2  32
  69 ben   3   4   5
  70 prop tor   3   4   5   6
  71 prop tor   3   4   5   7
  72 ben   3   4  14
  73 prop tor   3   4  14  13
  74 prop tor   3   4  14  15
  75 ben   4   3  33
  76 ben   4   5   6
  77 prop tor   4   5   6   1
  78 prop tor   4   5   6  34
  79 ben   4   5   7
  80 prop tor   4   5   7   8
  81 ben   4  14  13
  82 ben   4  14  15
  83 prop tor   4  14  15  16
  84 prop tor   4  14  15  28
  85 ben   5   4  14
  86 prop tor   5   4  14  13
  87 prop tor   5   4  14  15
  88 ben   5   6  34
  89 ben   5   7   8
  90 prop tor   5   7   8   9
  91 prop tor   5   7   8  13
  92 prop tor   6   1   2   3
  93 prop tor   6   1   2  32
  94 ben   6   1  31
  95 ben   6   5   7
  96 prop tor   6   5   7   8
  97 prop tor   7   5   6   1
  98 prop tor   7   5   6  34
  99 ben   7   8   9
 100 prop tor   7   8   9  10
 101 prop tor   7   8   9  35
 102 ben   7   8  13
 103 prop tor   7   8  13  12
 104 prop tor   7   8  13  14
 105 ben   8   9  10
 106 prop tor   8   9  10  11
 107 prop tor   8   9  10  36
 108 ben   8   9  35
 109 ben   8  13  12
 110 ben   8  13  14
 111 prop tor   8  13  14   4
 112 prop tor   8  13  14  15
 113 ben   9   8  13
 114 prop tor   9   8  13  12
 115 prop tor   9   8  13  14
 116 ben   9  10  11
 117 prop tor   9  10  11  12
 118 prop tor   9  10  11  37
 119 ben   9  10  36
 120 ben  10   9  35
 121 ben  10  11  12
 122 prop tor  10  11  12  13
 123 prop tor  10  11  12  38
 124 ben  10  11  37
 125 ben  11  10  36
 126 ben  11  12  13
 127 prop tor  11  12  13   8
 128 prop tor  11  12  13  14
 129 ben  11  12  38
 130 ben  12  11  37
 131 ben  12  13  14
 132 prop tor  12  13  14   4
 133 prop tor  12  13  14  15
 134 prop tor  13   8   9  10
 135 prop tor  13   8   9  35
 136 ben  13  12  38
 137 ben  13  14  15
 138 prop tor  13  14  15  16
 139 prop tor  13  14  15  28
 140 prop tor  14   4   5   6
 141 prop tor  14   4   5   7
 142 ben  14  15  16
 143 prop tor  14  15  16  17
 144 prop tor  14  15  16  39
 145 ben  14  15  28
 146 prop tor  14  15  28  27
 147 prop tor  14  15  28  47
 148 ben  15  16  17
 149 prop tor  15  16  17  18
 150 prop tor  15  16  17  29
 151 ben  15  16  39
 152 ben  15  28  27
 153 ben  15  28  47
 154 ben  16  15  28
 155 prop tor  16  15  28  27
 156 prop tor  16  15  28  47
 157 ben  16  17  18
 158 prop tor  16  17  18  19
 159 prop tor  16  17  18  40
 160 ben  16  17  29
 161 prop tor  16  17  29  27
 162 prop tor  16  17  29  30
 163 ben  17  16  39
 164 ben  17  18  19
 165 prop tor  17  18  19  20
 166 prop tor  17  18  19  41
 167 ben  17  18  40
 168 ben  17  29  27
 169 ben  17  29  30
 170 prop tor  17  29  30  20
 171 prop tor  17  29  30  24
 172 ben  18  17  29
 173 prop tor  18  17  29  27
 174 prop tor  18  17  29  30
 175 ben  18  19  20
 176 prop tor  18  19  20  21
 177 prop tor  18  19  20  30
 178 ben  18  19  41
 179 ben  19  18  40
 180 ben  19  20  21
 181 prop tor  19  20  21  22
 182 prop tor  19  20  21  42
 183 ben  19  20  30
 184 prop tor  19  20  30  24
 185 prop tor  19  20  30  29
 186 ben  20  19  41
 187 ben  20  21  22
 188 prop tor  20  21  22  23
 189 prop tor  20  21  22  43
 190 ben  20  21  42
 191 ben  20  30  24
 192 ben  20  30  29
 193 ben  21  20  30
 194 prop tor  21  20  30  24
 195 prop tor  21  20  30  29
 196 ben  21  22  23
 197 prop tor  21  22  23  24
 198 prop tor  21  22  23  44
 199 ben  21  22  43
 200 ben  22  21  42
 201 ben  22  23  24
 202 prop tor  22  23  24  25
 203 prop tor  22  23  24  30
 204 ben  22  23  44
 205 ben  23  22  43
 206 ben  23  24  25
 207 prop tor  23  24  25  26
 208 prop tor  23  24  25  45
 209 ben  23  24  30
 210 prop tor  23  24  30  20
 211 prop tor  23  24  30  29
 212 ben  24  23  44
 213 ben  24  25  26
 214 prop tor  24  25  26  27
 215 prop tor  24  25  26  46
 216 ben  24  25  45
 217 ben  24  30  29
 218 ben  25  24  30
 219 prop tor  25  24  30  20
 220 prop tor  25  24  30  29
 221 ben  25  26  27
 222 prop tor  25  26  27  28
 223 prop tor  25  26  27  29
 224 ben  25  26  46
 225 ben  26  25  45
 226 ben  26  27  28
 227 prop tor  26  27  28  15
 228 prop tor  26  27  28  47
 229 ben  26  27  29
 230 prop tor  26  27  29  17
 231 prop tor  26  27  29  30
 232 ben  27  26  46
 233 ben  27  28  47
 234 ben  27  29  30
 235 prop tor  27  29  30  20
 236 prop tor  27  29  30  24
 237 prop tor  28  15  16  17
 238 prop tor  28  15  16  39
 239 ben  28  27  29
 240 prop tor  28  27  29  17
 241 prop tor  28  27  29  30
 242 prop tor  29  17  18  19
 243 prop tor  29  17  18  40
 244 prop tor  29  27  28  15
 245 prop tor  29  27  28  47
 246 prop tor  30  20  21  22
 247 prop tor  30  20  21  42
 248 prop tor  30  24  25  26
 249 prop tor  30  24  25  45
 250 prop tor  31   1   2   3
 251 prop tor  31   1   2  32
 252 prop tor  31   1   6   5
 253 prop tor  31   1   6  34
 254 prop tor  32   2   3   4
 255 prop tor  32   2   3  33
 256 prop tor  33   3   4   5
 257 prop tor  33   3   4  14
 258 prop tor  35   9  10  11
 259 prop tor  35   9  10  36
 260 prop tor  36  10  11  12
 261 prop tor  36  10  11  37
 262 prop tor  37  11  12  13
 263 prop tor  37  11  12  38
 264 prop tor  38  12  13   8
 265 prop tor  38  12  13  14
 266 prop tor  39  16  17  18
 267 prop tor  39  16  17  29
 268 prop tor  40  18  19  20
 269 prop tor  40  18  19  41
 270 prop tor  41  19  20  21
 271 prop tor  41  19  20  30
 272 prop tor  42  21  22  23
 273 prop tor  42  21  22  43
 274 prop tor  43  22  23  24
 275 prop tor  43  22  23  44
 276 prop tor  44  23  24  25
 277 prop tor  44  23  24  30
 278 prop tor  45  25  26  27
 279 prop tor  45  25  26  46
 280 prop tor  46  26  27  28
 281 prop tor  46  26  27  29
 nber bend=              88
 nber lin bend=           0
 nber prop tor=         140
 nber impr tor=           0
 nber tot redund int=         281
 Eigenvalues of G in red int coords
    Gval -0.00000000 -0.00000000 -0.00000000 -0.00000000 -0.00000000 -0.00000000 -0.00000000 -0.00000000
    Gval -0.00000000 -0.00000000 -0.00000000 -0.00000000 -0.00000000 -0.00000000 -0.00000000 -0.00000000
    Gval -0.00000000 -0.00000000 -0.00000000 -0.00000000 -0.00000000 -0.00000000 -0.00000000 -0.00000000
    Gval -0.00000000 -0.00000000 -0.00000000 -0.00000000 -0.00000000 -0.00000000 -0.00000000 -0.00000000
    Gval -0.00000000 -0.00000000 -0.00000000 -0.00000000 -0.00000000 -0.00000000 -0.00000000 -0.00000000
    Gval -0.00000000 -0.00000000 -0.00000000 -0.00000000 -0.00000000 -0.00000000 -0.00000000 -0.00000000
    Gval -0.00000000 -0.00000000 -0.00000000 -0.00000000 -0.00000000 -0.00000000 -0.00000000 -0.00000000
    Gval -0.00000000 -0.00000000 -0.00000000 -0.00000000 -0.00000000 -0.00000000 -0.00000000 -0.00000000
    Gval -0.00000000 -0.00000000 -0.00000000 -0.00000000 -0.00000000 -0.00000000 -0.00000000 -0.00000000
    Gval -0.00000000 -0.00000000 -0.00000000  0.00000000  0.00000000  0.00000000  0.00000000  0.00000000
    Gval  0.00000000  0.00000000  0.00000000  0.00000000  0.00000000  0.00000000  0.00000000  0.00000000
    Gval  0.00000000  0.00000000  0.00000000  0.00000000  0.00000000  0.00000000  0.00000000  0.00000000
    Gval  0.00000000  0.00000000  0.00000000  0.00000000  0.00000000  0.00000000  0.00000000  0.00000000
    Gval  0.00000000  0.00000000  0.00000000  0.00000000  0.00000000  0.00000000  0.00000000  0.00000000
    Gval  0.00000000  0.00000000  0.00000000  0.00000000  0.00000000  0.00000000  0.00000000  0.00000000
    Gval  0.00000000  0.00000000  0.00000000  0.00000000  0.00000000  0.00000000  0.00000000  0.00000000
    Gval  0.00000000  0.00000000  0.00000000  0.00000000  0.00000000  0.00000000  0.00000000  0.00000000
    Gval  0.00000000  0.00000000  0.00000000  0.00000000  0.00000000  0.00000000  0.00000000  0.00000000
    Gval  0.00000000  0.00000000  0.00000093  0.00000155  0.00000204  0.00000443  0.00000842  0.00000912
    Gval  0.00001065  0.00001254  0.00001661  0.00002090  0.00002216  0.00002305  0.00002449  0.00002839
    Gval  0.00003072  0.00003599  0.00004248  0.00004686  0.00005157  0.00005546  0.00005628  0.00005835
    Gval  0.00006249  0.00006765  0.00006836  0.00007107  0.00007427  0.00007655  0.00007669  0.00008158
    Gval  0.00008322  0.00008566  0.00010337  0.00010602  0.00011267  0.00011635  0.00011991  0.00012235
    Gval  0.00012939  0.00013957  0.00014111  0.00014457  0.00015714  0.00016405  0.00017392  0.00018395
    Gval  0.00018952  0.00019369  0.00020324  0.00023931  0.00025159  0.00025955  0.00026207  0.00026849
    Gval  0.00027307  0.00031814  0.00032377  0.00034062  0.00034476  0.00037270  0.00037849  0.00039316
    Gval  0.00040222  0.00040407  0.00041959  0.00043492  0.00044622  0.00046153  0.00048740  0.00056554
    Gval  0.00059322  0.00059327  0.00059387  0.00059691  0.00059718  0.00059732  0.00059763  0.00059862
    Gval  0.00060805  0.00061802  0.00062026  0.00062389  0.00062835  0.00064332  0.00064505  0.00065519
    Gval  0.00065636  0.00065849  0.00069300  0.00075780  0.00078521  0.00081456  0.00092327  0.00097713
    Gval  0.00105516  0.00105526  0.00106502  0.00108494  0.00108529  0.00110753  0.00112283  0.00112289
    Gval  0.00113842  0.00113952  0.00115443  0.00116057  0.00116167  0.00116230  0.00116368  0.00116793
    Gval  0.00117406  0.00117412  0.00132220  0.00145622  0.00170327  0.00172878  0.00175146  0.00181160
    Gval  0.00193004  0.00206549  0.00229588  0.00237984  0.00257834  0.00266277  0.00270604  0.00307253
    Gval  0.00310494  0.00316237  0.00349442  0.00350552  0.00368608  0.00372457  0.00392402  0.00403258
    Gval  0.00403362
  9.259966511050919E-007  9.259966511050919E-007
  1.551041806415116E-006  9.259966511050919E-007
  2.044551941211391E-006  9.259966511050919E-007
  4.432664929215297E-006  9.259966511050919E-007
  8.419829086850992E-006  9.259966511050919E-007
  9.117910901650130E-006  9.259966511050919E-007
  1.065244022986580E-005  9.259966511050919E-007
  1.253709881111670E-005  9.259966511050919E-007
  1.661376055744667E-005  9.259966511050919E-007
  2.089681952793576E-005  9.259966511050919E-007
  2.215703749332859E-005  9.259966511050919E-007
  2.305389992058529E-005  9.259966511050919E-007
  2.449003092147103E-005  9.259966511050919E-007
  2.839262504529856E-005  9.259966511050919E-007
  3.071739981976520E-005  9.259966511050919E-007
  3.598564525723657E-005  9.259966511050919E-007
  4.248057879668706E-005  9.259966511050919E-007
  4.686060120257285E-005  9.259966511050919E-007
  5.157047366661876E-005  9.259966511050919E-007
  5.546471591591701E-005  9.259966511050919E-007
  5.628273078832380E-005  9.259966511050919E-007
  5.834894483227027E-005  9.259966511050919E-007
  6.249304938113342E-005  9.259966511050919E-007
  6.764722602051360E-005  9.259966511050919E-007
  6.836162232531811E-005  9.259966511050919E-007
  7.107379547762717E-005  9.259966511050919E-007
  7.427460296364672E-005  9.259966511050919E-007
  7.655217493507865E-005  9.259966511050919E-007
  7.669343359352940E-005  9.259966511050919E-007
  8.158086503591906E-005  9.259966511050919E-007
  8.321534357521827E-005  9.259966511050919E-007
  8.566019118986706E-005  9.259966511050919E-007
  1.033705139399153E-004  9.259966511050919E-007
  1.060193739801329E-004  9.259966511050919E-007
  1.126656897867915E-004  9.259966511050919E-007
  1.163483823493368E-004  9.259966511050919E-007
  1.199120074660473E-004  9.259966511050919E-007
  1.223498357519876E-004  9.259966511050919E-007
  1.293903947378704E-004  9.259966511050919E-007
  1.395747411495511E-004  9.259966511050919E-007
  1.411066577620652E-004  9.259966511050919E-007
  1.445723585387424E-004  9.259966511050919E-007
  1.571441230010362E-004  9.259966511050919E-007
  1.640536666474882E-004  9.259966511050919E-007
  1.739164724548684E-004  9.259966511050919E-007
  1.839465723690297E-004  9.259966511050919E-007
  1.895165206889117E-004  9.259966511050919E-007
  1.936916460491309E-004  9.259966511050919E-007
  2.032372878552909E-004  9.259966511050919E-007
  2.393083838015007E-004  9.259966511050919E-007
  2.515900517267257E-004  9.259966511050919E-007
  2.595454404728590E-004  9.259966511050919E-007
  2.620742243699898E-004  9.259966511050919E-007
  2.684878738342547E-004  9.259966511050919E-007
  2.730678785672036E-004  9.259966511050919E-007
  3.181356138686251E-004  9.259966511050919E-007
  3.237652716149362E-004  9.259966511050919E-007
  3.406173124482555E-004  9.259966511050919E-007
  3.447569943920989E-004  9.259966511050919E-007
  3.727006701975708E-004  9.259966511050919E-007
  3.784869544276426E-004  9.259966511050919E-007
  3.931584763158760E-004  9.259966511050919E-007
  4.022231454730437E-004  9.259966511050919E-007
  4.040664839358859E-004  9.259966511050919E-007
  4.195853328951928E-004  9.259966511050919E-007
  4.349169292626186E-004  9.259966511050919E-007
  4.462166544921142E-004  9.259966511050919E-007
  4.615300941990595E-004  9.259966511050919E-007
  4.874044795765143E-004  9.259966511050919E-007
  5.655414590861216E-004  9.259966511050919E-007
  5.932188860853710E-004  9.259966511050919E-007
  5.932744922693108E-004  9.259966511050919E-007
  5.938740428855843E-004  9.259966511050919E-007
  5.969073811333927E-004  9.259966511050919E-007
  5.971800907639311E-004  9.259966511050919E-007
  5.973249556018283E-004  9.259966511050919E-007
  5.976341165196365E-004  9.259966511050919E-007
  5.986178225996784E-004  9.259966511050919E-007
  6.080520482331498E-004  9.259966511050919E-007
  6.180247137385066E-004  9.259966511050919E-007
  6.202594630031936E-004  9.259966511050919E-007
  6.238852370947985E-004  9.259966511050919E-007
  6.283462916128692E-004  9.259966511050919E-007
  6.433236685104006E-004  9.259966511050919E-007
  6.450459658104647E-004  9.259966511050919E-007
  6.551949973148799E-004  9.259966511050919E-007
  6.563550999699792E-004  9.259966511050919E-007
  6.584926346726589E-004  9.259966511050919E-007
  6.930033048800706E-004  9.259966511050919E-007
  7.577994647560968E-004  9.259966511050919E-007
  7.852112011541391E-004  9.259966511050919E-007
  8.145569209144131E-004  9.259966511050919E-007
  9.232696737792174E-004  9.259966511050919E-007
  9.771340627546135E-004  9.259966511050919E-007
  1.055157842167608E-003  9.259966511050919E-007
  1.055263167742112E-003  9.259966511050919E-007
  1.065018651553208E-003  9.259966511050919E-007
  1.084937154984208E-003  9.259966511050919E-007
  1.085294551033405E-003  9.259966511050919E-007
  1.107532190465896E-003  9.259966511050919E-007
  1.122829195123435E-003  9.259966511050919E-007
  1.122892453562612E-003  9.259966511050919E-007
  1.138418604969007E-003  9.259966511050919E-007
  1.139521506901953E-003  9.259966511050919E-007
  1.154431594244846E-003  9.259966511050919E-007
  1.160573221802290E-003  9.259966511050919E-007
  1.161673904487475E-003  9.259966511050919E-007
  1.162303487548940E-003  9.259966511050919E-007
  1.163684609225708E-003  9.259966511050919E-007
  1.167927582888617E-003  9.259966511050919E-007
  1.174062221044731E-003  9.259966511050919E-007
  1.174117295444010E-003  9.259966511050919E-007
  1.322201893494690E-003  9.259966511050919E-007
  1.456221365915887E-003  9.259966511050919E-007
  1.703271496246518E-003  9.259966511050919E-007
  1.728781267705104E-003  9.259966511050919E-007
  1.751459599037878E-003  9.259966511050919E-007
  1.811600016298240E-003  9.259966511050919E-007
  1.930043141182352E-003  9.259966511050919E-007
  2.065489738418825E-003  9.259966511050919E-007
  2.295883878941775E-003  9.259966511050919E-007
  2.379842024214753E-003  9.259966511050919E-007
  2.578340927625781E-003  9.259966511050919E-007
  2.662770829337186E-003  9.259966511050919E-007
  2.706041036707556E-003  9.259966511050919E-007
  3.072528422187009E-003  9.259966511050919E-007
  3.104938564015790E-003  9.259966511050919E-007
  3.162366906260284E-003  9.259966511050919E-007
  3.494416888241524E-003  9.259966511050919E-007
  3.505523680374083E-003  9.259966511050919E-007
  3.686077118217913E-003  9.259966511050919E-007
  3.724567487006978E-003  9.259966511050919E-007
  3.924016395199978E-003  9.259966511050919E-007
  4.032576354133249E-003  9.259966511050919E-007
  4.033624968816145E-003  9.259966511050919E-007
 cut=1d-8, nber non-redundant internal coords=         135
 Check on Eigenvals of non-red overlap matrix:
  0.00000093  0.00000155  0.00000204  0.00000443  0.00000842  0.00000912  0.00001065  0.00001254
  0.00001661  0.00002090  0.00002216  0.00002305  0.00002449  0.00002839  0.00003072  0.00003599
  0.00004248  0.00004686  0.00005157  0.00005546  0.00005628  0.00005835  0.00006249  0.00006765
  0.00006836  0.00007107  0.00007427  0.00007655  0.00007669  0.00008158  0.00008322  0.00008566
  0.00010337  0.00010602  0.00011267  0.00011635  0.00011991  0.00012235  0.00012939  0.00013957
  0.00014111  0.00014457  0.00015714  0.00016405  0.00017392  0.00018395  0.00018952  0.00019369
  0.00020324  0.00023931  0.00025159  0.00025955  0.00026207  0.00026849  0.00027307  0.00031814
  0.00032377  0.00034062  0.00034476  0.00037270  0.00037849  0.00039316  0.00040222  0.00040407
  0.00041959  0.00043492  0.00044622  0.00046153  0.00048740  0.00056554  0.00059322  0.00059327
  0.00059387  0.00059691  0.00059718  0.00059732  0.00059763  0.00059862  0.00060805  0.00061802
  0.00062026  0.00062389  0.00062835  0.00064332  0.00064505  0.00065519  0.00065636  0.00065849
  0.00069300  0.00075780  0.00078521  0.00081456  0.00092327  0.00097713  0.00105516  0.00105526
  0.00106502  0.00108494  0.00108529  0.00110753  0.00112283  0.00112289  0.00113842  0.00113952
  0.00115443  0.00116057  0.00116167  0.00116230  0.00116368  0.00116793  0.00117406  0.00117412
  0.00132220  0.00145622  0.00170327  0.00172878  0.00175146  0.00181160  0.00193004  0.00206549
  0.00229588  0.00237984  0.00257834  0.00266277  0.00270604  0.00307253  0.00310494  0.00316237
  0.00349442  0.00350552  0.00368608  0.00372457  0.00392402  0.00403258  0.00403362
 Checking for correct frequencies
 recalc frequencies=
    -0.0   -0.0   -0.0   -0.0    0.0    0.0   21.2   28.2   31.5   53.9
    91.3  112.0  138.6  155.5  158.9  205.2  207.2  225.3  236.8  257.8
   299.7  329.9  355.0  358.0  407.0  409.4  429.5  435.6  436.2  451.4
   465.3  477.9  509.3  514.3  514.5  534.8  538.4  542.4  545.9  554.3
   583.2  600.8  609.5  667.3  667.5  688.5  701.1  711.2  726.4  731.8
   741.6  758.2  759.5  760.4  771.0  777.0  817.2  827.6  828.4  843.8
   851.7  863.2  865.2  894.6  907.3  920.8  941.3  941.4  949.9  977.9
   978.0  979.8  984.3  992.3  997.5 1015.5 1021.4 1061.2 1065.5 1079.6
  1092.4 1104.5 1134.0 1147.4 1151.9 1164.4 1172.3 1181.6 1186.0 1189.4
  1203.7 1221.4 1252.2 1258.7 1261.9 1266.4 1293.9 1315.1 1325.7 1328.9
  1338.0 1340.4 1351.5 1397.6 1404.7 1431.8 1449.0 1465.5 1466.8 1475.6
  1486.3 1493.1 1494.0 1519.5 1528.7 1599.8 1603.6 1614.6 1619.4 1621.7
  1632.9 1641.4 1643.5 1670.6 3158.8 3159.9 3161.5 3167.7 3167.8 3169.0
  3175.9 3176.3 3176.4 3178.3 3178.5 3185.1 3185.4 3191.7 3191.9 3212.3
  3212.7
 recalc symmetries=
                                                                       
                                                                       
                                                                       
                                                                       
                                                                       
                                                                       
                                                                       
                                                                       
                                                                       
                                                                       
                                                                       
                                                                       
                                                                       
                                                                       
        
 recalc freqs check OK
 Zero-point lengths:
 10.0000 10.0000 10.0000 10.0000 10.0000 10.0000 53.7997 46.6811 44.1567 33.7650
 25.9425 23.4284 21.0583 19.8814 19.6698 17.3075 17.2210 16.5174 16.1090 15.4410
 14.3213 13.6494 13.1574 13.1028 12.2884 12.2525 11.9618 11.8786 11.8703 11.6683
 11.4923 11.3401 10.9856 10.9318 10.9291 10.7206 10.6838 10.6443 10.6108 10.5297
 10.2653 10.1145 10.0414  9.5971  9.5959  9.4481  9.3626  9.2959  9.1982  9.1646
  9.1037  9.0031  8.9955  8.9905  8.9280  8.8939  8.6723  8.6173  8.6136  8.5344
  8.4947  8.4380  8.4282  8.2884  8.2304  8.1699  8.0804  8.0802  8.0437  7.9276
  7.9272  7.9201  7.9021  7.8699  7.8494  7.7797  7.7572  7.6103  7.5950  7.5452
  7.5006  7.4594  7.3618  7.3186  7.3043  7.2652  7.2405  7.2122  7.1987  7.1885
  7.1457  7.0937  7.0058  6.9876  6.9790  6.9665  6.8921  6.8363  6.8090  6.8007
  6.7775  6.7715  6.7434  6.6314  6.6145  6.5517  6.5126  6.4760  6.4730  6.4538
  6.4305  6.4158  6.4140  6.3599  6.3406  6.1982  6.1908  6.1696  6.1606  6.1562
  6.1350  6.1191  6.1152  6.0654  4.4110  4.4102  4.4091  4.4048  4.4047  4.4039
  4.3991  4.3988  4.3987  4.3974  4.3973  4.3927  4.3925  4.3882  4.3880  4.3741
  4.3738
 highest evec of mol 1
 -0.0096  0.0111 -0.0052
  0.0177  0.0391 -0.0058
  0.1645  0.0128  0.0392
 -0.0021 -0.0058  0.0013
 -0.0007 -0.0001 -0.0003
 -0.0075 -0.0011 -0.0016
  0.0001  0.0000  0.0000
 -0.0010 -0.0002 -0.0004
 -0.0097 -0.0010 -0.0023
 -0.0125 -0.0131  0.0088
  0.0229 -0.0326  0.0400
  0.2149  0.0351  0.0408
 -0.0025  0.0052 -0.0056
  0.0025  0.0000  0.0004
 -0.0000 -0.0006 -0.0017
 -0.0006  0.0007  0.0011
  0.0004 -0.0000 -0.0000
 -0.0001  0.0001  0.0001
  0.0001  0.0000  0.0001
 -0.0001 -0.0000 -0.0001
  0.0001  0.0000  0.0001
 -0.0000 -0.0001 -0.0001
 -0.0001  0.0000  0.0000
  0.0001 -0.0000 -0.0000
 -0.0000  0.0000  0.0001
 -0.0001  0.0002  0.0004
 -0.0001  0.0001  0.0001
 -0.0030  0.0037  0.0060
  0.0002 -0.0002 -0.0003
 -0.0001  0.0000  0.0000
  0.0233 -0.0365  0.0150
 -0.0641 -0.1141  0.0136
 -0.5473 -0.0415 -0.1306
  0.0226  0.0021  0.0053
  0.0294  0.0044  0.0058
  0.0302  0.0406 -0.0305
 -0.0831  0.0914 -0.1187
 -0.7151 -0.1174 -0.1348
 -0.0007 -0.0007 -0.0011
 -0.0000 -0.0000 -0.0000
  0.0000 -0.0000 -0.0000
  0.0000 -0.0000 -0.0000
  0.0001 -0.0000 -0.0000
  0.0001  0.0001  0.0001
 -0.0001 -0.0001 -0.0002
  0.0006 -0.0006 -0.0010
  0.0140 -0.0114 -0.0199
 generating redundant internal coords
         300        3600          47
 Adding extra bonds for z output only
           6           6           6           6           6           6
          16           6           6           6           6           6
           6           7           6           6           6           6
           6           6           6           6           6           6
           6           6           6           6           6           6
           1           1           1           1           1           1
           1           1           1           1           1           1
           1           1           1           1           1
 search for int coords
   1 str   2   1   1.390
   2 str   3   2   1.393
   3 str   4   3   1.402
   4 str   5   4   1.407
   5 str   6   1   1.392
   6 str   6   5   1.392
   7 str   7   5   1.781
   8 str   8   7   1.781
   9 str   9   8   1.392
  10 str  10   9   1.392
  11 str  11  10   1.390
  12 str  12  11   1.393
  13 str  13   8   1.407
  14 str  13  12   1.402
  15 str  14   4   1.419
  16 str  14  13   1.419
  17 str  15  14   1.440
  18 str  16  15   1.391
  19 str  17  16   1.402
  20 str  18  17   1.436
  21 str  19  18   1.359
  22 str  20  19   1.436
  23 str  21  20   1.402
  24 str  22  21   1.391
  25 str  23  22   1.392
  26 str  24  23   1.402
  27 str  25  24   1.437
  28 str  26  25   1.358
  29 str  27  26   1.437
  30 str  28  15   1.395
  31 str  28  27   1.401
  32 str  29  17   1.425
  33 str  29  27   1.426
  34 str  30  20   1.426
  35 str  30  24   1.426
  36 str  30  29   1.424
  37 str  31   1   1.083
  38 str  32   2   1.084
  39 str  33   3   1.081
  40 str  34   6   1.084
  41 str  35   9   1.084
  42 str  36  10   1.083
  43 str  37  11   1.084
  44 str  38  12   1.081
  45 str  39  16   1.084
  46 str  40  18   1.085
  47 str  41  19   1.085
  48 str  42  21   1.085
  49 str  43  22   1.084
  50 str  44  23   1.085
  51 str  45  25   1.085
  52 str  46  26   1.085
  53 str  47  28   1.084
 nber stretches=          53
  54 ben   1   2   3
  55 prop tor   1   2   3   4
  56 prop tor   1   2   3  33
  57 ben   1   2  32
  58 ben   1   6   5
  59 ben   1   6  34
  60 ben   2   1   6
  61 prop tor   2   1   6   5
  62 prop tor   2   1   6  34
  63 ben   2   1  31
  64 ben   2   3   4
  65 prop tor   2   3   4   5
  66 prop tor   2   3   4  14
  67 ben   2   3  33
  68 ben   3   2  32
  69 ben   3   4   5
  70 prop tor   3   4   5   6
  71 prop tor   3   4   5   7
  72 ben   3   4  14
  73 prop tor   3   4  14  13
  74 prop tor   3   4  14  15
  75 ben   4   3  33
  76 ben   4   5   6
  77 prop tor   4   5   6   1
  78 prop tor   4   5   6  34
  79 ben   4   5   7
  80 prop tor   4   5   7   8
  81 ben   4  14  13
  82 ben   4  14  15
  83 prop tor   4  14  15  16
  84 prop tor   4  14  15  28
  85 ben   5   4  14
  86 prop tor   5   4  14  13
  87 prop tor   5   4  14  15
  88 ben   5   6  34
  89 ben   5   7   8
  90 prop tor   5   7   8   9
  91 prop tor   5   7   8  13
  92 prop tor   6   1   2   3
  93 prop tor   6   1   2  32
  94 ben   6   1  31
  95 ben   6   5   7
  96 prop tor   6   5   7   8
  97 prop tor   7   5   6   1
  98 prop tor   7   5   6  34
  99 ben   7   8   9
 100 prop tor   7   8   9  10
 101 prop tor   7   8   9  35
 102 ben   7   8  13
 103 prop tor   7   8  13  12
 104 prop tor   7   8  13  14
 105 ben   8   9  10
 106 prop tor   8   9  10  11
 107 prop tor   8   9  10  36
 108 ben   8   9  35
 109 ben   8  13  12
 110 ben   8  13  14
 111 prop tor   8  13  14   4
 112 prop tor   8  13  14  15
 113 ben   9   8  13
 114 prop tor   9   8  13  12
 115 prop tor   9   8  13  14
 116 ben   9  10  11
 117 prop tor   9  10  11  12
 118 prop tor   9  10  11  37
 119 ben   9  10  36
 120 ben  10   9  35
 121 ben  10  11  12
 122 prop tor  10  11  12  13
 123 prop tor  10  11  12  38
 124 ben  10  11  37
 125 ben  11  10  36
 126 ben  11  12  13
 127 prop tor  11  12  13   8
 128 prop tor  11  12  13  14
 129 ben  11  12  38
 130 ben  12  11  37
 131 ben  12  13  14
 132 prop tor  12  13  14   4
 133 prop tor  12  13  14  15
 134 prop tor  13   8   9  10
 135 prop tor  13   8   9  35
 136 ben  13  12  38
 137 ben  13  14  15
 138 prop tor  13  14  15  16
 139 prop tor  13  14  15  28
 140 prop tor  14   4   5   6
 141 prop tor  14   4   5   7
 142 ben  14  15  16
 143 prop tor  14  15  16  17
 144 prop tor  14  15  16  39
 145 ben  14  15  28
 146 prop tor  14  15  28  27
 147 prop tor  14  15  28  47
 148 ben  15  16  17
 149 prop tor  15  16  17  18
 150 prop tor  15  16  17  29
 151 ben  15  16  39
 152 ben  15  28  27
 153 ben  15  28  47
 154 ben  16  15  28
 155 prop tor  16  15  28  27
 156 prop tor  16  15  28  47
 157 ben  16  17  18
 158 prop tor  16  17  18  19
 159 prop tor  16  17  18  40
 160 ben  16  17  29
 161 prop tor  16  17  29  27
 162 prop tor  16  17  29  30
 163 ben  17  16  39
 164 ben  17  18  19
 165 prop tor  17  18  19  20
 166 prop tor  17  18  19  41
 167 ben  17  18  40
 168 ben  17  29  27
 169 ben  17  29  30
 170 prop tor  17  29  30  20
 171 prop tor  17  29  30  24
 172 ben  18  17  29
 173 prop tor  18  17  29  27
 174 prop tor  18  17  29  30
 175 ben  18  19  20
 176 prop tor  18  19  20  21
 177 prop tor  18  19  20  30
 178 ben  18  19  41
 179 ben  19  18  40
 180 ben  19  20  21
 181 prop tor  19  20  21  22
 182 prop tor  19  20  21  42
 183 ben  19  20  30
 184 prop tor  19  20  30  24
 185 prop tor  19  20  30  29
 186 ben  20  19  41
 187 ben  20  21  22
 188 prop tor  20  21  22  23
 189 prop tor  20  21  22  43
 190 ben  20  21  42
 191 ben  20  30  24
 192 ben  20  30  29
 193 ben  21  20  30
 194 prop tor  21  20  30  24
 195 prop tor  21  20  30  29
 196 ben  21  22  23
 197 prop tor  21  22  23  24
 198 prop tor  21  22  23  44
 199 ben  21  22  43
 200 ben  22  21  42
 201 ben  22  23  24
 202 prop tor  22  23  24  25
 203 prop tor  22  23  24  30
 204 ben  22  23  44
 205 ben  23  22  43
 206 ben  23  24  25
 207 prop tor  23  24  25  26
 208 prop tor  23  24  25  45
 209 ben  23  24  30
 210 prop tor  23  24  30  20
 211 prop tor  23  24  30  29
 212 ben  24  23  44
 213 ben  24  25  26
 214 prop tor  24  25  26  27
 215 prop tor  24  25  26  46
 216 ben  24  25  45
 217 ben  24  30  29
 218 ben  25  24  30
 219 prop tor  25  24  30  20
 220 prop tor  25  24  30  29
 221 ben  25  26  27
 222 prop tor  25  26  27  28
 223 prop tor  25  26  27  29
 224 ben  25  26  46
 225 ben  26  25  45
 226 ben  26  27  28
 227 prop tor  26  27  28  15
 228 prop tor  26  27  28  47
 229 ben  26  27  29
 230 prop tor  26  27  29  17
 231 prop tor  26  27  29  30
 232 ben  27  26  46
 233 ben  27  28  47
 234 ben  27  29  30
 235 prop tor  27  29  30  20
 236 prop tor  27  29  30  24
 237 prop tor  28  15  16  17
 238 prop tor  28  15  16  39
 239 ben  28  27  29
 240 prop tor  28  27  29  17
 241 prop tor  28  27  29  30
 242 prop tor  29  17  18  19
 243 prop tor  29  17  18  40
 244 prop tor  29  27  28  15
 245 prop tor  29  27  28  47
 246 prop tor  30  20  21  22
 247 prop tor  30  20  21  42
 248 prop tor  30  24  25  26
 249 prop tor  30  24  25  45
 250 prop tor  31   1   2   3
 251 prop tor  31   1   2  32
 252 prop tor  31   1   6   5
 253 prop tor  31   1   6  34
 254 prop tor  32   2   3   4
 255 prop tor  32   2   3  33
 256 prop tor  33   3   4   5
 257 prop tor  33   3   4  14
 258 prop tor  35   9  10  11
 259 prop tor  35   9  10  36
 260 prop tor  36  10  11  12
 261 prop tor  36  10  11  37
 262 prop tor  37  11  12  13
 263 prop tor  37  11  12  38
 264 prop tor  38  12  13   8
 265 prop tor  38  12  13  14
 266 prop tor  39  16  17  18
 267 prop tor  39  16  17  29
 268 prop tor  40  18  19  20
 269 prop tor  40  18  19  41
 270 prop tor  41  19  20  21
 271 prop tor  41  19  20  30
 272 prop tor  42  21  22  23
 273 prop tor  42  21  22  43
 274 prop tor  43  22  23  24
 275 prop tor  43  22  23  44
 276 prop tor  44  23  24  25
 277 prop tor  44  23  24  30
 278 prop tor  45  25  26  27
 279 prop tor  45  25  26  46
 280 prop tor  46  26  27  28
 281 prop tor  46  26  27  29
 nber bend=              88
 nber lin bend=           0
 nber prop tor=         140
 nber impr tor=           0
 nber tot redund int=         281
 Reading file: 
 ./phenothiazine-pyrene_0_C0S1.log                                              
                                          
  Entering Gaussian System, Link 0=g16                                          
  
 Gaussian format, type: g94, g98, g03= F F F
  #P Geom=AllCheck Guess=TCheck SCRF=Check Test GenChk RB3LYP TD(FC,Read    
 energy type= TD      
 Original G94 input coords:
  6 -4.044526  3.259936 -1.887295
  6 -2.643747  3.157893 -1.830012
  6 -2.031969  2.091627 -1.211638
  6 -2.797055  1.061042 -0.612036
  6 -4.210906  1.178359 -0.678217
  6 -4.817203  2.273852 -1.313536
 16 -5.295000 -0.000628  0.007848
  6 -4.208368 -1.179043  0.690874
  6 -4.812316 -2.274711  1.328129
  6 -4.037531 -3.260470  1.899597
  6 -2.636971 -3.157960  1.837945
  6 -2.027476 -2.091506  1.217638
  6 -2.794764 -1.061181  0.620383
  7 -2.154041  0.000024  0.003120
  6 -0.675233  0.000317  0.000778
  6 -0.033082 -0.614981 -1.058839
  6  1.398011 -0.626532 -1.080393
  6  2.133971 -1.231303 -2.121747
  6  3.515432 -1.230808 -2.122655
  6  4.257374 -0.624080 -1.080010
  6  5.676772 -0.609110 -1.056153
  6  6.357314  0.000000 -0.009346
  6  5.679844  0.609257  1.039367
  6  4.260522  0.624315  1.067334
  6  3.521641  1.231027  2.112160
  6  2.140184  1.231627  2.115240
  6  1.401175  0.626930  1.076004
  6 -0.029974  0.615653  1.058487
  6  2.111709  0.000137 -0.003202
  6  3.541142  0.000126 -0.005291
  1 -4.514846  4.103280 -2.376432
  1 -2.028470  3.927962 -2.278097
  1 -0.957091  2.021070 -1.172198
  1 -5.899032  2.332123 -1.345931
  1 -5.894021 -2.333389  1.363817
  1 -4.506044 -4.103930  2.390267
  1 -2.020045 -3.927768  2.284204
  1 -0.952750 -2.020569  1.174912
  1 -0.592398 -1.081230 -1.860106
  1  1.592753 -1.704531 -2.935258
  1  4.056087 -1.703409 -2.936464
  1  6.221540 -1.080091 -1.866954
  1  7.443303 -0.000027 -0.010923
  1  6.226986  1.080220  1.848577
  1  4.064680  1.703668  2.924357
  1  1.601352  1.704993  2.930252
  1 -0.586936  1.081819  1.861441
 nber atoms=          47
  Total Energy, E(TD-HF/TD-DFT) =  -1530.40749515                               
  
          32          49 "  -1530.40749515"
After scan for Atom:   Atom  AN      X      Y      Z        X      Y      Z        X      Y      Z   
After scan for Atom:   Atom  AN      X      Y      Z        X      Y      Z        X      Y      Z   
After scan for Atom:   Atom  AN      X      Y      Z        X      Y      Z        X      Y      Z   
After scan for Atom:   Atom  AN      X      Y      Z        X      Y      Z        X      Y      Z   
After scan for Atom:   Atom  AN      X      Y      Z        X      Y      Z        X      Y      Z   
After scan for Atom:   Atom  AN      X      Y      Z        X      Y      Z        X      Y      Z   
After scan for Atom:   Atom  AN      X      Y      Z        X      Y      Z        X      Y      Z   
After scan for Atom:   Atom  AN      X      Y      Z        X      Y      Z        X      Y      Z   
After scan for Atom:   Atom  AN      X      Y      Z        X      Y      Z        X      Y      Z   
After scan for Atom:   Atom  AN      X      Y      Z        X      Y      Z        X      Y      Z   
After scan for Atom:   Atom  AN      X      Y      Z        X      Y      Z        X      Y      Z   
After scan for Atom:   Atom  AN      X      Y      Z        X      Y      Z        X      Y      Z   
After scan for Atom:   Atom  AN      X      Y      Z        X      Y      Z        X      Y      Z   
After scan for Atom:   Atom  AN      X      Y      Z        X      Y      Z        X      Y      Z   
After scan for Atom:   Atom  AN      X      Y      Z        X      Y      Z        X      Y      Z   
After scan for Atom:   Atom  AN      X      Y      Z        X      Y      Z        X      Y      Z   
After scan for Atom:   Atom  AN      X      Y      Z        X      Y      Z        X      Y      Z   
After scan for Atom:   Atom  AN      X      Y      Z        X      Y      Z        X      Y      Z   
After scan for Atom:   Atom  AN      X      Y      Z        X      Y      Z        X      Y      Z   
After scan for Atom:   Atom  AN      X      Y      Z        X      Y      Z        X      Y      Z   
After scan for Atom:   Atom  AN      X      Y      Z        X      Y      Z        X      Y      Z   
After scan for Atom:   Atom  AN      X      Y      Z        X      Y      Z        X      Y      Z   
After scan for Atom:   Atom  AN      X      Y      Z        X      Y      Z        X      Y      Z   
After scan for Atom:   Atom  AN      X      Y      Z        X      Y      Z        X      Y      Z   
After scan for Atom:   Atom  AN      X      Y      Z        X      Y      Z        X      Y      Z   
After scan for Atom:   Atom  AN      X      Y      Z        X      Y      Z        X      Y      Z   
After scan for Atom:   Atom  AN      X      Y      Z        X      Y      Z        X      Y      Z   
After scan for Atom:   Atom  AN      X      Y      Z        X      Y      Z        X      Y      Z   
After scan for Atom:   Atom  AN      X      Y      Z        X      Y      Z        X      Y      Z   
After scan for Atom:   Atom  AN      X      Y      Z        X      Y      Z        X      Y      Z   
After scan for Atom:   Atom  AN      X      Y      Z        X      Y      Z        X      Y      Z   
After scan for Atom:   Atom  AN      X      Y      Z        X      Y      Z        X      Y      Z   
After scan for Atom:   Atom  AN      X      Y      Z        X      Y      Z        X      Y      Z   
After scan for Atom:   Atom  AN      X      Y      Z        X      Y      Z        X      Y      Z   
After scan for Atom:   Atom  AN      X      Y      Z        X      Y      Z        X      Y      Z   
After scan for Atom:   Atom  AN      X      Y      Z        X      Y      Z        X      Y      Z   
After scan for Atom:   Atom  AN      X      Y      Z        X      Y      Z        X      Y      Z   
After scan for Atom:   Atom  AN      X      Y      Z        X      Y      Z        X      Y      Z   
After scan for Atom:   Atom  AN      X      Y      Z        X      Y      Z        X      Y      Z   
After scan for Atom:   Atom  AN      X      Y      Z        X      Y      Z        X      Y      Z   
After scan for Atom:   Atom  AN      X      Y      Z        X      Y      Z        X      Y      Z   
After scan for Atom:   Atom  AN      X      Y      Z        X      Y      Z        X      Y      Z   
After scan for Atom:   Atom  AN      X      Y      Z        X      Y      Z        X      Y      Z   
After scan for Atom:   Atom  AN      X      Y      Z        X      Y      Z        X      Y      Z   
After scan for Atom:   Atom  AN      X      Y      Z        X      Y      Z        X      Y      Z   
 g94    frequencies=
     0.0    0.0    0.0    0.0    0.0    0.0   29.1   30.5   32.1   57.9
    93.3  101.3  148.0  151.3  156.8  205.7  209.8  223.9  235.6  237.4
   267.5  343.1  366.2  381.6  381.8  416.2  424.4  445.7  449.2  455.2
   455.7  473.2  493.0  508.0  510.5  512.3  519.5  532.0  544.0  550.6
   599.1  605.1  611.1  650.4  663.2  668.1  694.2  698.4  705.9  715.5
   716.4  721.9  734.9  754.5  766.7  767.6  773.1  778.0  780.5  816.7
   818.9  820.2  844.4  855.2  862.0  865.2  905.9  913.5  935.6  954.8
   969.2  969.6  988.1  989.9 1004.8 1012.8 1013.2 1050.5 1059.9 1077.0
  1096.7 1110.9 1137.4 1140.0 1146.5 1156.0 1172.4 1184.7 1187.3 1193.3
  1204.9 1212.3 1232.5 1253.0 1265.2 1265.2 1278.6 1300.2 1311.9 1316.4
  1339.3 1346.0 1357.0 1368.9 1376.1 1383.1 1424.8 1438.6 1447.2 1452.9
  1473.1 1477.6 1501.2 1513.4 1515.2 1551.3 1552.2 1568.7 1573.9 1598.2
  1603.5 1624.2 1639.6 1645.8 3141.4 3142.5 3143.2 3160.6 3162.7 3164.3
  3173.5 3177.7 3177.7 3181.1 3184.9 3194.0 3194.0 3207.4 3207.5 3254.7
  3254.8
 g94    symmetries=
                                                 A      A      A      A
       A      A      A      A      A      A      A      A      A      A
       A      A      A      A      A      A      A      A      A      A
       A      A      A      A      A      A      A      A      A      A
       A      A      A      A      A      A      A      A      A      A
       A      A      A      A      A      A      A      A      A      A
       A      A      A      A      A      A      A      A      A      A
       A      A      A      A      A      A      A      A      A      A
       A      A      A      A      A      A      A      A      A      A
       A      A      A      A      A      A      A      A      A      A
       A      A      A      A      A      A      A      A      A      A
       A      A      A      A      A      A      A      A      A      A
       A      A      A      A      A      A      A      A      A      A
       A      A      A      A      A      A      A      A      A      A
       A
 atomic masses:
 12.0000 12.0000 12.0000 12.0000 12.0000 12.0000 31.9721 12.0000 12.0000 12.0000
 12.0000 12.0000 12.0000 14.0031 12.0000 12.0000 12.0000 12.0000 12.0000 12.0000
 12.0000 12.0000 12.0000 12.0000 12.0000 12.0000 12.0000 12.0000 12.0000 12.0000
  1.0078  1.0078  1.0078  1.0078  1.0078  1.0078  1.0078  1.0078  1.0078  1.0078
  1.0078  1.0078  1.0078  1.0078  1.0078  1.0078  1.0078
 looking for force constants in 
 ./phenothiazine-pyrene_0_C0S1.fchk                                             
  
 Cartesian Force Constants                  R   N=       10011                  
  
 n3=         141       10011
 g94-fc frequencies=
    -0.0    0.0    0.0    2.4    2.8    4.9   29.1   30.5   32.1   57.9
    93.3  101.3  148.1  151.3  156.8  205.7  209.8  223.9  235.6  237.4
   267.5  343.1  366.2  381.7  381.8  416.2  424.4  445.7  449.2  455.2
   455.7  473.2  493.0  508.0  510.5  512.3  519.5  532.0  544.0  550.6
   599.1  605.1  611.1  650.4  663.2  668.1  694.2  698.4  705.9  715.5
   716.4  721.9  734.9  754.5  766.7  767.6  773.1  778.0  780.5  816.7
   818.9  820.2  844.4  855.2  862.0  865.3  905.9  913.5  935.6  954.8
   969.2  969.6  988.2  989.9 1004.8 1012.9 1013.2 1050.6 1059.9 1077.0
  1096.7 1111.0 1137.4 1140.0 1146.5 1156.0 1172.4 1184.7 1187.4 1193.3
  1204.9 1212.4 1232.5 1253.0 1265.2 1265.3 1278.6 1300.3 1311.9 1316.5
  1339.3 1346.0 1357.0 1368.9 1376.1 1383.1 1424.8 1438.7 1447.3 1452.9
  1473.1 1477.6 1501.3 1513.5 1515.3 1551.3 1552.2 1568.7 1573.9 1598.3
  1603.5 1624.3 1639.7 1645.9 3141.4 3142.6 3143.3 3160.7 3162.8 3164.4
  3173.6 3177.8 3177.8 3181.2 3185.0 3194.0 3194.1 3207.4 3207.5 3254.8
  3254.8
 at 99999: n3=         141
 symm operator            1 :  F  nop=           0
 symm operator            2 :  F  nop=           0
 symm operator            3 :  F  nop=           0
 symm operator            4 :  F  nop=           0
 symm operator            5 :  F  nop=           0
 symm operator            6 :  F  nop=           0
 symm operator            7 :  F  nop=           0
 The point group of the molecule is  C1
 Symmetry rotation matrix:
   1.00000   0.00000   0.00000
   0.00000   1.00000   0.00000
   0.00000   0.00000   1.00000

 Projecting out zero-frequency components
 generating redundant internal coords
         300        3600          47
 search for int coords
   1 str   2   1   1.406
   2 str   3   2   1.376
   3 str   4   3   1.417
   4 str   5   4   1.420
   5 str   6   1   1.378
   6 str   6   5   1.404
   7 str   7   5   1.742
   8 str   8   7   1.742
   9 str   9   8   1.404
  10 str  10   9   1.378
  11 str  11  10   1.406
  12 str  12  11   1.376
  13 str  13   8   1.420
  14 str  13  12   1.417
  15 str  14   4   1.385
  16 str  14  13   1.385
  17 str  15  14   1.479
  18 str  16  15   1.383
  19 str  17  16   1.431
  20 str  18  17   1.411
  21 str  19  18   1.381
  22 str  20  19   1.416
  23 str  21  20   1.420
  24 str  22  21   1.389
  25 str  23  22   1.389
  26 str  24  23   1.420
  27 str  25  24   1.416
  28 str  26  25   1.381
  29 str  27  26   1.411
  30 str  28  15   1.383
  31 str  28  27   1.431
  32 str  29  17   1.436
  33 str  29  27   1.436
  34 str  30  20   1.434
  35 str  30  24   1.434
  36 str  30  29   1.429
  37 str  31   1   1.082
  38 str  32   2   1.083
  39 str  33   3   1.078
  40 str  34   6   1.084
  41 str  35   9   1.084
  42 str  36  10   1.082
  43 str  37  11   1.083
  44 str  38  12   1.078
  45 str  39  16   1.083
  46 str  40  18   1.086
  47 str  41  19   1.085
  48 str  42  21   1.084
  49 str  43  22   1.086
  50 str  44  23   1.084
  51 str  45  25   1.085
  52 str  46  26   1.086
  53 str  47  28   1.083
 nber stretches=          53
  54 ben   1   2   3
  55 prop tor   1   2   3   4
  56 prop tor   1   2   3  33
  57 ben   1   2  32
  58 ben   1   6   5
  59 ben   1   6  34
  60 ben   2   1   6
  61 prop tor   2   1   6   5
  62 prop tor   2   1   6  34
  63 ben   2   1  31
  64 ben   2   3   4
  65 prop tor   2   3   4   5
  66 prop tor   2   3   4  14
  67 ben   2   3  33
  68 ben   3   2  32
  69 ben   3   4   5
  70 prop tor   3   4   5   6
  71 prop tor   3   4   5   7
  72 ben   3   4  14
  73 prop tor   3   4  14  13
  74 prop tor   3   4  14  15
  75 ben   4   3  33
  76 ben   4   5   6
  77 prop tor   4   5   6   1
  78 prop tor   4   5   6  34
  79 ben   4   5   7
  80 prop tor   4   5   7   8
  81 ben   4  14  13
  82 ben   4  14  15
  83 prop tor   4  14  15  16
  84 prop tor   4  14  15  28
  85 ben   5   4  14
  86 prop tor   5   4  14  13
  87 prop tor   5   4  14  15
  88 ben   5   6  34
  89 ben   5   7   8
  90 prop tor   5   7   8   9
  91 prop tor   5   7   8  13
  92 prop tor   6   1   2   3
  93 prop tor   6   1   2  32
  94 ben   6   1  31
  95 ben   6   5   7
  96 prop tor   6   5   7   8
  97 prop tor   7   5   6   1
  98 prop tor   7   5   6  34
  99 ben   7   8   9
 100 prop tor   7   8   9  10
 101 prop tor   7   8   9  35
 102 ben   7   8  13
 103 prop tor   7   8  13  12
 104 prop tor   7   8  13  14
 105 ben   8   9  10
 106 prop tor   8   9  10  11
 107 prop tor   8   9  10  36
 108 ben   8   9  35
 109 ben   8  13  12
 110 ben   8  13  14
 111 prop tor   8  13  14   4
 112 prop tor   8  13  14  15
 113 ben   9   8  13
 114 prop tor   9   8  13  12
 115 prop tor   9   8  13  14
 116 ben   9  10  11
 117 prop tor   9  10  11  12
 118 prop tor   9  10  11  37
 119 ben   9  10  36
 120 ben  10   9  35
 121 ben  10  11  12
 122 prop tor  10  11  12  13
 123 prop tor  10  11  12  38
 124 ben  10  11  37
 125 ben  11  10  36
 126 ben  11  12  13
 127 prop tor  11  12  13   8
 128 prop tor  11  12  13  14
 129 ben  11  12  38
 130 ben  12  11  37
 131 ben  12  13  14
 132 prop tor  12  13  14   4
 133 prop tor  12  13  14  15
 134 prop tor  13   8   9  10
 135 prop tor  13   8   9  35
 136 ben  13  12  38
 137 ben  13  14  15
 138 prop tor  13  14  15  16
 139 prop tor  13  14  15  28
 140 prop tor  14   4   5   6
 141 prop tor  14   4   5   7
 142 ben  14  15  16
 143 prop tor  14  15  16  17
 144 prop tor  14  15  16  39
 145 ben  14  15  28
 146 prop tor  14  15  28  27
 147 prop tor  14  15  28  47
 148 ben  15  16  17
 149 prop tor  15  16  17  18
 150 prop tor  15  16  17  29
 151 ben  15  16  39
 152 ben  15  28  27
 153 ben  15  28  47
 154 ben  16  15  28
 155 prop tor  16  15  28  27
 156 prop tor  16  15  28  47
 157 ben  16  17  18
 158 prop tor  16  17  18  19
 159 prop tor  16  17  18  40
 160 ben  16  17  29
 161 prop tor  16  17  29  27
 162 prop tor  16  17  29  30
 163 ben  17  16  39
 164 ben  17  18  19
 165 prop tor  17  18  19  20
 166 prop tor  17  18  19  41
 167 ben  17  18  40
 168 ben  17  29  27
 169 ben  17  29  30
 170 prop tor  17  29  30  20
 171 prop tor  17  29  30  24
 172 ben  18  17  29
 173 prop tor  18  17  29  27
 174 prop tor  18  17  29  30
 175 ben  18  19  20
 176 prop tor  18  19  20  21
 177 prop tor  18  19  20  30
 178 ben  18  19  41
 179 ben  19  18  40
 180 ben  19  20  21
 181 prop tor  19  20  21  22
 182 prop tor  19  20  21  42
 183 ben  19  20  30
 184 prop tor  19  20  30  24
 185 prop tor  19  20  30  29
 186 ben  20  19  41
 187 ben  20  21  22
 188 prop tor  20  21  22  23
 189 prop tor  20  21  22  43
 190 ben  20  21  42
 191 ben  20  30  24
 192 ben  20  30  29
 193 ben  21  20  30
 194 prop tor  21  20  30  24
 195 prop tor  21  20  30  29
 196 ben  21  22  23
 197 prop tor  21  22  23  24
 198 prop tor  21  22  23  44
 199 ben  21  22  43
 200 ben  22  21  42
 201 ben  22  23  24
 202 prop tor  22  23  24  25
 203 prop tor  22  23  24  30
 204 ben  22  23  44
 205 ben  23  22  43
 206 ben  23  24  25
 207 prop tor  23  24  25  26
 208 prop tor  23  24  25  45
 209 ben  23  24  30
 210 prop tor  23  24  30  20
 211 prop tor  23  24  30  29
 212 ben  24  23  44
 213 ben  24  25  26
 214 prop tor  24  25  26  27
 215 prop tor  24  25  26  46
 216 ben  24  25  45
 217 ben  24  30  29
 218 ben  25  24  30
 219 prop tor  25  24  30  20
 220 prop tor  25  24  30  29
 221 ben  25  26  27
 222 prop tor  25  26  27  28
 223 prop tor  25  26  27  29
 224 ben  25  26  46
 225 ben  26  25  45
 226 ben  26  27  28
 227 prop tor  26  27  28  15
 228 prop tor  26  27  28  47
 229 ben  26  27  29
 230 prop tor  26  27  29  17
 231 prop tor  26  27  29  30
 232 ben  27  26  46
 233 ben  27  28  47
 234 ben  27  29  30
 235 prop tor  27  29  30  20
 236 prop tor  27  29  30  24
 237 prop tor  28  15  16  17
 238 prop tor  28  15  16  39
 239 ben  28  27  29
 240 prop tor  28  27  29  17
 241 prop tor  28  27  29  30
 242 prop tor  29  17  18  19
 243 prop tor  29  17  18  40
 244 prop tor  29  27  28  15
 245 prop tor  29  27  28  47
 246 prop tor  30  20  21  22
 247 prop tor  30  20  21  42
 248 prop tor  30  24  25  26
 249 prop tor  30  24  25  45
 250 prop tor  31   1   2   3
 251 prop tor  31   1   2  32
 252 prop tor  31   1   6   5
 253 prop tor  31   1   6  34
 254 prop tor  32   2   3   4
 255 prop tor  32   2   3  33
 256 prop tor  33   3   4   5
 257 prop tor  33   3   4  14
 258 prop tor  35   9  10  11
 259 prop tor  35   9  10  36
 260 prop tor  36  10  11  12
 261 prop tor  36  10  11  37
 262 prop tor  37  11  12  13
 263 prop tor  37  11  12  38
 264 prop tor  38  12  13   8
 265 prop tor  38  12  13  14
 266 prop tor  39  16  17  18
 267 prop tor  39  16  17  29
 268 prop tor  40  18  19  20
 269 prop tor  40  18  19  41
 270 prop tor  41  19  20  21
 271 prop tor  41  19  20  30
 272 prop tor  42  21  22  23
 273 prop tor  42  21  22  43
 274 prop tor  43  22  23  24
 275 prop tor  43  22  23  44
 276 prop tor  44  23  24  25
 277 prop tor  44  23  24  30
 278 prop tor  45  25  26  27
 279 prop tor  45  25  26  46
 280 prop tor  46  26  27  28
 281 prop tor  46  26  27  29
 nber bend=              88
 nber lin bend=           0
 nber prop tor=         140
 nber impr tor=           0
 nber tot redund int=         281
 Eigenvalues of G in red int coords
    Gval -0.00000000 -0.00000000 -0.00000000 -0.00000000 -0.00000000 -0.00000000 -0.00000000 -0.00000000
    Gval -0.00000000 -0.00000000 -0.00000000 -0.00000000 -0.00000000 -0.00000000 -0.00000000 -0.00000000
    Gval -0.00000000 -0.00000000 -0.00000000 -0.00000000 -0.00000000 -0.00000000 -0.00000000 -0.00000000
    Gval -0.00000000 -0.00000000 -0.00000000 -0.00000000 -0.00000000 -0.00000000 -0.00000000 -0.00000000
    Gval -0.00000000 -0.00000000 -0.00000000 -0.00000000 -0.00000000 -0.00000000 -0.00000000 -0.00000000
    Gval -0.00000000 -0.00000000 -0.00000000 -0.00000000 -0.00000000 -0.00000000 -0.00000000 -0.00000000
    Gval -0.00000000 -0.00000000 -0.00000000 -0.00000000 -0.00000000 -0.00000000 -0.00000000 -0.00000000
    Gval -0.00000000 -0.00000000 -0.00000000 -0.00000000 -0.00000000 -0.00000000 -0.00000000 -0.00000000
    Gval -0.00000000 -0.00000000 -0.00000000 -0.00000000 -0.00000000  0.00000000  0.00000000  0.00000000
    Gval  0.00000000  0.00000000  0.00000000  0.00000000  0.00000000  0.00000000  0.00000000  0.00000000
    Gval  0.00000000  0.00000000  0.00000000  0.00000000  0.00000000  0.00000000  0.00000000  0.00000000
    Gval  0.00000000  0.00000000  0.00000000  0.00000000  0.00000000  0.00000000  0.00000000  0.00000000
    Gval  0.00000000  0.00000000  0.00000000  0.00000000  0.00000000  0.00000000  0.00000000  0.00000000
    Gval  0.00000000  0.00000000  0.00000000  0.00000000  0.00000000  0.00000000  0.00000000  0.00000000
    Gval  0.00000000  0.00000000  0.00000000  0.00000000  0.00000000  0.00000000  0.00000000  0.00000000
    Gval  0.00000000  0.00000000  0.00000000  0.00000000  0.00000000  0.00000000  0.00000000  0.00000000
    Gval  0.00000000  0.00000000  0.00000000  0.00000000  0.00000000  0.00000000  0.00000000  0.00000000
    Gval  0.00000000  0.00000000  0.00000000  0.00000000  0.00000000  0.00000000  0.00000000  0.00000000
    Gval  0.00000000  0.00000000  0.00000084  0.00000163  0.00000198  0.00000452  0.00000840  0.00001002
    Gval  0.00001048  0.00001166  0.00001716  0.00002120  0.00002227  0.00002441  0.00002507  0.00002824
    Gval  0.00003016  0.00003653  0.00004188  0.00004911  0.00005147  0.00005560  0.00005569  0.00005855
    Gval  0.00006236  0.00006752  0.00006839  0.00007175  0.00007411  0.00007435  0.00007671  0.00007950
    Gval  0.00008294  0.00008567  0.00010385  0.00010478  0.00011171  0.00011471  0.00011737  0.00012155
    Gval  0.00012745  0.00013976  0.00014033  0.00014589  0.00016514  0.00017103  0.00017265  0.00018809
    Gval  0.00019053  0.00019964  0.00020464  0.00022740  0.00024776  0.00026062  0.00026619  0.00026721
    Gval  0.00026950  0.00031457  0.00032479  0.00033852  0.00034557  0.00037233  0.00038105  0.00038837
    Gval  0.00039627  0.00040160  0.00041988  0.00044209  0.00045480  0.00045857  0.00047347  0.00051889
    Gval  0.00057891  0.00059321  0.00059322  0.00059385  0.00059726  0.00059726  0.00059741  0.00059875
    Gval  0.00060759  0.00061788  0.00061913  0.00062004  0.00062752  0.00064254  0.00064531  0.00065491
    Gval  0.00065559  0.00065824  0.00068690  0.00076967  0.00079131  0.00082934  0.00091843  0.00096536
    Gval  0.00105622  0.00105665  0.00106275  0.00108634  0.00108640  0.00111392  0.00112325  0.00112338
    Gval  0.00113967  0.00114500  0.00115714  0.00115793  0.00116563  0.00116590  0.00116606  0.00117581
    Gval  0.00117582  0.00117891  0.00133759  0.00146291  0.00170742  0.00171770  0.00175123  0.00180024
    Gval  0.00191724  0.00220362  0.00230758  0.00238585  0.00255678  0.00264442  0.00271349  0.00309184
    Gval  0.00312688  0.00320280  0.00351020  0.00352412  0.00366354  0.00370481  0.00391098  0.00403080
    Gval  0.00403210
  8.425186747158684E-007  8.425186747158684E-007
  1.633023155456255E-006  8.425186747158684E-007
  1.983336629208498E-006  8.425186747158684E-007
  4.522593619325195E-006  8.425186747158684E-007
  8.401889469527849E-006  8.425186747158684E-007
  1.002485322791692E-005  8.425186747158684E-007
  1.048133506239071E-005  8.425186747158684E-007
  1.166143529128524E-005  8.425186747158684E-007
  1.715938680894009E-005  8.425186747158684E-007
  2.120302068491044E-005  8.425186747158684E-007
  2.227116303384619E-005  8.425186747158684E-007
  2.441102870786228E-005  8.425186747158684E-007
  2.507448742785119E-005  8.425186747158684E-007
  2.823921146294800E-005  8.425186747158684E-007
  3.015634101555780E-005  8.425186747158684E-007
  3.653050646157377E-005  8.425186747158684E-007
  4.187689243482375E-005  8.425186747158684E-007
  4.911120786432962E-005  8.425186747158684E-007
  5.146996723821887E-005  8.425186747158684E-007
  5.559654396734457E-005  8.425186747158684E-007
  5.568611642617747E-005  8.425186747158684E-007
  5.855325625822922E-005  8.425186747158684E-007
  6.236277967987181E-005  8.425186747158684E-007
  6.752310001535532E-005  8.425186747158684E-007
  6.838938257579030E-005  8.425186747158684E-007
  7.174524776420009E-005  8.425186747158684E-007
  7.410520056963596E-005  8.425186747158684E-007
  7.435408357445651E-005  8.425186747158684E-007
  7.671251542741281E-005  8.425186747158684E-007
  7.949618028305332E-005  8.425186747158684E-007
  8.293589797425170E-005  8.425186747158684E-007
  8.566642439213717E-005  8.425186747158684E-007
  1.038458157483814E-004  8.425186747158684E-007
  1.047814356519983E-004  8.425186747158684E-007
  1.117140037841800E-004  8.425186747158684E-007
  1.147070811947159E-004  8.425186747158684E-007
  1.173738846216208E-004  8.425186747158684E-007
  1.215458391541414E-004  8.425186747158684E-007
  1.274468871809437E-004  8.425186747158684E-007
  1.397643931341563E-004  8.425186747158684E-007
  1.403328117441451E-004  8.425186747158684E-007
  1.458935652396934E-004  8.425186747158684E-007
  1.651357145911464E-004  8.425186747158684E-007
  1.710256478359379E-004  8.425186747158684E-007
  1.726490332440308E-004  8.425186747158684E-007
  1.880885763473964E-004  8.425186747158684E-007
  1.905258515556328E-004  8.425186747158684E-007
  1.996406940628810E-004  8.425186747158684E-007
  2.046415810747279E-004  8.425186747158684E-007
  2.274032586073879E-004  8.425186747158684E-007
  2.477552722995944E-004  8.425186747158684E-007
  2.606166362980636E-004  8.425186747158684E-007
  2.661896178852273E-004  8.425186747158684E-007
  2.672109781150569E-004  8.425186747158684E-007
  2.695003440789940E-004  8.425186747158684E-007
  3.145703859276441E-004  8.425186747158684E-007
  3.247856098135145E-004  8.425186747158684E-007
  3.385192625566868E-004  8.425186747158684E-007
  3.455741254510728E-004  8.425186747158684E-007
  3.723340502341949E-004  8.425186747158684E-007
  3.810511689815523E-004  8.425186747158684E-007
  3.883736842361957E-004  8.425186747158684E-007
  3.962678536825547E-004  8.425186747158684E-007
  4.016007124753647E-004  8.425186747158684E-007
  4.198781725564683E-004  8.425186747158684E-007
  4.420907172858691E-004  8.425186747158684E-007
  4.547953871145537E-004  8.425186747158684E-007
  4.585700913649809E-004  8.425186747158684E-007
  4.734703404119579E-004  8.425186747158684E-007
  5.188870715469175E-004  8.425186747158684E-007
  5.789074785854095E-004  8.425186747158684E-007
  5.932062813336534E-004  8.425186747158684E-007
  5.932229655412021E-004  8.425186747158684E-007
  5.938474506978006E-004  8.425186747158684E-007
  5.972578623648369E-004  8.425186747158684E-007
  5.972638275695671E-004  8.425186747158684E-007
  5.974081251077380E-004  8.425186747158684E-007
  5.987540601315060E-004  8.425186747158684E-007
  6.075877162523806E-004  8.425186747158684E-007
  6.178763515638224E-004  8.425186747158684E-007
  6.191257225050837E-004  8.425186747158684E-007
  6.200360323948939E-004  8.425186747158684E-007
  6.275215225098673E-004  8.425186747158684E-007
  6.425388587125441E-004  8.425186747158684E-007
  6.453139779534200E-004  8.425186747158684E-007
  6.549051107682450E-004  8.425186747158684E-007
  6.555943170526531E-004  8.425186747158684E-007
  6.582360245674172E-004  8.425186747158684E-007
  6.868968085551997E-004  8.425186747158684E-007
  7.696659115166784E-004  8.425186747158684E-007
  7.913056447080033E-004  8.425186747158684E-007
  8.293354663553275E-004  8.425186747158684E-007
  9.184254339680208E-004  8.425186747158684E-007
  9.653573559845090E-004  8.425186747158684E-007
  1.056219815389935E-003  8.425186747158684E-007
  1.056651270356845E-003  8.425186747158684E-007
  1.062747976359654E-003  8.425186747158684E-007
  1.086343278598237E-003  8.425186747158684E-007
  1.086400601142767E-003  8.425186747158684E-007
  1.113917390698009E-003  8.425186747158684E-007
  1.123248810645981E-003  8.425186747158684E-007
  1.123376164771844E-003  8.425186747158684E-007
  1.139672473703821E-003  8.425186747158684E-007
  1.144998025574213E-003  8.425186747158684E-007
  1.157143239240986E-003  8.425186747158684E-007
  1.157934920787075E-003  8.425186747158684E-007
  1.165625912283038E-003  8.425186747158684E-007
  1.165901093936895E-003  8.425186747158684E-007
  1.166059020915949E-003  8.425186747158684E-007
  1.175813030221991E-003  8.425186747158684E-007
  1.175819261040015E-003  8.425186747158684E-007
  1.178907145343845E-003  8.425186747158684E-007
  1.337585671805470E-003  8.425186747158684E-007
  1.462913877049860E-003  8.425186747158684E-007
  1.707423156443918E-003  8.425186747158684E-007
  1.717700451918748E-003  8.425186747158684E-007
  1.751234729165433E-003  8.425186747158684E-007
  1.800237776839364E-003  8.425186747158684E-007
  1.917241574992317E-003  8.425186747158684E-007
  2.203623612728114E-003  8.425186747158684E-007
  2.307577857573003E-003  8.425186747158684E-007
  2.385852345276751E-003  8.425186747158684E-007
  2.556776124667134E-003  8.425186747158684E-007
  2.644420391569913E-003  8.425186747158684E-007
  2.713489382903726E-003  8.425186747158684E-007
  3.091837923640713E-003  8.425186747158684E-007
  3.126876502210776E-003  8.425186747158684E-007
  3.202803836802867E-003  8.425186747158684E-007
  3.510203590014933E-003  8.425186747158684E-007
  3.524117508386305E-003  8.425186747158684E-007
  3.663539366363834E-003  8.425186747158684E-007
  3.704814827290818E-003  8.425186747158684E-007
  3.910980404943044E-003  8.425186747158684E-007
  4.030798691825465E-003  8.425186747158684E-007
  4.032095289098971E-003  8.425186747158684E-007
 cut=1d-8, nber non-redundant internal coords=         135
 Check on Eigenvals of non-red overlap matrix:
  0.00000084  0.00000163  0.00000198  0.00000452  0.00000840  0.00001002  0.00001048  0.00001166
  0.00001716  0.00002120  0.00002227  0.00002441  0.00002507  0.00002824  0.00003016  0.00003653
  0.00004188  0.00004911  0.00005147  0.00005560  0.00005569  0.00005855  0.00006236  0.00006752
  0.00006839  0.00007175  0.00007411  0.00007435  0.00007671  0.00007950  0.00008294  0.00008567
  0.00010385  0.00010478  0.00011171  0.00011471  0.00011737  0.00012155  0.00012745  0.00013976
  0.00014033  0.00014589  0.00016514  0.00017103  0.00017265  0.00018809  0.00019053  0.00019964
  0.00020464  0.00022740  0.00024776  0.00026062  0.00026619  0.00026721  0.00026950  0.00031457
  0.00032479  0.00033852  0.00034557  0.00037233  0.00038105  0.00038837  0.00039627  0.00040160
  0.00041988  0.00044209  0.00045480  0.00045857  0.00047347  0.00051889  0.00057891  0.00059321
  0.00059322  0.00059385  0.00059726  0.00059726  0.00059741  0.00059875  0.00060759  0.00061788
  0.00061913  0.00062004  0.00062752  0.00064254  0.00064531  0.00065491  0.00065559  0.00065824
  0.00068690  0.00076967  0.00079131  0.00082934  0.00091843  0.00096536  0.00105622  0.00105665
  0.00106275  0.00108634  0.00108640  0.00111392  0.00112325  0.00112338  0.00113967  0.00114500
  0.00115714  0.00115793  0.00116563  0.00116590  0.00116606  0.00117581  0.00117582  0.00117891
  0.00133759  0.00146291  0.00170742  0.00171770  0.00175123  0.00180024  0.00191724  0.00220362
  0.00230758  0.00238585  0.00255678  0.00264442  0.00271349  0.00309184  0.00312688  0.00320280
  0.00351020  0.00352412  0.00366354  0.00370481  0.00391098  0.00403080  0.00403210
 Checking for correct frequencies
 recalc frequencies=
    -0.0   -0.0   -0.0    0.0    0.0    0.0   29.1   30.5   32.1   57.9
    93.3  101.3  148.1  151.3  156.8  205.7  209.8  223.9  235.6  237.4
   267.5  343.1  366.2  381.7  381.8  416.2  424.4  445.7  449.2  455.2
   455.7  473.2  493.0  508.0  510.5  512.3  519.5  532.0  544.0  550.6
   599.1  605.1  611.1  650.4  663.2  668.1  694.2  698.4  705.9  715.5
   716.4  721.9  734.9  754.5  766.7  767.6  773.1  778.0  780.5  816.7
   818.9  820.2  844.4  855.2  862.0  865.3  905.9  913.5  935.6  954.8
   969.2  969.6  988.2  989.9 1004.8 1012.9 1013.2 1050.6 1059.9 1077.0
  1096.7 1111.0 1137.4 1140.0 1146.5 1156.0 1172.4 1184.7 1187.4 1193.3
  1204.9 1212.4 1232.5 1253.0 1265.2 1265.3 1278.6 1300.3 1311.9 1316.5
  1339.3 1346.0 1357.0 1368.9 1376.1 1383.1 1424.8 1438.7 1447.3 1452.9
  1473.1 1477.6 1501.3 1513.5 1515.3 1551.3 1552.2 1568.7 1573.9 1598.3
  1603.5 1624.3 1639.7 1645.9 3141.4 3142.6 3143.3 3160.7 3162.8 3164.4
  3173.6 3177.8 3177.8 3181.2 3185.0 3194.0 3194.1 3207.4 3207.5 3254.8
  3254.8
 recalc symmetries=
                                                                       
                                                                       
                                                                       
                                                                       
                                                                       
                                                                       
                                                                       
                                                                       
                                                                       
                                                                       
                                                                       
                                                                       
                                                                       
                                                                       
        
 recalc freqs check OK
 Zero-point lengths:
 10.0000 10.0000 10.0000 10.0000 10.0000 10.0000 45.9575 44.8816 43.7313 32.5914
 25.6624 24.6258 20.3745 20.1573 19.8001 17.2836 17.1175 16.5681 16.1500 16.0893
 15.1583 13.3831 12.9551 12.6900 12.6868 12.1513 12.0339 11.7427 11.6974 11.6194
 11.6129 11.3961 11.1657 10.9992 10.9721 10.9527 10.8763 10.7486 10.6293 10.5652
 10.1284 10.0782 10.0286  9.7210  9.6266  9.5914  9.4089  9.3807  9.3311  9.2678
  9.2620  9.2269  9.1451  9.0253  8.9534  8.9481  8.9161  8.8878  8.8738  8.6749
  8.6632  8.6561  8.5315  8.4774  8.4439  8.4279  8.2367  8.2023  8.1048  8.0229
  7.9631  7.9614  7.8865  7.8794  7.8207  7.7897  7.7883  7.6487  7.6149  7.5542
  7.4860  7.4379  7.3507  7.3424  7.3217  7.2914  7.2404  7.2026  7.1945  7.1766
  7.1419  7.1200  7.0614  7.0035  6.9698  6.9696  6.9331  6.8751  6.8446  6.8327
  6.7742  6.7572  6.7298  6.7004  6.6829  6.6660  6.5678  6.5361  6.5166  6.5039
  6.4592  6.4494  6.3984  6.3725  6.3687  6.2943  6.2924  6.2592  6.2489  6.2011
  6.1910  6.1513  6.1223  6.1108  4.4232  4.4223  4.4218  4.4097  4.4082  4.4071
  4.4007  4.3978  4.3978  4.3954  4.3928  4.3866  4.3866  4.3774  4.3773  4.3454
  4.3454
 highest evec of mol 2
 -0.0019  0.0009 -0.0005
  0.0038  0.0131 -0.0076
  0.1351 -0.0087  0.0048
 -0.0023 -0.0029  0.0017
 -0.0007 -0.0003  0.0002
 -0.0014  0.0002 -0.0001
 -0.0001  0.0001 -0.0000
 -0.0008  0.0003 -0.0002
 -0.0025 -0.0002  0.0001
 -0.0033 -0.0016  0.0010
  0.0070 -0.0249  0.0144
  0.2549  0.0169 -0.0101
 -0.0048  0.0044 -0.0026
  0.0034  0.0002 -0.0001
 -0.0004  0.0009 -0.0005
 -0.0004 -0.0002 -0.0009
  0.0001 -0.0000 -0.0001
 -0.0001 -0.0002 -0.0003
  0.0000 -0.0000 -0.0001
 -0.0000  0.0000  0.0000
  0.0001 -0.0001 -0.0001
  0.0002  0.0000 -0.0000
  0.0001  0.0001  0.0001
 -0.0000 -0.0000 -0.0000
  0.0000  0.0000  0.0001
 -0.0001  0.0002  0.0003
  0.0001  0.0001  0.0001
 -0.0004  0.0006  0.0006
  0.0002 -0.0000  0.0000
  0.0001 -0.0000  0.0000
  0.0012 -0.0019  0.0011
 -0.0227 -0.0305  0.0177
 -0.4447  0.0272 -0.0151
  0.0038 -0.0002  0.0001
  0.0065  0.0003 -0.0002
  0.0021  0.0035 -0.0020
 -0.0432  0.0576 -0.0334
 -0.8393 -0.0517  0.0312
  0.0020  0.0017  0.0036
  0.0006  0.0006  0.0009
 -0.0002  0.0002  0.0003
 -0.0002  0.0002  0.0003
 -0.0005  0.0000  0.0000
 -0.0002 -0.0002 -0.0003
 -0.0002 -0.0002 -0.0003
  0.0006 -0.0005 -0.0010
  0.0020 -0.0022 -0.0033
 Enter nber and list of atoms to keep of mol #2
 keep list:          47           1           2           3           4
           5           6           7           8           9          10
          11          12          13          14          15          16
          17          18          19          20          21          22
          23          24          25          26          27          28
          29          30          31          32          33          34
          35          36          37          38          39          40
          41          42          43          44          45          46
          47
 reordering atoms
           1  -3.65126220648539     
           2  -2.25057120343991     
           3  -1.63972666576798     
           4  -2.40571624889647     
           5  -3.81946581676139     
           6  -4.42480379922204     
           7  -4.90459346623669     
[...]
 nber times 1st assigned=          21           0
 nber times 1st assigned=          22           0
 nber times 1st assigned=          23           0
 nber times 1st assigned=          24           0
 nber times 1st assigned=          25           0
 nber times 1st assigned=          26           0
 nber times 1st assigned=          27           0
 nber times 1st assigned=          28           0
 nber times 1st assigned=          29           0
 nber times 1st assigned=          30           0
 nber times 1st assigned=          31           0
 nber times 1st assigned=          32           0
 nber times 1st assigned=          33           0
 nber times 1st assigned=          34           0
 nber times 1st assigned=          35           0
 nber times 1st assigned=          36           0
 nber times 1st assigned=          37           0
 nber times 1st assigned=          38           0
 nber times 1st assigned=          39           0
 nber times 1st assigned=          40           0
 nber times 1st assigned=          41           0
 nber times 1st assigned=          42           0
 nber times 1st assigned=          43           0
 nber times 1st assigned=          44           0
 nber times 1st assigned=          45           0
 nber times 1st assigned=          46           0
 nber times 1st assigned=          47           0
 nber times 1st assigned=          48           0
 nber times 1st assigned=          49           0
 nber times 1st assigned=          50           0
 nber times 1st assigned=          51           0
 nber times 1st assigned=          52           0
 nber times 1st assigned=          53           0
 nber times 1st assigned=          54           0
 nber times 1st assigned=          55           0
 nber times 1st assigned=          56           0
 nber times 1st assigned=          57           0
 nber times 1st assigned=          58           0
 nber times 1st assigned=          59           0
 nber times 1st assigned=          60           0
 nber times 1st assigned=          61           0
 nber times 1st assigned=          62           0
 nber times 1st assigned=          63           0
 nber times 1st assigned=          64           0
 nber times 1st assigned=          65           0
 nber times 1st assigned=          66           0
 nber times 1st assigned=          67           0
 nber times 1st assigned=          68           0
 nber times 1st assigned=          69           0
 nber times 1st assigned=          70           0
 nber times 1st assigned=          71           0
 nber times 1st assigned=          72           0
 nber times 1st assigned=          73           0
 nber times 1st assigned=          74           0
 nber times 1st assigned=          75           0
 nber times 1st assigned=          76           0
 nber times 1st assigned=          77           0
 nber times 1st assigned=          78           0
 nber times 1st assigned=          79           0
 nber times 1st assigned=          80           0
 nber times 1st assigned=          81           0
 nber times 1st assigned=          82           0
 nber times 1st assigned=          83           0
 nber times 1st assigned=          84           0
 nber times 1st assigned=          85           0
 nber times 1st assigned=          86           0
 nber times 1st assigned=          87           0
 nber times 1st assigned=          88           0
 nber times 1st assigned=          89           0
 nber times 1st assigned=          90           0
 nber times 1st assigned=          91           0
 nber times 1st assigned=          92           0
 nber times 1st assigned=          93           0
 nber times 1st assigned=          94           0
 nber times 1st assigned=          95           0
 nber times 1st assigned=          96           0
 nber times 1st assigned=          97           0
 nber times 1st assigned=          98           0
 nber times 1st assigned=          99           0
 nber times 1st assigned=         100           0
 nber times 1st assigned=         101           0
 nber times 1st assigned=         102           0
 nber times 1st assigned=         103           0
 nber times 1st assigned=         104           0
 nber times 1st assigned=         105           0
 nber times 1st assigned=         106           0
 nber times 1st assigned=         107           0
 nber times 1st assigned=         108           0
 nber times 1st assigned=         109           0
 nber times 1st assigned=         110           0
 nber times 1st assigned=         111           0
 nber times 1st assigned=         112           0
 nber times 1st assigned=         113           0
 nber times 1st assigned=         114           0
 nber times 1st assigned=         115           0
 nber times 1st assigned=         116           0
 nber times 1st assigned=         117           0
 nber times 1st assigned=         118           0
 nber times 1st assigned=         119           0
 nber times 1st assigned=         120           0
 nber times 1st assigned=         121           0
 nber times 1st assigned=         122           0
 nber times 1st assigned=         123           0
 nber times 1st assigned=         124           0
 nber times 1st assigned=         125           0
 nber times 1st assigned=         126           0
 nber times 1st assigned=         127           0
 nber times 1st assigned=         128           0
 nber times 1st assigned=         129           0
 nber times 1st assigned=         130           0
 nber times 1st assigned=         131           0
 nber times 1st assigned=         132           0
 nber times 1st assigned=         133           0
 nber times 1st assigned=         134           0
 nber times 1st assigned=         135           0
 nber times 1st assigned=         136           0
 nber times 1st assigned=         137           0
 nber times 1st assigned=         138           0
 nber times 1st assigned=         139           0
 nber times 1st assigned=         140           0
 nber times 1st assigned=         141           0
 modes represented=   141.763863906041     
 p1=
    0.    0.    0.   -0.   -0.   -0.   -8. -313.    3. -220.    0.    0.   16.   41.    0.   33.   -0.   -0.    0.   -0.
  -10.  -10.    6.   -0.    0.   -0.   -3.   -1.    8.    0.   -7.    0.   -0.   -0.   -3.  -11.    0.   -0.   -0.    2.
    3.   -2.    0.   -1.   -0.   -0.   -4.   -0.   -0.   -1.    0.   -0.   -1.   -2.   -0.   -1.    0.    0.   -4.   -5.
   -0.    0.   -2.    0.    0.    0.   -1.    0.   -0.    0.    0.    0.   -0.    0.    0.    2.   -1.   -0.    0.   -0.
   -3.   -2.    0.   -0.    1.    2.   -0.   -0.   -0.   -1.   -0.   -0.    4.   -0.   -0.    2.    0.    0.    0.   -2.
    1.    1.    0.    0.   -0.    3.    0.    1.   -0.    1.    0.    0.   -0.    4.    0.    2.   -0.    0.   -1.    0.
   -2.    0.    0.    4.   -0.    0.   -0.   -0.    0.    0.   -0.   -0.   -0.   -0.   -0.    0.    0.   -0.    0.   -0.
    0.
 p2=
    0.   -0.    0.    0.    0.    0.   -4. -314.   -2.  147.    0.    0.   11.  -12.    0.    7.    0.    0.    0.   -0.
    3.   -9.  -15.    0.   -0.    0.   -6.  -12.   -0.   -2.   -0.   -1.   -0.    0.   -0.   -2.    4.    0.    0.   -2.
   -4.    3.    0.   -0.    0.    0.   -1.    0.   -0.    3.    0.    0.    0.   -1.   -1.   -0.    0.   -0.    0.    0.
    0.    2.    4.    0.    0.    0.    0.    0.    0.    0.   -1.   -0.   -2.   -0.    3.    1.    0.    0.    4.   -0.
   -0.   -1.    0.   -1.   -0.   -2.   -0.    0.    0.   -0.    2.    0.   -0.    3.   -2.   -0.   -2.    0.    0.    2.
    0.   -1.   -0.    1.    0.   -3.    0.   -0.   -0.    0.    1.   -0.    1.    0.    2.   -2.   -0.    0.    1.    0.
   -2.    0.   -3.    3.    0.    0.   -0.   -0.    0.   -0.    0.    0.    0.   -0.   -0.   -0.    0.   -0.   -0.   -0.
   -0.

 Displacement: in terms of nc of 1 THEN of nc of 2

   1     freq=    -0. Q=  0.000 lam=    -0.0     freq=    -0. Q=  0.000 lam=    -0.0
   2     freq=    -0. Q=  0.000 lam=    -0.0     freq=    -0. Q=  0.000 lam=    -0.0
   3     freq=    -0. Q=  0.000 lam=    -0.0     freq=    -0. Q=  0.000 lam=    -0.0
   4     freq=    -0. Q= -0.000 lam=    -0.0     freq=     0. Q= -0.000 lam=     0.0
   5     freq=     0. Q= -0.000 lam=     0.0     freq=     0. Q= -0.000 lam=     0.0
   6     freq=     0. Q= -0.000 lam=     0.0     freq=     0. Q= -0.000 lam=     0.0
   7     freq=    21. Q= -0.151 lam=     0.2     freq=    29. Q= -0.077 lam=     0.1
   8     freq=    28. Q= -6.708 lam=   634.4     freq=    31. Q= -6.993 lam=   746.1
   9     freq=    32. Q=  0.057 lam=     0.1     freq=    32. Q=  0.043 lam=     0.0
  10     freq=    54. Q= -6.515 lam=  1144.1     freq=    58. Q= -4.504 lam=   587.0
  11     freq=    91. Q=  0.002 lam=     0.0     freq=    93. Q=  0.007 lam=     0.0
  12     freq=   112. Q=  0.019 lam=     0.0     freq=   101. Q=  0.002 lam=     0.0
  13     freq=   139. Q=  0.776 lam=    41.7     freq=   148. Q=  0.541 lam=    21.6
  14     freq=   155. Q=  2.040 lam=   323.5     freq=   151. Q=  0.588 lam=    26.2
  15     freq=   159. Q=  0.014 lam=     0.0     freq=   157. Q=  0.008 lam=     0.0
  16     freq=   205. Q=  1.898 lam=   369.7     freq=   206. Q=  0.399 lam=    16.4
  17     freq=   207. Q= -0.024 lam=     0.1     freq=   210. Q= -0.002 lam=     0.0
  18     freq=   225. Q= -0.004 lam=     0.0     freq=   224. Q= -0.004 lam=     0.0
  19     freq=   237. Q=  0.007 lam=     0.0     freq=   236. Q=  0.002 lam=     0.0
  20     freq=   258. Q= -0.002 lam=     0.0     freq=   237. Q= -0.000 lam=     0.0
  21     freq=   300. Q= -0.719 lam=    77.5     freq=   267. Q= -0.189 lam=     4.8
  22     freq=   330. Q= -0.725 lam=    86.6     freq=   343. Q= -0.685 lam=    80.6
  23     freq=   355. Q=  0.467 lam=    38.7     freq=   366. Q=  1.171 lam=   251.0
  24     freq=   358. Q= -0.007 lam=     0.0     freq=   382. Q= -0.000 lam=     0.0
  25     freq=   407. Q=  0.002 lam=     0.0     freq=   382. Q=  0.003 lam=     0.0
  26     freq=   409. Q= -0.000 lam=     0.0     freq=   416. Q= -0.001 lam=     0.0
  27     freq=   430. Q= -0.264 lam=    14.9     freq=   424. Q= -0.488 lam=    50.6
  28     freq=   436. Q= -0.072 lam=     1.1     freq=   446. Q= -1.037 lam=   239.7
  29     freq=   436. Q=  0.694 lam=   104.9     freq=   449. Q=  0.001 lam=     0.0
  30     freq=   451. Q=  0.004 lam=     0.0     freq=   455. Q=  0.179 lam=     7.3
  31     freq=   465. Q= -0.608 lam=    86.0     freq=   456. Q= -0.003 lam=     0.0
  32     freq=   478. Q=  0.027 lam=     0.2     freq=   473. Q=  0.068 lam=     1.1
  33     freq=   509. Q= -0.045 lam=     0.5     freq=   493. Q= -0.001 lam=     0.0
  34     freq=   514. Q= -0.021 lam=     0.1     freq=   508. Q= -0.000 lam=     0.0
  35     freq=   515. Q= -0.306 lam=    24.1     freq=   511. Q= -0.036 lam=     0.3
  36     freq=   535. Q= -1.034 lam=   285.7     freq=   512. Q= -0.190 lam=     9.2
  37     freq=   538. Q=  0.008 lam=     0.0     freq=   520. Q=  0.343 lam=    30.5
  38     freq=   542. Q= -0.001 lam=     0.0     freq=   532. Q= -0.001 lam=     0.0
  39     freq=   546. Q= -0.001 lam=     0.0     freq=   544. Q= -0.000 lam=     0.0
  40     freq=   554. Q=  0.213 lam=    12.6     freq=   551. Q=  0.223 lam=    13.7
  41     freq=   583. Q=  0.319 lam=    29.6     freq=   599. Q=  0.347 lam=    36.0
  42     freq=   601. Q= -0.194 lam=    11.3     freq=   605. Q= -0.343 lam=    35.6
  43     freq=   610. Q=  0.001 lam=     0.0     freq=   611. Q=  0.000 lam=     0.0
  44     freq=   667. Q= -0.098 lam=     3.2     freq=   650. Q= -0.000 lam=     0.0
  45     freq=   667. Q= -0.003 lam=     0.0     freq=   663. Q= -0.001 lam=     0.0
  46     freq=   688. Q= -0.000 lam=     0.0     freq=   668. Q= -0.038 lam=     0.5
  47     freq=   701. Q= -0.388 lam=    52.9     freq=   694. Q= -0.057 lam=     1.1
  48     freq=   711. Q= -0.000 lam=     0.0     freq=   698. Q= -0.000 lam=     0.0
  49     freq=   726. Q= -0.001 lam=     0.0     freq=   706. Q= -0.001 lam=     0.0
  50     freq=   732. Q= -0.074 lam=     2.0     freq=   716. Q= -0.361 lam=    46.7
  51     freq=   742. Q=  0.000 lam=     0.0     freq=   716. Q=  0.000 lam=     0.0
  52     freq=   758. Q= -0.003 lam=     0.0     freq=   722. Q= -0.001 lam=     0.0
  53     freq=   760. Q= -0.126 lam=     6.1     freq=   735. Q= -0.000 lam=     0.0
  54     freq=   760. Q= -0.185 lam=    13.1     freq=   755. Q= -0.152 lam=     8.7
  55     freq=   771. Q= -0.000 lam=     0.0     freq=   767. Q= -0.129 lam=     6.3
  56     freq=   777. Q= -0.061 lam=     1.4     freq=   768. Q= -0.002 lam=     0.0
  57     freq=   817. Q=  0.001 lam=     0.0     freq=   773. Q=  0.000 lam=     0.0
  58     freq=   828. Q=  0.005 lam=     0.0     freq=   778. Q=  0.000 lam=     0.0
  59     freq=   828. Q= -0.441 lam=    80.4     freq=   780. Q= -0.027 lam=     0.3
  60     freq=   844. Q= -0.551 lam=   127.9     freq=   817. Q= -0.000 lam=     0.0
  61     freq=   852. Q= -0.001 lam=     0.0     freq=   819. Q= -0.000 lam=     0.0
  62     freq=   863. Q=  0.002 lam=     0.0     freq=   820. Q=  0.267 lam=    29.2
  63     freq=   865. Q= -0.236 lam=    24.1     freq=   844. Q= -0.457 lam=    88.2
  64     freq=   895. Q=  0.000 lam=     0.0     freq=   855. Q=  0.000 lam=     0.0
  65     freq=   907. Q=  0.001 lam=     0.0     freq=   862. Q=  0.001 lam=     0.0
  66     freq=   921. Q=  0.002 lam=     0.0     freq=   865. Q=  0.001 lam=     0.0
  67     freq=   941. Q= -0.073 lam=     2.5     freq=   906. Q= -0.000 lam=     0.0
  68     freq=   941. Q=  0.015 lam=     0.1     freq=   914. Q=  0.000 lam=     0.0
  69     freq=   950. Q= -0.001 lam=     0.0     freq=   936. Q= -0.001 lam=     0.0
  70     freq=   978. Q=  0.012 lam=     0.1     freq=   955. Q=  0.000 lam=     0.0
  71     freq=   978. Q=  0.003 lam=     0.0     freq=   969. Q=  0.077 lam=     2.9
  72     freq=   980. Q=  0.000 lam=     0.0     freq=   970. Q=  0.001 lam=     0.0
  73     freq=   984. Q= -0.000 lam=     0.0     freq=   988. Q= -0.201 lam=    20.0
  74     freq=   992. Q=  0.000 lam=     0.0     freq=   990. Q=  0.011 lam=     0.1
  75     freq=   997. Q=  0.001 lam=     0.0     freq=  1005. Q=  0.337 lam=    57.2
  76     freq=  1015. Q=  0.249 lam=    31.4     freq=  1013. Q=  0.076 lam=     2.9
  77     freq=  1021. Q= -0.162 lam=    13.5     freq=  1013. Q= -0.000 lam=     0.0
  78     freq=  1061. Q= -0.000 lam=     0.0     freq=  1051. Q= -0.000 lam=     0.0
  79     freq=  1065. Q=  0.011 lam=     0.1     freq=  1060. Q=  0.512 lam=   139.1
  80     freq=  1080. Q= -0.000 lam=     0.0     freq=  1077. Q= -0.000 lam=     0.0
  81     freq=  1092. Q= -0.345 lam=    65.1     freq=  1097. Q= -0.016 lam=     0.1
  82     freq=  1105. Q= -0.207 lam=    23.8     freq=  1111. Q= -0.200 lam=    22.3
  83     freq=  1134. Q=  0.001 lam=     0.0     freq=  1137. Q=  0.018 lam=     0.2
  84     freq=  1147. Q= -0.000 lam=     0.0     freq=  1140. Q= -0.141 lam=    11.4
  85     freq=  1152. Q=  0.073 lam=     3.1     freq=  1146. Q=  0.000 lam=     0.0
  86     freq=  1164. Q=  0.236 lam=    32.4     freq=  1156. Q=  0.281 lam=    45.7
  87     freq=  1172. Q= -0.018 lam=     0.2     freq=  1172. Q= -0.003 lam=     0.0
  88     freq=  1182. Q= -0.061 lam=     2.2     freq=  1185. Q= -0.053 lam=     1.7
  89     freq=  1186. Q= -0.002 lam=     0.0     freq=  1187. Q= -0.009 lam=     0.0
  90     freq=  1189. Q= -0.189 lam=    21.2     freq=  1193. Q= -0.000 lam=     0.0
  91     freq=  1204. Q= -0.001 lam=     0.0     freq=  1205. Q= -0.219 lam=    28.8
  92     freq=  1221. Q= -0.005 lam=     0.0     freq=  1212. Q= -0.006 lam=     0.0
  93     freq=  1252. Q=  0.576 lam=   207.6     freq=  1233. Q=  0.010 lam=     0.1
  94     freq=  1259. Q= -0.002 lam=     0.0     freq=  1253. Q= -0.478 lam=   143.1
  95     freq=  1262. Q= -0.002 lam=     0.0     freq=  1265. Q= -0.305 lam=    58.7
  96     freq=  1266. Q=  0.240 lam=    36.5     freq=  1265. Q=  0.014 lam=     0.1
  97     freq=  1294. Q=  0.027 lam=     0.5     freq=  1279. Q=  0.307 lam=    60.3
  98     freq=  1315. Q=  0.001 lam=     0.0     freq=  1300. Q=  0.014 lam=     0.1
  99     freq=  1326. Q=  0.001 lam=     0.0     freq=  1312. Q=  0.001 lam=     0.0
 100     freq=  1329. Q= -0.253 lam=    42.5     freq=  1316. Q= -0.298 lam=    58.4
 101     freq=  1338. Q=  0.102 lam=     6.9     freq=  1339. Q=  0.001 lam=     0.0
 102     freq=  1340. Q=  0.156 lam=    16.3     freq=  1346. Q=  0.144 lam=    13.9
 103     freq=  1352. Q=  0.060 lam=     2.4     freq=  1357. Q=  0.031 lam=     0.6
 104     freq=  1398. Q=  0.025 lam=     0.4     freq=  1369. Q=  0.115 lam=     9.0
 105     freq=  1405. Q= -0.024 lam=     0.4     freq=  1376. Q= -0.021 lam=     0.3
 106     freq=  1432. Q=  0.396 lam=   112.2     freq=  1383. Q=  0.375 lam=    97.3
 107     freq=  1449. Q=  0.017 lam=     0.2     freq=  1425. Q=  0.043 lam=     1.3
 108     freq=  1465. Q=  0.103 lam=     7.7     freq=  1439. Q=  0.019 lam=     0.3
 109     freq=  1467. Q= -0.000 lam=     0.0     freq=  1447. Q= -0.000 lam=     0.0
 110     freq=  1476. Q=  0.078 lam=     4.5     freq=  1453. Q=  0.033 lam=     0.8
 111     freq=  1486. Q=  0.045 lam=     1.5     freq=  1473. Q=  0.087 lam=     5.6
 112     freq=  1493. Q=  0.001 lam=     0.0     freq=  1478. Q=  0.000 lam=     0.0
 113     freq=  1494. Q= -0.024 lam=     0.4     freq=  1501. Q= -0.158 lam=    18.9
 114     freq=  1519. Q=  0.636 lam=   306.9     freq=  1513. Q=  0.039 lam=     1.1
 115     freq=  1529. Q=  0.038 lam=     1.1     freq=  1515. Q=  0.279 lam=    59.0
 116     freq=  1600. Q=  0.328 lam=    85.9     freq=  1551. Q=  0.356 lam=    98.0
 117     freq=  1604. Q= -0.000 lam=     0.0     freq=  1552. Q= -0.022 lam=     0.4
 118     freq=  1615. Q=  0.000 lam=     0.0     freq=  1569. Q=  0.000 lam=     0.0
 119     freq=  1619. Q= -0.193 lam=    30.2     freq=  1574. Q= -0.117 lam=    10.8
 120     freq=  1622. Q=  0.029 lam=     0.7     freq=  1598. Q=  0.017 lam=     0.2
 121     freq=  1633. Q= -0.389 lam=   123.8     freq=  1603. Q= -0.309 lam=    76.7
 122     freq=  1641. Q=  0.000 lam=     0.0     freq=  1624. Q=  0.001 lam=     0.0
 123     freq=  1643. Q=  0.003 lam=     0.0     freq=  1640. Q=  0.433 lam=   153.9
 124     freq=  1671. Q=  0.616 lam=   317.4     freq=  1646. Q=  0.524 lam=   226.2
 125     freq=  3159. Q= -0.001 lam=     0.0     freq=  3141. Q= -0.006 lam=     0.1
 126     freq=  3160. Q=  0.006 lam=     0.1     freq=  3143. Q=  0.000 lam=     0.0
 127     freq=  3161. Q= -0.019 lam=     0.6     freq=  3143. Q= -0.021 lam=     0.7
 128     freq=  3168. Q= -0.000 lam=     0.0     freq=  3161. Q= -0.000 lam=     0.0
 129     freq=  3168. Q=  0.012 lam=     0.2     freq=  3163. Q=  0.009 lam=     0.1
 130     freq=  3169. Q=  0.000 lam=     0.0     freq=  3164. Q=  0.001 lam=     0.0
 131     freq=  3176. Q= -0.009 lam=     0.1     freq=  3174. Q= -0.003 lam=     0.0
 132     freq=  3176. Q= -0.002 lam=     0.0     freq=  3178. Q= -0.000 lam=     0.0
 133     freq=  3176. Q= -0.016 lam=     0.4     freq=  3178. Q= -0.004 lam=     0.0
 134     freq=  3178. Q= -0.010 lam=     0.1     freq=  3181. Q= -0.000 lam=     0.0
 135     freq=  3178. Q= -0.003 lam=     0.0     freq=  3185. Q= -0.012 lam=     0.2
 136     freq=  3185. Q=  0.017 lam=     0.4     freq=  3194. Q=  0.003 lam=     0.0
 137     freq=  3185. Q=  0.003 lam=     0.0     freq=  3194. Q=  0.000 lam=     0.0
 138     freq=  3192. Q= -0.000 lam=     0.0     freq=  3207. Q= -0.000 lam=     0.0
 139     freq=  3192. Q=  0.009 lam=     0.1     freq=  3207. Q=  0.026 lam=     1.1
 140     freq=  3212. Q= -0.003 lam=     0.0     freq=  3255. Q= -0.011 lam=     0.2
 141     freq=  3213. Q=  0.018 lam=     0.5     freq=  3255. Q=  0.036 lam=     2.1

 total reorg energy (cm**-1, kcal/mol)=     5103.     3771.     14.59     10.78
 Nber of molecules processed=           2
