 Enter ifcurve (0=recti, 1=orth curvi, 2=apprx curvi, -1 = skip
 And atom ordering flag, 0= never changes, 1= use the first order thenceforth,
  2= deduce it (does read on fail), 3= always read it
 Reading file: 
 ./phenothiazine-pyrene_0_C0S0.log                                              
                                          
  Entering Gaussian System, Link 0=g16                                          
  
 Gaussian format, type: g94, g98, g03= F F F
  #P Geom=AllCheck Guess=TCheck SCRF=Check GenChk RB3LYP/6-311G(d,p) Fre    
 energy type= B3LYP   
 Original G94 input coords:
  6 -4.417919  3.781124  0.000000
  6 -3.039224  3.778384  0.000000
  6 -2.323176  2.583921  0.000000
  6 -2.866077  1.276939  0.000000
  6 -4.287120  1.342772  0.000000
  6 -5.015502  2.539908  0.000000
 16 -5.397744  0.000000  0.000000
  6 -4.287120 -1.342772  0.000000
  6 -5.015502 -2.539908  0.000000
  6 -4.417919 -3.781124  0.000000
  6 -3.039224 -3.778384  0.000000
  6 -2.323176 -2.583921  0.000000
  6 -2.866077 -1.276939  0.000000
  7 -2.085574  0.000000  0.000000
  6 -0.592081  0.000000  0.000000
  6  0.225866 -1.162120  0.000000
  6  1.626976 -1.192256  0.000000
  6  2.356402 -2.434487  0.000000
  6  3.716461 -2.452002  0.000000
  6  4.489131 -1.237808  0.000000
  6  5.890635 -1.212447  0.000000
  6  6.576685  0.000000  0.000000
  6  5.890635  1.212447  0.000000
  6  4.489131  1.237808  0.000000
  6  3.716461  2.452002  0.000000
  6  2.356402  2.434487  0.000000
  6  1.626976  1.192256  0.000000
  6  0.225866  1.162120  0.000000
  6  2.370823  0.000000  0.000000
  6  3.787720  0.000000  0.000000
  1 -5.002111  4.692361  0.000000
  1 -2.474444  4.703063  0.000000
  1 -1.288729  2.779346  0.000000
  1 -6.097671  2.460865  0.000000
  1 -6.097671 -2.460865  0.000000
  1 -5.002111 -4.692361  0.000000
  1 -2.474444 -4.703063  0.000000
  1 -1.288729 -2.779346  0.000000
  1 -0.144608 -2.148739  0.000000
  1  1.801969 -3.367641  0.000000
  1  4.247771 -3.398393  0.000000
  1  6.440902 -2.147639  0.000000
  1  7.661103  0.000000  0.000000
  1  6.440902  2.147639  0.000000
  1  4.247771  3.398393  0.000000
  1  1.801969  3.367641  0.000000
  1 -0.144608  2.148739  0.000000
 nber atoms=          47
 Original standard coords:
  6  0.000000  3.781124  4.085229
  6  0.000000  3.778384  2.706535
  6  0.000000  2.583921  1.990487
  6  0.000000  1.276939  2.533388
  6  0.000000  1.342772  3.954431
  6  0.000000  2.539908  4.682813
 16  0.000000  0.000000  5.065055
  6  0.000000 -1.342772  3.954431
  6  0.000000 -2.539908  4.682813
  6  0.000000 -3.781124  4.085229
  6  0.000000 -3.778384  2.706535
  6  0.000000 -2.583921  1.990487
  6  0.000000 -1.276939  2.533388
  7  0.000000  0.000000  1.752885
  6  0.000000  0.000000  0.259392
  6  0.000000 -1.162120 -0.558555
  6  0.000000 -1.192256 -1.959665
  6  0.000000 -2.434487 -2.689092
  6  0.000000 -2.452002 -4.049150
  6  0.000000 -1.237808 -4.821820
  6  0.000000 -1.212447 -6.223324
  6  0.000000  0.000000 -6.909374
  6  0.000000  1.212447 -6.223324
  6  0.000000  1.237808 -4.821820
  6  0.000000  2.452002 -4.049150
  6  0.000000  2.434487 -2.689092
  6  0.000000  1.192256 -1.959665
  6  0.000000  1.162120 -0.558555
  6  0.000000  0.000000 -2.703512
  6  0.000000  0.000000 -4.120409
  1  0.000000  4.692361  4.669422
  1  0.000000  4.703063  2.141754
  1  0.000000  2.779346  0.956040
  1  0.000000  2.460865  5.764982
  1  0.000000 -2.460865  5.764982
  1  0.000000 -4.692361  4.669422
  1  0.000000 -4.703063  2.141754
  1  0.000000 -2.779346  0.956040
  1  0.000000 -2.148739 -0.188081
  1  0.000000 -3.367641 -2.134658
  1  0.000000 -3.398393 -4.580461
  1  0.000000 -2.147639 -6.773591
  1  0.000000  0.000000 -7.993792
  1  0.000000  2.147639 -6.773591
  1  0.000000  3.398393 -4.580461
  1  0.000000  3.367641 -2.134658
  1  0.000000  2.148739 -0.188081
  SCF Done:  E(RB3LYP) =  -1530.38539360     A.U. after    1 cycles             
  
          23          40 "  -1530.38539360"
After scan for Atom:   Atom  AN      X      Y      Z        X      Y      Z        X      Y      Z   
After scan for Atom:   Atom  AN      X      Y      Z        X      Y      Z        X      Y      Z   
After scan for Atom:   Atom  AN      X      Y      Z        X      Y      Z        X      Y      Z   
After scan for Atom:   Atom  AN      X      Y      Z        X      Y      Z        X      Y      Z   
After scan for Atom:   Atom  AN      X      Y      Z        X      Y      Z        X      Y      Z   
After scan for Atom:   Atom  AN      X      Y      Z        X      Y      Z        X      Y      Z   
After scan for Atom:   Atom  AN      X      Y      Z        X      Y      Z        X      Y      Z   
After scan for Atom:   Atom  AN      X      Y      Z        X      Y      Z        X      Y      Z   
After scan for Atom:   Atom  AN      X      Y      Z        X      Y      Z        X      Y      Z   
After scan for Atom:   Atom  AN      X      Y      Z        X      Y      Z        X      Y      Z   
After scan for Atom:   Atom  AN      X      Y      Z        X      Y      Z        X      Y      Z   
After scan for Atom:   Atom  AN      X      Y      Z        X      Y      Z        X      Y      Z   
After scan for Atom:   Atom  AN      X      Y      Z        X      Y      Z        X      Y      Z   
After scan for Atom:   Atom  AN      X      Y      Z        X      Y      Z        X      Y      Z   
After scan for Atom:   Atom  AN      X      Y      Z        X      Y      Z        X      Y      Z   
After scan for Atom:   Atom  AN      X      Y      Z        X      Y      Z        X      Y      Z   
After scan for Atom:   Atom  AN      X      Y      Z        X      Y      Z        X      Y      Z   
After scan for Atom:   Atom  AN      X      Y      Z        X      Y      Z        X      Y      Z   
After scan for Atom:   Atom  AN      X      Y      Z        X      Y      Z        X      Y      Z   
After scan for Atom:   Atom  AN      X      Y      Z        X      Y      Z        X      Y      Z   
After scan for Atom:   Atom  AN      X      Y      Z        X      Y      Z        X      Y      Z   
After scan for Atom:   Atom  AN      X      Y      Z        X      Y      Z        X      Y      Z   
After scan for Atom:   Atom  AN      X      Y      Z        X      Y      Z        X      Y      Z   
After scan for Atom:   Atom  AN      X      Y      Z        X      Y      Z        X      Y      Z   
After scan for Atom:   Atom  AN      X      Y      Z        X      Y      Z        X      Y      Z   
After scan for Atom:   Atom  AN      X      Y      Z        X      Y      Z        X      Y      Z   
After scan for Atom:   Atom  AN      X      Y      Z        X      Y      Z        X      Y      Z   
After scan for Atom:   Atom  AN      X      Y      Z        X      Y      Z        X      Y      Z   
After scan for Atom:   Atom  AN      X      Y      Z        X      Y      Z        X      Y      Z   
After scan for Atom:   Atom  AN      X      Y      Z        X      Y      Z        X      Y      Z   
After scan for Atom:   Atom  AN      X      Y      Z        X      Y      Z        X      Y      Z   
After scan for Atom:   Atom  AN      X      Y      Z        X      Y      Z        X      Y      Z   
After scan for Atom:   Atom  AN      X      Y      Z        X      Y      Z        X      Y      Z   
After scan for Atom:   Atom  AN      X      Y      Z        X      Y      Z        X      Y      Z   
After scan for Atom:   Atom  AN      X      Y      Z        X      Y      Z        X      Y      Z   
After scan for Atom:   Atom  AN      X      Y      Z        X      Y      Z        X      Y      Z   
After scan for Atom:   Atom  AN      X      Y      Z        X      Y      Z        X      Y      Z   
After scan for Atom:   Atom  AN      X      Y      Z        X      Y      Z        X      Y      Z   
After scan for Atom:   Atom  AN      X      Y      Z        X      Y      Z        X      Y      Z   
After scan for Atom:   Atom  AN      X      Y      Z        X      Y      Z        X      Y      Z   
After scan for Atom:   Atom  AN      X      Y      Z        X      Y      Z        X      Y      Z   
After scan for Atom:   Atom  AN      X      Y      Z        X      Y      Z        X      Y      Z   
After scan for Atom:   Atom  AN      X      Y      Z        X      Y      Z        X      Y      Z   
After scan for Atom:   Atom  AN      X      Y      Z        X      Y      Z        X      Y      Z   
After scan for Atom:   Atom  AN      X      Y      Z        X      Y      Z        X      Y      Z   
 g94    frequencies=
     0.0    0.0    0.0    0.0    0.0    0.0 -543.6 -516.6  -70.4  -64.6
   -20.9   83.8   91.8   93.0  157.4  185.4  188.5  201.7  209.3  239.1
   247.3  253.4  336.5  345.0  347.3  355.8  372.9  397.3  398.2  450.9
   472.9  473.8  487.3  492.7  505.1  505.4  521.0  527.8  534.9  541.5
   560.8  575.8  581.0  617.5  640.9  647.7  658.7  663.5  691.8  697.3
   710.6  729.0  733.2  739.6  749.6  751.3  771.3  788.3  805.1  806.3
   824.9  827.6  830.5  838.4  853.2  865.1  906.2  907.4  912.5  937.5
   968.5  969.1  973.9  975.5  986.7 1007.0 1013.7 1055.5 1056.3 1089.1
  1096.7 1102.4 1121.0 1121.9 1134.6 1158.9 1161.0 1170.3 1174.7 1180.3
  1193.2 1205.8 1222.8 1240.1 1252.5 1265.7 1274.6 1286.5 1299.4 1316.3
  1331.8 1359.7 1385.7 1400.5 1412.0 1444.8 1447.4 1459.1 1464.1 1478.2
  1497.9 1503.2 1522.4 1542.7 1554.5 1593.9 1612.2 1627.4 1628.1 1635.6
  1639.6 1641.8 1646.2 1674.2 3151.9 3152.0 3156.8 3157.2 3157.3 3165.3
  3170.9 3171.1 3176.0 3176.1 3181.9 3201.2 3201.3 3447.1 3447.5 3591.1
  3592.3
 g94    symmetries=
                                                A2     B1     B1     A2
      B1     B2     B1     A2     B1     A1     B1     A2     B2     A2
      A1     B1     A2     A1     B2     B1     B1     A2     B2     A1
      B1     B2     B2     A2     B2     A1     A1     B1     A2     B1
      B1     A2     B2     A1     B1     B2     A1     A2     A1     B1
      A2     B1     B2     A2     B1     A1     B1     B2     B1     A2
      A1     A2     B1     A1     B1     B2     B1     A2     A2     A1
      A2     B1     B1     A2     B1     B2     A1     B2     A1     A1
      A1     B2     A1     B2     B2     B2     A1     A1     B2     A1
      B2     B2     A1     B2     B2     A1     B2     A1     A1     B2
      A1     B2     B2     A1     B2     B2     A1     A1     B2     A1
      A1     B2     B2     B2     A1     A1     B2     A1     B2     B2
      A1     A1     B2     A1     B2     A1     A1     B2     A1     B2
      B2     A1     B2     A1     A1     B2     A1     A1     B2     A1
      B2
 atomic masses:
 12.0000 12.0000 12.0000 12.0000 12.0000 12.0000 31.9721 12.0000 12.0000 12.0000
 12.0000 12.0000 12.0000 14.0031 12.0000 12.0000 12.0000 12.0000 12.0000 12.0000
 12.0000 12.0000 12.0000 12.0000 12.0000 12.0000 12.0000 12.0000 12.0000 12.0000
  1.0078  1.0078  1.0078  1.0078  1.0078  1.0078  1.0078  1.0078  1.0078  1.0078
  1.0078  1.0078  1.0078  1.0078  1.0078  1.0078  1.0078
 looking for force constants in 
 ./phenothiazine-pyrene_0_C0S0.fchk                                             
  
 Cartesian Force Constants                  R   N=       10011                  
  
 n3=         141       10011
 g94-fc frequencies=
  -543.6 -516.6  -70.4  -64.6  -20.9   -6.1   -3.7   -2.6   -0.0   -0.0
     0.0   83.8   91.8   93.0  157.4  185.4  188.5  201.7  209.3  239.1
   247.3  253.4  336.5  345.0  347.3  355.8  372.9  397.3  398.3  450.9
   472.9  473.8  487.3  492.7  505.1  505.4  521.0  527.8  534.9  541.5
   560.8  575.8  581.0  617.5  641.0  647.8  658.7  663.5  691.8  697.3
   710.6  729.0  733.2  739.6  749.6  751.3  771.3  788.3  805.2  806.4
   824.9  827.6  830.5  838.4  853.2  865.1  906.2  907.5  912.5  937.5
   968.5  969.1  973.9  975.5  986.7 1007.0 1013.8 1055.5 1056.3 1089.1
  1096.7 1102.4 1121.0 1122.0 1134.6 1158.9 1161.0 1170.3 1174.7 1180.3
  1193.3 1205.9 1222.9 1240.1 1252.5 1265.8 1274.6 1286.5 1299.4 1316.3
  1331.9 1359.7 1385.7 1400.6 1412.0 1444.8 1447.5 1459.2 1464.2 1478.2
  1497.9 1503.2 1522.4 1542.8 1554.6 1594.0 1612.2 1627.5 1628.2 1635.7
  1639.6 1641.8 1646.2 1674.3 3152.0 3152.1 3156.8 3157.3 3157.4 3165.3
  3171.0 3171.2 3176.1 3176.2 3182.0 3201.3 3201.4 3447.2 3447.5 3591.2
  3592.3
 at 99999: n3=         141
 symm operator            1 :  T  nop=           1
 symm operator            2 :  F  nop=           1
 symm operator            3 :  F  nop=           1
 symm operator            4 :  F  nop=           1
 symm operator            5 :  F  nop=           1
 symm operator            6 :  T  nop=           2
 symm operator            7 :  T  nop=           3
 The point group of the molecule is C2V
 enforcing symm op           1  jsymt=          -1          -1           1
 enforcing symm op           6  jsymt=           1          -1           1
 enforcing symm op           7  jsymt=          -1           1           1
 cartesian coord symmetries:
 A1 :   47 A2 :   20 B1 :   27 B2 :   47
 Symmetry rotation matrix:
   1.00000   0.00000   0.00000
   0.00000   1.00000   0.00000
   0.00000   0.00000   1.00000

 Projecting out zero-frequency components
 generating redundant internal coords
         300        3600          47
 search for int coords
   1 str   2   1   1.379
   2 str   3   2   1.393
   3 str   4   3   1.415
   4 str   5   4   1.423
   5 str   6   1   1.378
   6 str   6   5   1.401
   7 str   7   5   1.743
   8 str   8   7   1.743
   9 str   9   8   1.401
  10 str  10   9   1.378
  11 str  11  10   1.379
  12 str  12  11   1.393
  13 str  13   8   1.423
  14 str  13  12   1.415
  15 str  14   4   1.497
  16 str  14  13   1.497
  17 str  15  14   1.493
  18 str  16  15   1.421
  19 str  17  16   1.401
  20 str  18  17   1.441
  21 str  19  18   1.360
  22 str  20  19   1.439
  23 str  21  20   1.402
  24 str  22  21   1.393
  25 str  23  22   1.393
  26 str  24  23   1.402
  27 str  25  24   1.439
  28 str  26  25   1.360
  29 str  27  26   1.441
  30 str  28  15   1.421
  31 str  28  27   1.401
  32 str  29  17   1.405
  33 str  29  27   1.405
  34 str  30  20   1.423
  35 str  30  24   1.423
  36 str  30  29   1.417
  37 str  31   1   1.082
  38 str  32   2   1.084
  39 str  33   3   1.053
  40 str  34   6   1.085
  41 str  35   9   1.085
  42 str  36  10   1.082
  43 str  37  11   1.084
  44 str  38  12   1.053
  45 str  39  16   1.054
  46 str  40  18   1.085
  47 str  41  19   1.085
  48 str  42  21   1.085
  49 str  43  22   1.084
  50 str  44  23   1.085
  51 str  45  25   1.085
  52 str  46  26   1.085
  53 str  47  28   1.054
 nber stretches=          53
  54 ben   1   2   3
  55 prop tor   1   2   3   4
  56 prop tor   1   2   3  33
  57 ben   1   2  32
  58 ben   1   6   5
  59 ben   1   6  34
  60 ben   2   1   6
  61 prop tor   2   1   6   5
  62 prop tor   2   1   6  34
  63 ben   2   1  31
  64 ben   2   3   4
  65 prop tor   2   3   4   5
  66 prop tor   2   3   4  14
  67 ben   2   3  33
  68 ben   3   2  32
  69 ben   3   4   5
  70 prop tor   3   4   5   6
  71 prop tor   3   4   5   7
  72 ben   3   4  14
  73 prop tor   3   4  14  13
  74 prop tor   3   4  14  15
  75 ben   4   3  33
  76 ben   4   5   6
  77 prop tor   4   5   6   1
  78 prop tor   4   5   6  34
  79 ben   4   5   7
  80 prop tor   4   5   7   8
  81 ben   4  14  13
  82 ben   4  14  15
  83 prop tor   4  14  15  16
  84 prop tor   4  14  15  28
  85 ben   5   4  14
  86 prop tor   5   4  14  13
  87 prop tor   5   4  14  15
  88 ben   5   6  34
  89 ben   5   7   8
  90 prop tor   5   7   8   9
  91 prop tor   5   7   8  13
  92 prop tor   6   1   2   3
  93 prop tor   6   1   2  32
  94 ben   6   1  31
  95 ben   6   5   7
  96 prop tor   6   5   7   8
  97 prop tor   7   5   6   1
  98 prop tor   7   5   6  34
  99 ben   7   8   9
 100 prop tor   7   8   9  10
 101 prop tor   7   8   9  35
 102 ben   7   8  13
 103 prop tor   7   8  13  12
 104 prop tor   7   8  13  14
 105 ben   8   9  10
 106 prop tor   8   9  10  11
 107 prop tor   8   9  10  36
 108 ben   8   9  35
 109 ben   8  13  12
 110 ben   8  13  14
 111 prop tor   8  13  14   4
 112 prop tor   8  13  14  15
 113 ben   9   8  13
 114 prop tor   9   8  13  12
 115 prop tor   9   8  13  14
 116 ben   9  10  11
 117 prop tor   9  10  11  12
 118 prop tor   9  10  11  37
 119 ben   9  10  36
 120 ben  10   9  35
 121 ben  10  11  12
 122 prop tor  10  11  12  13
 123 prop tor  10  11  12  38
 124 ben  10  11  37
 125 ben  11  10  36
 126 ben  11  12  13
 127 prop tor  11  12  13   8
 128 prop tor  11  12  13  14
 129 ben  11  12  38
 130 ben  12  11  37
 131 ben  12  13  14
 132 prop tor  12  13  14   4
 133 prop tor  12  13  14  15
 134 prop tor  13   8   9  10
 135 prop tor  13   8   9  35
 136 ben  13  12  38
 137 ben  13  14  15
 138 prop tor  13  14  15  16
 139 prop tor  13  14  15  28
 140 prop tor  14   4   5   6
 141 prop tor  14   4   5   7
 142 ben  14  15  16
 143 prop tor  14  15  16  17
 144 prop tor  14  15  16  39
 145 ben  14  15  28
 146 prop tor  14  15  28  27
 147 prop tor  14  15  28  47
 148 ben  15  16  17
 149 prop tor  15  16  17  18
 150 prop tor  15  16  17  29
 151 ben  15  16  39
 152 ben  15  28  27
 153 ben  15  28  47
 154 ben  16  15  28
 155 prop tor  16  15  28  27
 156 prop tor  16  15  28  47
 157 ben  16  17  18
 158 prop tor  16  17  18  19
 159 prop tor  16  17  18  40
 160 ben  16  17  29
 161 prop tor  16  17  29  27
 162 prop tor  16  17  29  30
 163 ben  17  16  39
 164 ben  17  18  19
 165 prop tor  17  18  19  20
 166 prop tor  17  18  19  41
 167 ben  17  18  40
 168 ben  17  29  27
 169 ben  17  29  30
 170 prop tor  17  29  30  20
 171 prop tor  17  29  30  24
 172 ben  18  17  29
 173 prop tor  18  17  29  27
 174 prop tor  18  17  29  30
 175 ben  18  19  20
 176 prop tor  18  19  20  21
 177 prop tor  18  19  20  30
 178 ben  18  19  41
 179 ben  19  18  40
 180 ben  19  20  21
 181 prop tor  19  20  21  22
 182 prop tor  19  20  21  42
 183 ben  19  20  30
 184 prop tor  19  20  30  24
 185 prop tor  19  20  30  29
 186 ben  20  19  41
 187 ben  20  21  22
 188 prop tor  20  21  22  23
 189 prop tor  20  21  22  43
 190 ben  20  21  42
 191 ben  20  30  24
 192 ben  20  30  29
 193 ben  21  20  30
 194 prop tor  21  20  30  24
 195 prop tor  21  20  30  29
 196 ben  21  22  23
 197 prop tor  21  22  23  24
 198 prop tor  21  22  23  44
 199 ben  21  22  43
 200 ben  22  21  42
 201 ben  22  23  24
 202 prop tor  22  23  24  25
 203 prop tor  22  23  24  30
 204 ben  22  23  44
 205 ben  23  22  43
 206 ben  23  24  25
 207 prop tor  23  24  25  26
 208 prop tor  23  24  25  45
 209 ben  23  24  30
 210 prop tor  23  24  30  20
 211 prop tor  23  24  30  29
 212 ben  24  23  44
 213 ben  24  25  26
 214 prop tor  24  25  26  27
 215 prop tor  24  25  26  46
 216 ben  24  25  45
 217 ben  24  30  29
 218 ben  25  24  30
 219 prop tor  25  24  30  20
 220 prop tor  25  24  30  29
 221 ben  25  26  27
 222 prop tor  25  26  27  28
 223 prop tor  25  26  27  29
 224 ben  25  26  46
 225 ben  26  25  45
 226 ben  26  27  28
 227 prop tor  26  27  28  15
 228 prop tor  26  27  28  47
 229 ben  26  27  29
 230 prop tor  26  27  29  17
 231 prop tor  26  27  29  30
 232 ben  27  26  46
 233 ben  27  28  47
 234 ben  27  29  30
 235 prop tor  27  29  30  20
 236 prop tor  27  29  30  24
 237 prop tor  28  15  16  17
 238 prop tor  28  15  16  39
 239 ben  28  27  29
 240 prop tor  28  27  29  17
 241 prop tor  28  27  29  30
 242 prop tor  29  17  18  19
 243 prop tor  29  17  18  40
 244 prop tor  29  27  28  15
 245 prop tor  29  27  28  47
 246 prop tor  30  20  21  22
 247 prop tor  30  20  21  42
 248 prop tor  30  24  25  26
 249 prop tor  30  24  25  45
 250 prop tor  31   1   2   3
 251 prop tor  31   1   2  32
 252 prop tor  31   1   6   5
 253 prop tor  31   1   6  34
 254 prop tor  32   2   3   4
 255 prop tor  32   2   3  33
 256 prop tor  33   3   4   5
 257 prop tor  33   3   4  14
 258 prop tor  35   9  10  11
 259 prop tor  35   9  10  36
 260 prop tor  36  10  11  12
 261 prop tor  36  10  11  37
 262 prop tor  37  11  12  13
 263 prop tor  37  11  12  38
 264 prop tor  38  12  13   8
 265 prop tor  38  12  13  14
 266 prop tor  39  16  17  18
 267 prop tor  39  16  17  29
 268 prop tor  40  18  19  20
 269 prop tor  40  18  19  41
 270 prop tor  41  19  20  21
 271 prop tor  41  19  20  30
 272 prop tor  42  21  22  23
 273 prop tor  42  21  22  43
 274 prop tor  43  22  23  24
 275 prop tor  43  22  23  44
 276 prop tor  44  23  24  25
 277 prop tor  44  23  24  30
 278 prop tor  45  25  26  27
 279 prop tor  45  25  26  46
 280 prop tor  46  26  27  28
 281 prop tor  46  26  27  29
 nber bend=              88
 nber lin bend=           0
 nber prop tor=         140
 nber impr tor=           0
 nber tot redund int=         281
 Eigenvalues of G in red int coords
    Gval -0.00000000 -0.00000000 -0.00000000 -0.00000000 -0.00000000 -0.00000000 -0.00000000 -0.00000000
    Gval -0.00000000 -0.00000000 -0.00000000 -0.00000000 -0.00000000 -0.00000000 -0.00000000 -0.00000000
    Gval -0.00000000 -0.00000000 -0.00000000 -0.00000000 -0.00000000 -0.00000000 -0.00000000 -0.00000000
    Gval -0.00000000 -0.00000000 -0.00000000 -0.00000000 -0.00000000 -0.00000000 -0.00000000 -0.00000000
    Gval -0.00000000 -0.00000000 -0.00000000 -0.00000000 -0.00000000 -0.00000000 -0.00000000 -0.00000000
    Gval -0.00000000 -0.00000000 -0.00000000 -0.00000000 -0.00000000 -0.00000000 -0.00000000 -0.00000000
    Gval -0.00000000 -0.00000000 -0.00000000 -0.00000000 -0.00000000 -0.00000000 -0.00000000 -0.00000000
    Gval -0.00000000 -0.00000000 -0.00000000 -0.00000000 -0.00000000 -0.00000000 -0.00000000 -0.00000000
    Gval -0.00000000 -0.00000000 -0.00000000 -0.00000000 -0.00000000 -0.00000000 -0.00000000 -0.00000000
    Gval -0.00000000 -0.00000000 -0.00000000 -0.00000000 -0.00000000  0.00000000  0.00000000  0.00000000
    Gval  0.00000000  0.00000000  0.00000000  0.00000000  0.00000000  0.00000000  0.00000000  0.00000000
    Gval  0.00000000  0.00000000  0.00000000  0.00000000  0.00000000  0.00000000  0.00000000  0.00000000
    Gval  0.00000000  0.00000000  0.00000000  0.00000000  0.00000000  0.00000000  0.00000000  0.00000000
    Gval  0.00000000  0.00000000  0.00000000  0.00000000  0.00000000  0.00000000  0.00000000  0.00000000
    Gval  0.00000000  0.00000000  0.00000000  0.00000000  0.00000000  0.00000000  0.00000000  0.00000000
    Gval  0.00000000  0.00000000  0.00000000  0.00000000  0.00000000  0.00000000  0.00000000  0.00000000
    Gval  0.00000000  0.00000000  0.00000000  0.00000000  0.00000000  0.00000000  0.00000000  0.00000000
    Gval  0.00000000  0.00000000  0.00000000  0.00000000  0.00000000  0.00000000  0.00000000  0.00000000
    Gval  0.00000000  0.00000000  0.00000052  0.00000195  0.00000449  0.00000464  0.00000522  0.00000852
    Gval  0.00000985  0.00001706  0.00001948  0.00002074  0.00002263  0.00002451  0.00002456  0.00002809
    Gval  0.00002934  0.00003744  0.00004018  0.00004656  0.00005077  0.00005507  0.00005704  0.00005980
    Gval  0.00006328  0.00006377  0.00006856  0.00007253  0.00007476  0.00007587  0.00007870  0.00007948
    Gval  0.00008356  0.00009295  0.00010273  0.00010371  0.00011402  0.00012099  0.00012336  0.00012417
    Gval  0.00013079  0.00013127  0.00014002  0.00014071  0.00014853  0.00017175  0.00017514  0.00017959
    Gval  0.00019490  0.00020155  0.00020482  0.00020799  0.00024178  0.00026138  0.00026184  0.00028606
    Gval  0.00028641  0.00031460  0.00032108  0.00034189  0.00036909  0.00037019  0.00037142  0.00038597
    Gval  0.00038792  0.00040058  0.00042060  0.00042733  0.00043446  0.00044883  0.00047109  0.00053855
    Gval  0.00059329  0.00059331  0.00059385  0.00059677  0.00059689  0.00059712  0.00059851  0.00060805
    Gval  0.00061839  0.00061867  0.00061995  0.00062521  0.00062722  0.00064207  0.00064642  0.00065643
    Gval  0.00065702  0.00065815  0.00074662  0.00076413  0.00079302  0.00082480  0.00091588  0.00099848
    Gval  0.00105244  0.00106171  0.00106198  0.00106453  0.00108412  0.00108559  0.00113228  0.00113235
    Gval  0.00113892  0.00115882  0.00116012  0.00116464  0.00116672  0.00117907  0.00117913  0.00118414
    Gval  0.00118913  0.00118940  0.00143872  0.00147276  0.00173526  0.00174650  0.00178125  0.00185704
    Gval  0.00193720  0.00214527  0.00230724  0.00241950  0.00261940  0.00270813  0.00276106  0.00310323
    Gval  0.00323212  0.00328699  0.00348363  0.00352205  0.00367784  0.00371328  0.00391850  0.00408620
    Gval  0.00408743
  5.243052164366833E-007  5.243052164366833E-007
  1.945749120599158E-006  5.243052164366833E-007
  4.489152306225970E-006  5.243052164366833E-007
  4.642619969417513E-006  5.243052164366833E-007
  5.223019192433070E-006  5.243052164366833E-007
  8.516387148192366E-006  5.243052164366833E-007
  9.853717992188616E-006  5.243052164366833E-007
  1.706183316002014E-005  5.243052164366833E-007
  1.948069716615005E-005  5.243052164366833E-007
  2.074088740996838E-005  5.243052164366833E-007
  2.263392597184577E-005  5.243052164366833E-007
  2.451237356987627E-005  5.243052164366833E-007
  2.456159817218753E-005  5.243052164366833E-007
  2.809484038643572E-005  5.243052164366833E-007
  2.933666141042687E-005  5.243052164366833E-007
  3.743989293987566E-005  5.243052164366833E-007
  4.017877549356731E-005  5.243052164366833E-007
  4.655908305370344E-005  5.243052164366833E-007
  5.076655864985193E-005  5.243052164366833E-007
  5.506986209043837E-005  5.243052164366833E-007
  5.703515287118996E-005  5.243052164366833E-007
  5.979504415549264E-005  5.243052164366833E-007
  6.328431694906762E-005  5.243052164366833E-007
  6.377426022149294E-005  5.243052164366833E-007
  6.856149589919996E-005  5.243052164366833E-007
  7.253291089755621E-005  5.243052164366833E-007
  7.476282252601456E-005  5.243052164366833E-007
  7.587062083466947E-005  5.243052164366833E-007
  7.869695844911930E-005  5.243052164366833E-007
  7.947931717060917E-005  5.243052164366833E-007
  8.355597583287895E-005  5.243052164366833E-007
  9.295477225468292E-005  5.243052164366833E-007
  1.027303872051472E-004  5.243052164366833E-007
  1.037095272093774E-004  5.243052164366833E-007
  1.140184640896203E-004  5.243052164366833E-007
  1.209929336122143E-004  5.243052164366833E-007
  1.233559808197083E-004  5.243052164366833E-007
  1.241705610852305E-004  5.243052164366833E-007
  1.307922511415482E-004  5.243052164366833E-007
  1.312734756762752E-004  5.243052164366833E-007
  1.400179621386157E-004  5.243052164366833E-007
  1.407118470482613E-004  5.243052164366833E-007
  1.485281829070203E-004  5.243052164366833E-007
  1.717457021562490E-004  5.243052164366833E-007
  1.751386310872086E-004  5.243052164366833E-007
  1.795917561885992E-004  5.243052164366833E-007
  1.948970938498758E-004  5.243052164366833E-007
  2.015479741998257E-004  5.243052164366833E-007
  2.048219700197171E-004  5.243052164366833E-007
  2.079857698280051E-004  5.243052164366833E-007
  2.417795120921034E-004  5.243052164366833E-007
  2.613845634893674E-004  5.243052164366833E-007
  2.618404191603769E-004  5.243052164366833E-007
  2.860618366194277E-004  5.243052164366833E-007
  2.864072569770140E-004  5.243052164366833E-007
  3.146036990298285E-004  5.243052164366833E-007
  3.210755967329402E-004  5.243052164366833E-007
  3.418922131694825E-004  5.243052164366833E-007
  3.690947407973711E-004  5.243052164366833E-007
  3.701937818530721E-004  5.243052164366833E-007
  3.714191315397321E-004  5.243052164366833E-007
  3.859679073221193E-004  5.243052164366833E-007
  3.879210348738007E-004  5.243052164366833E-007
  4.005793399453857E-004  5.243052164366833E-007
  4.205990681608608E-004  5.243052164366833E-007
  4.273309247048119E-004  5.243052164366833E-007
  4.344588898976893E-004  5.243052164366833E-007
  4.488267879208736E-004  5.243052164366833E-007
  4.710909888180263E-004  5.243052164366833E-007
  5.385466113395148E-004  5.243052164366833E-007
  5.932941325058707E-004  5.243052164366833E-007
  5.933096682615422E-004  5.243052164366833E-007
  5.938533213867259E-004  5.243052164366833E-007
  5.967721818099536E-004  5.243052164366833E-007
  5.968876534767907E-004  5.243052164366833E-007
  5.971166479761659E-004  5.243052164366833E-007
  5.985134335560506E-004  5.243052164366833E-007
  6.080525616577030E-004  5.243052164366833E-007
  6.183866978702725E-004  5.243052164366833E-007
  6.186657143800718E-004  5.243052164366833E-007
  6.199493314730277E-004  5.243052164366833E-007
  6.252058168929933E-004  5.243052164366833E-007
  6.272220843326656E-004  5.243052164366833E-007
  6.420669391777722E-004  5.243052164366833E-007
  6.464235347200183E-004  5.243052164366833E-007
  6.564314173764979E-004  5.243052164366833E-007
  6.570201998570191E-004  5.243052164366833E-007
  6.581476824288181E-004  5.243052164366833E-007
  7.466166197650068E-004  5.243052164366833E-007
  7.641342503939681E-004  5.243052164366833E-007
  7.930196344056098E-004  5.243052164366833E-007
  8.247963517116186E-004  5.243052164366833E-007
  9.158818316884962E-004  5.243052164366833E-007
  9.984758210137537E-004  5.243052164366833E-007
  1.052443818159530E-003  5.243052164366833E-007
  1.061714303432104E-003  5.243052164366833E-007
  1.061981337250194E-003  5.243052164366833E-007
  1.064526085154132E-003  5.243052164366833E-007
  1.084119949265771E-003  5.243052164366833E-007
  1.085594981106124E-003  5.243052164366833E-007
  1.132277033440789E-003  5.243052164366833E-007
  1.132345114887148E-003  5.243052164366833E-007
  1.138916041679895E-003  5.243052164366833E-007
  1.158816600852690E-003  5.243052164366833E-007
  1.160115547714703E-003  5.243052164366833E-007
  1.164643190810261E-003  5.243052164366833E-007
  1.166719582314717E-003  5.243052164366833E-007
  1.179067583268039E-003  5.243052164366833E-007
  1.179132349098743E-003  5.243052164366833E-007
  1.184139317523595E-003  5.243052164366833E-007
  1.189130445880479E-003  5.243052164366833E-007
  1.189403500466191E-003  5.243052164366833E-007
  1.438723496569477E-003  5.243052164366833E-007
  1.472762861869060E-003  5.243052164366833E-007
  1.735264839353505E-003  5.243052164366833E-007
  1.746504515194222E-003  5.243052164366833E-007
  1.781245141435359E-003  5.243052164366833E-007
  1.857037848752357E-003  5.243052164366833E-007
  1.937198685339642E-003  5.243052164366833E-007
  2.145270197329947E-003  5.243052164366833E-007
  2.307238754005111E-003  5.243052164366833E-007
  2.419500598108775E-003  5.243052164366833E-007
  2.619403482863090E-003  5.243052164366833E-007
  2.708134704967618E-003  5.243052164366833E-007
  2.761059845669744E-003  5.243052164366833E-007
  3.103225991016731E-003  5.243052164366833E-007
  3.232117591342580E-003  5.243052164366833E-007
  3.286991270908758E-003  5.243052164366833E-007
  3.483627033388419E-003  5.243052164366833E-007
  3.522051938627590E-003  5.243052164366833E-007
  3.677843424923378E-003  5.243052164366833E-007
  3.713284443415700E-003  5.243052164366833E-007
  3.918495298799717E-003  5.243052164366833E-007
  4.086199479601821E-003  5.243052164366833E-007
  4.087432546192474E-003  5.243052164366833E-007
 cut=1d-8, nber non-redundant internal coords=         135
 Check on Eigenvals of non-red overlap matrix:
  0.00000052  0.00000195  0.00000449  0.00000464  0.00000522  0.00000852  0.00000985  0.00001706
  0.00001948  0.00002074  0.00002263  0.00002451  0.00002456  0.00002809  0.00002934  0.00003744
  0.00004018  0.00004656  0.00005077  0.00005507  0.00005704  0.00005980  0.00006328  0.00006377
  0.00006856  0.00007253  0.00007476  0.00007587  0.00007870  0.00007948  0.00008356  0.00009295
  0.00010273  0.00010371  0.00011402  0.00012099  0.00012336  0.00012417  0.00013079  0.00013127
  0.00014002  0.00014071  0.00014853  0.00017175  0.00017514  0.00017959  0.00019490  0.00020155
  0.00020482  0.00020799  0.00024178  0.00026138  0.00026184  0.00028606  0.00028641  0.00031460
  0.00032108  0.00034189  0.00036909  0.00037019  0.00037142  0.00038597  0.00038792  0.00040058
  0.00042060  0.00042733  0.00043446  0.00044883  0.00047109  0.00053855  0.00059329  0.00059331
  0.00059385  0.00059677  0.00059689  0.00059712  0.00059851  0.00060805  0.00061839  0.00061867
  0.00061995  0.00062521  0.00062722  0.00064207  0.00064642  0.00065643  0.00065702  0.00065815
  0.00074662  0.00076413  0.00079302  0.00082480  0.00091588  0.00099848  0.00105244  0.00106171
  0.00106198  0.00106453  0.00108412  0.00108559  0.00113228  0.00113235  0.00113892  0.00115882
  0.00116012  0.00116464  0.00116672  0.00117907  0.00117913  0.00118414  0.00118913  0.00118940
  0.00143872  0.00147276  0.00173526  0.00174650  0.00178125  0.00185704  0.00193720  0.00214527
  0.00230724  0.00241950  0.00261940  0.00270813  0.00276106  0.00310323  0.00323212  0.00328699
  0.00348363  0.00352205  0.00367784  0.00371328  0.00391850  0.00408620  0.00408743
 Checking for correct frequencies
 recalc frequencies=
  -543.6 -516.6  -70.4  -64.6  -20.9   -0.0   -0.0   -0.0    0.0    0.0
     0.0   83.8   91.8   93.0  157.4  185.4  188.5  201.7  209.3  239.1
   247.3  253.4  336.5  345.0  347.3  355.8  372.9  397.3  398.3  450.9
   472.9  473.8  487.3  492.7  505.1  505.4  521.0  527.8  534.9  541.5
   560.8  575.8  581.0  617.5  641.0  647.8  658.7  663.5  691.8  697.3
   710.6  729.0  733.2  739.6  749.6  751.3  771.3  788.3  805.2  806.4
   824.9  827.6  830.5  838.4  853.2  865.1  906.2  907.5  912.5  937.5
   968.5  969.1  973.9  975.5  986.7 1007.0 1013.8 1055.5 1056.3 1089.1
  1096.7 1102.4 1121.0 1122.0 1134.6 1158.9 1161.0 1170.3 1174.7 1180.3
  1193.3 1205.9 1222.9 1240.1 1252.5 1265.8 1274.6 1286.5 1299.4 1316.3
  1331.9 1359.7 1385.7 1400.6 1412.0 1444.8 1447.5 1459.2 1464.2 1478.2
  1497.9 1503.2 1522.4 1542.8 1554.6 1594.0 1612.2 1627.5 1628.2 1635.7
  1639.6 1641.8 1646.2 1674.3 3152.0 3152.1 3156.8 3157.3 3157.4 3165.3
  3171.0 3171.2 3176.1 3176.2 3182.0 3201.3 3201.4 3447.2 3447.5 3591.2
  3592.3
 recalc symmetries=
     A2     B1     B1     A2     B1     B2     B1     B1     A2     B2 
     A1     B2     B1     A2     B1     A1     B1     A2     B2     A2 
     A1     B1     A2     A1     B2     B1     B1     A2     B2     A1 
     B1     B2     B2     A2     B2     A1     A1     B1     A2     B1 
     B1     A2     B2     A1     B1     B2     A1     A2     A1     B1 
     A2     B1     B2     A2     B1     A1     B1     B2     B1     A2 
     A1     A2     B1     A1     B1     B2     B1     A2     A2     A1 
     A2     B1     B1     A2     B1     B2     A1     B2     A1     A1 
     A1     B2     A1     B2     B2     B2     A1     A1     B2     A1 
     B2     B2     A1     B2     B2     A1     B2     A1     A1     B2 
     A1     B2     B2     A1     B2     B2     A1     A1     B2     A1 
     A1     B2     B2     B2     A1     A1     B2     A1     B2     B2 
     A1     A1     B2     A1     B2     A1     A1     B2     A1     B2 
     B2     A1     B2     A1     A1     B2     A1     A1     B2     A1 
     B2 
 recalc freqs check OK
 Zero-point lengths:
 10.6326 10.9076 29.5392 30.8388 54.1730 10.0000 10.0000 10.0000 10.0000 10.0000
 10.0000 27.0767 25.8713 25.7022 19.7572 18.2071 18.0581 17.4577 17.1379 16.0326
 15.7643 15.5722 13.5146 13.3469 13.3029 13.1421 12.8382 12.4369 12.4227 11.6754
 11.4002 11.3891 11.2308 11.1690 11.0304 11.0277 10.8611 10.7910 10.7189 10.6533
 10.4688 10.3310 10.2849  9.9767  9.7923  9.7407  9.6596  9.6243  9.4255  9.3885
  9.3002  9.1820  9.1554  9.1157  9.0550  9.0444  8.9263  8.8296  8.7368  8.7304
  8.6316  8.6173  8.6025  8.5616  8.4872  8.4286  8.2354  8.2296  8.2070  8.0965
  7.9660  7.9635  7.9439  7.9375  7.8923  7.8122  7.7862  7.6306  7.6278  7.5121
  7.4860  7.4665  7.4045  7.4013  7.3598  7.2823  7.2758  7.2467  7.2331  7.2159
  7.1767  7.1392  7.0894  7.0399  7.0048  6.9682  6.9439  6.9117  6.8774  6.8330
  6.7931  6.7232  6.6598  6.6244  6.5975  6.5222  6.5162  6.4900  6.4789  6.4481
  6.4055  6.3941  6.3538  6.3117  6.2877  6.2095  6.1743  6.1453  6.1439  6.1298
  6.1224  6.1183  6.1101  6.0587  4.4157  4.4157  4.4124  4.4120  4.4120  4.4064
  4.4025  4.4024  4.3990  4.3989  4.3949  4.3816  4.3815  4.2224  4.2222  4.1369
  4.1363
 highest evec of mol 1
  0.0000 -0.0000  0.0006
  0.0000  0.0031 -0.0014
  0.0000  0.0277 -0.1275
  0.0000 -0.0041  0.0008
  0.0000  0.0005  0.0011
  0.0000 -0.0004  0.0007
  0.0000 -0.0001  0.0000
  0.0000  0.0005 -0.0011
  0.0000 -0.0004 -0.0007
  0.0000 -0.0000 -0.0006
  0.0000  0.0031  0.0014
  0.0000  0.0277  0.1275
  0.0000 -0.0041 -0.0008
  0.0000  0.0009  0.0000
  0.0000 -0.0051  0.0000
  0.0000  0.1089 -0.0379
  0.0000  0.0014  0.0001
  0.0000  0.0002  0.0002
  0.0000 -0.0002 -0.0000
  0.0000 -0.0000  0.0000
  0.0000 -0.0000  0.0000
  0.0000  0.0000  0.0000
  0.0000 -0.0000 -0.0000
  0.0000 -0.0000 -0.0000
  0.0000 -0.0002  0.0000
  0.0000  0.0002 -0.0002
  0.0000  0.0014 -0.0001
  0.0000  0.1089  0.0379
  0.0000 -0.0008  0.0000
  0.0000  0.0001  0.0000
  0.0000  0.0005  0.0002
  0.0000 -0.0057  0.0036
  0.0000 -0.0469  0.5060
  0.0000  0.0000 -0.0010
  0.0000  0.0000  0.0010
  0.0000  0.0005 -0.0002
  0.0000 -0.0057 -0.0036
  0.0000 -0.0469 -0.5060
  0.0000 -0.4109  0.2062
  0.0000 -0.0016  0.0001
  0.0000  0.0001 -0.0000
  0.0000 -0.0000 -0.0000
  0.0000  0.0000  0.0000
  0.0000 -0.0000  0.0000
  0.0000  0.0001  0.0000
  0.0000 -0.0016 -0.0001
  0.0000 -0.4109 -0.2062
 generating redundant internal coords
         300        3600          47
 Adding extra bonds for z output only
           6           6           6           6           6           6
          16           6           6           6           6           6
           6           7           6           6           6           6
           6           6           6           6           6           6
           6           6           6           6           6           6
           1           1           1           1           1           1
           1           1           1           1           1           1
           1           1           1           1           1
 search for int coords
   1 str   2   1   1.379
   2 str   3   2   1.393
   3 str   4   3   1.415
   4 str   5   4   1.423
   5 str   6   1   1.378
   6 str   6   5   1.401
   7 str   7   5   1.743
   8 str   8   7   1.743
   9 str   9   8   1.401
  10 str  10   9   1.378
  11 str  11  10   1.379
  12 str  12  11   1.393
  13 str  13   8   1.423
  14 str  13  12   1.415
  15 str  14   4   1.497
  16 str  14  13   1.497
  17 str  15  14   1.493
  18 str  16  15   1.421
  19 str  17  16   1.401
  20 str  18  17   1.441
  21 str  19  18   1.360
  22 str  20  19   1.439
  23 str  21  20   1.402
  24 str  22  21   1.393
  25 str  23  22   1.393
  26 str  24  23   1.402
  27 str  25  24   1.439
  28 str  26  25   1.360
  29 str  27  26   1.441
  30 str  28  15   1.421
  31 str  28  27   1.401
  32 str  29  17   1.405
  33 str  29  27   1.405
  34 str  30  20   1.423
  35 str  30  24   1.423
  36 str  30  29   1.417
  37 str  31   1   1.082
  38 str  32   2   1.084
  39 str  33   3   1.053
  40 str  34   6   1.085
  41 str  35   9   1.085
  42 str  36  10   1.082
  43 str  37  11   1.084
  44 str  38  12   1.053
  45 str  39  16   1.054
  46 str  40  18   1.085
  47 str  41  19   1.085
  48 str  42  21   1.085
  49 str  43  22   1.084
  50 str  44  23   1.085
  51 str  45  25   1.085
  52 str  46  26   1.085
  53 str  47  28   1.054
 nber stretches=          53
  54 ben   1   2   3
  55 prop tor   1   2   3   4
  56 prop tor   1   2   3  33
  57 ben   1   2  32
  58 ben   1   6   5
  59 ben   1   6  34
  60 ben   2   1   6
  61 prop tor   2   1   6   5
  62 prop tor   2   1   6  34
  63 ben   2   1  31
  64 ben   2   3   4
  65 prop tor   2   3   4   5
  66 prop tor   2   3   4  14
  67 ben   2   3  33
  68 ben   3   2  32
  69 ben   3   4   5
  70 prop tor   3   4   5   6
  71 prop tor   3   4   5   7
  72 ben   3   4  14
  73 prop tor   3   4  14  13
  74 prop tor   3   4  14  15
  75 ben   4   3  33
  76 ben   4   5   6
  77 prop tor   4   5   6   1
  78 prop tor   4   5   6  34
  79 ben   4   5   7
  80 prop tor   4   5   7   8
  81 ben   4  14  13
  82 ben   4  14  15
  83 prop tor   4  14  15  16
  84 prop tor   4  14  15  28
  85 ben   5   4  14
  86 prop tor   5   4  14  13
  87 prop tor   5   4  14  15
  88 ben   5   6  34
  89 ben   5   7   8
  90 prop tor   5   7   8   9
  91 prop tor   5   7   8  13
  92 prop tor   6   1   2   3
  93 prop tor   6   1   2  32
  94 ben   6   1  31
  95 ben   6   5   7
  96 prop tor   6   5   7   8
  97 prop tor   7   5   6   1
  98 prop tor   7   5   6  34
  99 ben   7   8   9
 100 prop tor   7   8   9  10
 101 prop tor   7   8   9  35
 102 ben   7   8  13
 103 prop tor   7   8  13  12
 104 prop tor   7   8  13  14
 105 ben   8   9  10
 106 prop tor   8   9  10  11
 107 prop tor   8   9  10  36
 108 ben   8   9  35
 109 ben   8  13  12
 110 ben   8  13  14
 111 prop tor   8  13  14   4
 112 prop tor   8  13  14  15
 113 ben   9   8  13
 114 prop tor   9   8  13  12
 115 prop tor   9   8  13  14
 116 ben   9  10  11
 117 prop tor   9  10  11  12
 118 prop tor   9  10  11  37
 119 ben   9  10  36
 120 ben  10   9  35
 121 ben  10  11  12
 122 prop tor  10  11  12  13
 123 prop tor  10  11  12  38
 124 ben  10  11  37
 125 ben  11  10  36
 126 ben  11  12  13
 127 prop tor  11  12  13   8
 128 prop tor  11  12  13  14
 129 ben  11  12  38
 130 ben  12  11  37
 131 ben  12  13  14
 132 prop tor  12  13  14   4
 133 prop tor  12  13  14  15
 134 prop tor  13   8   9  10
 135 prop tor  13   8   9  35
 136 ben  13  12  38
 137 ben  13  14  15
 138 prop tor  13  14  15  16
 139 prop tor  13  14  15  28
 140 prop tor  14   4   5   6
 141 prop tor  14   4   5   7
 142 ben  14  15  16
 143 prop tor  14  15  16  17
 144 prop tor  14  15  16  39
 145 ben  14  15  28
 146 prop tor  14  15  28  27
 147 prop tor  14  15  28  47
 148 ben  15  16  17
 149 prop tor  15  16  17  18
 150 prop tor  15  16  17  29
 151 ben  15  16  39
 152 ben  15  28  27
 153 ben  15  28  47
 154 ben  16  15  28
 155 prop tor  16  15  28  27
 156 prop tor  16  15  28  47
 157 ben  16  17  18
 158 prop tor  16  17  18  19
 159 prop tor  16  17  18  40
 160 ben  16  17  29
 161 prop tor  16  17  29  27
 162 prop tor  16  17  29  30
 163 ben  17  16  39
 164 ben  17  18  19
 165 prop tor  17  18  19  20
 166 prop tor  17  18  19  41
 167 ben  17  18  40
 168 ben  17  29  27
 169 ben  17  29  30
 170 prop tor  17  29  30  20
 171 prop tor  17  29  30  24
 172 ben  18  17  29
 173 prop tor  18  17  29  27
 174 prop tor  18  17  29  30
 175 ben  18  19  20
 176 prop tor  18  19  20  21
 177 prop tor  18  19  20  30
 178 ben  18  19  41
 179 ben  19  18  40
 180 ben  19  20  21
 181 prop tor  19  20  21  22
 182 prop tor  19  20  21  42
 183 ben  19  20  30
 184 prop tor  19  20  30  24
 185 prop tor  19  20  30  29
 186 ben  20  19  41
 187 ben  20  21  22
 188 prop tor  20  21  22  23
 189 prop tor  20  21  22  43
 190 ben  20  21  42
 191 ben  20  30  24
 192 ben  20  30  29
 193 ben  21  20  30
 194 prop tor  21  20  30  24
 195 prop tor  21  20  30  29
 196 ben  21  22  23
 197 prop tor  21  22  23  24
 198 prop tor  21  22  23  44
 199 ben  21  22  43
 200 ben  22  21  42
 201 ben  22  23  24
 202 prop tor  22  23  24  25
 203 prop tor  22  23  24  30
 204 ben  22  23  44
 205 ben  23  22  43
 206 ben  23  24  25
 207 prop tor  23  24  25  26
 208 prop tor  23  24  25  45
 209 ben  23  24  30
 210 prop tor  23  24  30  20
 211 prop tor  23  24  30  29
 212 ben  24  23  44
 213 ben  24  25  26
 214 prop tor  24  25  26  27
 215 prop tor  24  25  26  46
 216 ben  24  25  45
 217 ben  24  30  29
 218 ben  25  24  30
 219 prop tor  25  24  30  20
 220 prop tor  25  24  30  29
 221 ben  25  26  27
 222 prop tor  25  26  27  28
 223 prop tor  25  26  27  29
 224 ben  25  26  46
 225 ben  26  25  45
 226 ben  26  27  28
 227 prop tor  26  27  28  15
 228 prop tor  26  27  28  47
 229 ben  26  27  29
 230 prop tor  26  27  29  17
 231 prop tor  26  27  29  30
 232 ben  27  26  46
 233 ben  27  28  47
 234 ben  27  29  30
 235 prop tor  27  29  30  20
 236 prop tor  27  29  30  24
 237 prop tor  28  15  16  17
 238 prop tor  28  15  16  39
 239 ben  28  27  29
 240 prop tor  28  27  29  17
 241 prop tor  28  27  29  30
 242 prop tor  29  17  18  19
 243 prop tor  29  17  18  40
 244 prop tor  29  27  28  15
 245 prop tor  29  27  28  47
 246 prop tor  30  20  21  22
 247 prop tor  30  20  21  42
 248 prop tor  30  24  25  26
 249 prop tor  30  24  25  45
 250 prop tor  31   1   2   3
 251 prop tor  31   1   2  32
 252 prop tor  31   1   6   5
 253 prop tor  31   1   6  34
 254 prop tor  32   2   3   4
 255 prop tor  32   2   3  33
 256 prop tor  33   3   4   5
 257 prop tor  33   3   4  14
 258 prop tor  35   9  10  11
 259 prop tor  35   9  10  36
 260 prop tor  36  10  11  12
 261 prop tor  36  10  11  37
 262 prop tor  37  11  12  13
 263 prop tor  37  11  12  38
 264 prop tor  38  12  13   8
 265 prop tor  38  12  13  14
 266 prop tor  39  16  17  18
 267 prop tor  39  16  17  29
 268 prop tor  40  18  19  20
 269 prop tor  40  18  19  41
 270 prop tor  41  19  20  21
 271 prop tor  41  19  20  30
 272 prop tor  42  21  22  23
 273 prop tor  42  21  22  43
 274 prop tor  43  22  23  24
 275 prop tor  43  22  23  44
 276 prop tor  44  23  24  25
 277 prop tor  44  23  24  30
 278 prop tor  45  25  26  27
 279 prop tor  45  25  26  46
 280 prop tor  46  26  27  28
 281 prop tor  46  26  27  29
 nber bend=              88
 nber lin bend=           0
 nber prop tor=         140
 nber impr tor=           0
 nber tot redund int=         281
 Reading file: 
 ./phenothiazine-pyrene_0_C-1S0.log                                             
                                          
  Entering Gaussian System, Link 0=g16                                          
  
 Gaussian format, type: g94, g98, g03= F F F
  #P Geom=AllCheck Guess=TCheck SCRF=Check GenChk UB3LYP/6-311G(d,p) Fre    
 energy type= B3LYP   
 Original G94 input coords:
  6 -4.431670  3.784004  0.000000
  6 -3.051305  3.763946  0.000000
  6 -2.350368  2.560410  0.000000
  6 -2.902732  1.258582  0.000000
  6 -4.326562  1.343280  0.000000
  6 -5.043302  2.547611  0.000000
 16 -5.444679  0.000000  0.000000
  6 -4.326562 -1.343280  0.000000
  6 -5.043302 -2.547611  0.000000
  6 -4.431670 -3.784004  0.000000
  6 -3.051305 -3.763946  0.000000
  6 -2.350368 -2.560410  0.000000
  6 -2.902732 -1.258582  0.000000
  7 -2.128022  0.000000  0.000000
  6 -0.586736  0.000000  0.000000
  6  0.212280 -1.169583  0.000000
  6  1.640673 -1.200878  0.000000
  6  2.362602 -2.421209  0.000000
  6  3.746761 -2.440667  0.000000
  6  4.513686 -1.246878  0.000000
  6  5.936502 -1.216836  0.000000
  6  6.611613  0.000000  0.000000
  6  5.936502  1.216836  0.000000
  6  4.513686  1.246878  0.000000
  6  3.746761  2.440667  0.000000
  6  2.362602  2.421209  0.000000
  6  1.640673  1.200878  0.000000
  6  0.212280  1.169583  0.000000
  6  2.385541  0.000000  0.000000
  6  3.808938  0.000000  0.000000
  1 -5.006543  4.702498  0.000000
  1 -2.473329  4.681499  0.000000
  1 -1.310506  2.714362  0.000000
  1 -6.126920  2.478764  0.000000
  1 -6.126920 -2.478764  0.000000
  1 -5.006543 -4.702498  0.000000
  1 -2.473329 -4.681499  0.000000
  1 -1.310506 -2.714362  0.000000
  1 -0.133679 -2.165024  0.000000
  1  1.812711 -3.359311  0.000000
  1  4.271436 -3.392665  0.000000
  1  6.487211 -2.152632  0.000000
  1  7.699454  0.000000  0.000000
  1  6.487211  2.152632  0.000000
  1  4.271436  3.392665  0.000000
  1  1.812711  3.359311  0.000000
  1 -0.133679  2.165024  0.000000
 nber atoms=          47
 Original standard coords:
  6  0.000000  3.784004  4.093805
  6  0.000000  3.763946  2.713441
  6  0.000000  2.560410  2.012503
  6  0.000000  1.258582  2.564867
  6  0.000000  1.343280  3.988697
  6  0.000000  2.547611  4.705437
 16  0.000000  0.000000  5.106814
  6  0.000000 -1.343280  3.988697
  6  0.000000 -2.547611  4.705437
  6  0.000000 -3.784004  4.093805
  6  0.000000 -3.763946  2.713441
  6  0.000000 -2.560410  2.012503
  6  0.000000 -1.258582  2.564867
  7  0.000000  0.000000  1.790157
  6  0.000000  0.000000  0.248871
  6  0.000000 -1.169583 -0.550145
  6  0.000000 -1.200878 -1.978538
  6  0.000000 -2.421209 -2.700467
  6  0.000000 -2.440667 -4.084626
  6  0.000000 -1.246878 -4.851551
  6  0.000000 -1.216836 -6.274367
  6  0.000000  0.000000 -6.949478
  6  0.000000  1.216836 -6.274367
  6  0.000000  1.246878 -4.851551
  6  0.000000  2.440667 -4.084626
  6  0.000000  2.421209 -2.700467
  6  0.000000  1.200878 -1.978538
  6  0.000000  1.169583 -0.550145
  6  0.000000  0.000000 -2.723406
  6  0.000000  0.000000 -4.146803
  1  0.000000  4.702498  4.668678
  1  0.000000  4.681499  2.135465
  1  0.000000  2.714362  0.972641
  1  0.000000  2.478764  5.789055
  1  0.000000 -2.478764  5.789055
  1  0.000000 -4.702498  4.668678
  1  0.000000 -4.681499  2.135465
  1  0.000000 -2.714362  0.972641
  1  0.000000 -2.165024 -0.204186
  1  0.000000 -3.359311 -2.150576
  1  0.000000 -3.392665 -4.609301
  1  0.000000 -2.152632 -6.825076
  1  0.000000  0.000000 -8.037319
  1  0.000000  2.152632 -6.825076
  1  0.000000  3.392665 -4.609301
  1  0.000000  3.359311 -2.150576
  1  0.000000  2.165024 -0.204186
  SCF Done:  E(UB3LYP) =  -1530.40812896     A.U. after    1 cycles             
  
          23          40 "  -1530.40812896"
After scan for Atom:   Atom  AN      X      Y      Z        X      Y      Z        X      Y      Z   
After scan for Atom:   Atom  AN      X      Y      Z        X      Y      Z        X      Y      Z   
After scan for Atom:   Atom  AN      X      Y      Z        X      Y      Z        X      Y      Z   
After scan for Atom:   Atom  AN      X      Y      Z        X      Y      Z        X      Y      Z   
After scan for Atom:   Atom  AN      X      Y      Z        X      Y      Z        X      Y      Z   
After scan for Atom:   Atom  AN      X      Y      Z        X      Y      Z        X      Y      Z   
After scan for Atom:   Atom  AN      X      Y      Z        X      Y      Z        X      Y      Z   
After scan for Atom:   Atom  AN      X      Y      Z        X      Y      Z        X      Y      Z   
After scan for Atom:   Atom  AN      X      Y      Z        X      Y      Z        X      Y      Z   
After scan for Atom:   Atom  AN      X      Y      Z        X      Y      Z        X      Y      Z   
After scan for Atom:   Atom  AN      X      Y      Z        X      Y      Z        X      Y      Z   
After scan for Atom:   Atom  AN      X      Y      Z        X      Y      Z        X      Y      Z   
After scan for Atom:   Atom  AN      X      Y      Z        X      Y      Z        X      Y      Z   
After scan for Atom:   Atom  AN      X      Y      Z        X      Y      Z        X      Y      Z   
After scan for Atom:   Atom  AN      X      Y      Z        X      Y      Z        X      Y      Z   
After scan for Atom:   Atom  AN      X      Y      Z        X      Y      Z        X      Y      Z   
After scan for Atom:   Atom  AN      X      Y      Z        X      Y      Z        X      Y      Z   
After scan for Atom:   Atom  AN      X      Y      Z        X      Y      Z        X      Y      Z   
After scan for Atom:   Atom  AN      X      Y      Z        X      Y      Z        X      Y      Z   
After scan for Atom:   Atom  AN      X      Y      Z        X      Y      Z        X      Y      Z   
After scan for Atom:   Atom  AN      X      Y      Z        X      Y      Z        X      Y      Z   
After scan for Atom:   Atom  AN      X      Y      Z        X      Y      Z        X      Y      Z   
After scan for Atom:   Atom  AN      X      Y      Z        X      Y      Z        X      Y      Z   
After scan for Atom:   Atom  AN      X      Y      Z        X      Y      Z        X      Y      Z   
After scan for Atom:   Atom  AN      X      Y      Z        X      Y      Z        X      Y      Z   
After scan for Atom:   Atom  AN      X      Y      Z        X      Y      Z        X      Y      Z   
After scan for Atom:   Atom  AN      X      Y      Z        X      Y      Z        X      Y      Z   
After scan for Atom:   Atom  AN      X      Y      Z        X      Y      Z        X      Y      Z   
After scan for Atom:   Atom  AN      X      Y      Z        X      Y      Z        X      Y      Z   
After scan for Atom:   Atom  AN      X      Y      Z        X      Y      Z        X      Y      Z   
After scan for Atom:   Atom  AN      X      Y      Z        X      Y      Z        X      Y      Z   
After scan for Atom:   Atom  AN      X      Y      Z        X      Y      Z        X      Y      Z   
After scan for Atom:   Atom  AN      X      Y      Z        X      Y      Z        X      Y      Z   
After scan for Atom:   Atom  AN      X      Y      Z        X      Y      Z        X      Y      Z   
After scan for Atom:   Atom  AN      X      Y      Z        X      Y      Z        X      Y      Z   
After scan for Atom:   Atom  AN      X      Y      Z        X      Y      Z        X      Y      Z   
After scan for Atom:   Atom  AN      X      Y      Z        X      Y      Z        X      Y      Z   
After scan for Atom:   Atom  AN      X      Y      Z        X      Y      Z        X      Y      Z   
After scan for Atom:   Atom  AN      X      Y      Z        X      Y      Z        X      Y      Z   
After scan for Atom:   Atom  AN      X      Y      Z        X      Y      Z        X      Y      Z   
After scan for Atom:   Atom  AN      X      Y      Z        X      Y      Z        X      Y      Z   
After scan for Atom:   Atom  AN      X      Y      Z        X      Y      Z        X      Y      Z   
After scan for Atom:   Atom  AN      X      Y      Z        X      Y      Z        X      Y      Z   
After scan for Atom:   Atom  AN      X      Y      Z        X      Y      Z        X      Y      Z   
After scan for Atom:   Atom  AN      X      Y      Z        X      Y      Z        X      Y      Z   
 g94    frequencies=
     0.0    0.0    0.0    0.0    0.0    0.0 -710.6 -643.8  -76.6  -75.3
   -28.6   52.8   80.5   86.9  155.1  172.4  179.2  187.1  193.4  232.1
   232.5  239.3  278.6  344.8  345.4  346.9  372.0  375.0  397.4  424.9
   446.3  450.4  471.8  480.1  491.2  498.0  500.3  526.7  530.9  538.8
   539.3  554.7  576.3  617.1  628.3  633.4  647.4  658.5  658.6  660.6
   688.8  702.2  706.8  722.3  727.2  728.0  739.2  744.9  784.2  784.7
   785.6  791.2  795.3  822.7  828.8  844.6  870.2  875.7  885.3  887.3
   888.3  890.6  926.1  942.7  943.4  992.8 1000.1 1039.2 1062.1 1086.2
  1087.9 1094.7 1116.4 1121.2 1133.9 1146.3 1153.9 1156.8 1169.6 1175.0
  1180.7 1192.3 1202.4 1223.2 1236.2 1254.3 1277.1 1283.2 1297.4 1303.7
  1322.9 1331.1 1334.0 1365.9 1381.8 1399.3 1408.7 1437.1 1453.3 1461.6
  1477.8 1492.5 1499.4 1504.4 1521.6 1557.4 1571.6 1572.5 1585.7 1614.4
  1619.6 1621.6 1628.4 1643.7 3115.9 3118.0 3118.2 3139.2 3140.9 3143.4
  3143.8 3143.9 3154.1 3162.3 3162.3 3185.5 3185.7 3447.2 3448.7 3596.9
  3597.6
 g94    symmetries=
                                                A2     B1     A2     B1
      B1     A2     B1     B2     B1     A2     A1     B1     B2     A2
      B1     A1     A2     B2     B1     A1     B1     A2     B2     A2
      A1     B1     B2     B2     B1     A1     B2     A1     A2     B1
      A2     B1     B2     A1     B1     A2     B2     A1     B1     A2
      A1     B1     B1     A2     B2     B1     A1     A2     A2     B1
      B2     A2     B1     A1     A1     B1     B2     A2     B1     A2
      B1     A1     B1     A2     B1     A1     B2     A1     B2     A1
      B2     A1     A1     B2     B2     A1     B2     A1     B2     A1
      B2     B2     A1     B2     B2     A1     B2     A1     B2     A1
      B2     B2     A1     A1     B2     A1     B2     B2     A1     B2
      A1     A1     B2     A1     B2     A1     A1     B2     B2     B2
      A1     B2     A1     A1     A1     B2     A1     B2     A1     A1
      B2     B2     A1     B2     A1     B2     A1     B2     A1     B2
      A1
 atomic masses:
 12.0000 12.0000 12.0000 12.0000 12.0000 12.0000 31.9721 12.0000 12.0000 12.0000
 12.0000 12.0000 12.0000 14.0031 12.0000 12.0000 12.0000 12.0000 12.0000 12.0000
 12.0000 12.0000 12.0000 12.0000 12.0000 12.0000 12.0000 12.0000 12.0000 12.0000
  1.0078  1.0078  1.0078  1.0078  1.0078  1.0078  1.0078  1.0078  1.0078  1.0078
  1.0078  1.0078  1.0078  1.0078  1.0078  1.0078  1.0078
 looking for force constants in 
 ./phenothiazine-pyrene_0_C-1S0.fchk                                            
  
 Cartesian Force Constants                  R   N=       10011                  
  
 n3=         141       10011
 g94-fc frequencies=
  -710.7 -643.8  -76.6  -75.3  -28.6   -3.5   -3.1   -2.2   -0.0    0.0
     0.0   52.8   80.5   86.9  155.1  172.4  179.2  187.1  193.4  232.1
   232.5  239.3  278.6  344.8  345.4  346.9  372.0  375.0  397.4  424.9
   446.3  450.4  471.8  480.1  491.2  498.0  500.3  526.7  530.9  538.8
   539.3  554.7  576.3  617.1  628.4  633.5  647.4  658.6  658.6  660.7
   688.8  702.2  706.8  722.3  727.3  728.0  739.2  744.9  784.2  784.7
   785.6  791.2  795.3  822.7  828.8  844.6  870.2  875.7  885.3  887.4
   888.3  890.6  926.1  942.7  943.4  992.8 1000.1 1039.2 1062.2 1086.3
  1087.9 1094.7 1116.4 1121.2 1133.9 1146.3 1153.9 1156.9 1169.6 1175.0
  1180.7 1192.3 1202.5 1223.2 1236.2 1254.4 1277.1 1283.2 1297.4 1303.8
  1323.0 1331.1 1334.0 1366.0 1381.8 1399.3 1408.7 1437.1 1453.3 1461.7
  1477.8 1492.6 1499.4 1504.5 1521.7 1557.5 1571.7 1572.5 1585.7 1614.4
  1619.6 1621.6 1628.4 1643.8 3116.0 3118.1 3118.3 3139.3 3140.9 3143.5
  3143.9 3143.9 3154.2 3162.4 3162.4 3185.6 3185.8 3447.3 3448.8 3597.0
  3597.6
 at 99999: n3=         141
 symm operator            1 :  T  nop=           1
 symm operator            2 :  F  nop=           1
 symm operator            3 :  F  nop=           1
 symm operator            4 :  F  nop=           1
 symm operator            5 :  F  nop=           1
 symm operator            6 :  T  nop=           2
 symm operator            7 :  T  nop=           3
 The point group of the molecule is C2V
 enforcing symm op           1  jsymt=          -1          -1           1
 enforcing symm op           6  jsymt=           1          -1           1
 enforcing symm op           7  jsymt=          -1           1           1
 cartesian coord symmetries:
 A1 :   47 A2 :   20 B1 :   27 B2 :   47
 Symmetry rotation matrix:
   1.00000   0.00000   0.00000
   0.00000   1.00000   0.00000
   0.00000   0.00000   1.00000

 Projecting out zero-frequency components
 generating redundant internal coords
         300        3600          47
 search for int coords
   1 str   2   1   1.381
   2 str   3   2   1.393
   3 str   4   3   1.414
   4 str   5   4   1.426
   5 str   6   1   1.379
   6 str   6   5   1.401
   7 str   7   5   1.748
   8 str   8   7   1.748
   9 str   9   8   1.401
  10 str  10   9   1.379
  11 str  11  10   1.381
  12 str  12  11   1.393
  13 str  13   8   1.426
  14 str  13  12   1.414
  15 str  14   4   1.478
  16 str  14  13   1.478
  17 str  15  14   1.541
  18 str  16  15   1.416
  19 str  17  16   1.429
  20 str  18  17   1.418
  21 str  19  18   1.384
  22 str  20  19   1.419
  23 str  21  20   1.423
  24 str  22  21   1.392
  25 str  23  22   1.392
  26 str  24  23   1.423
  27 str  25  24   1.419
  28 str  26  25   1.384
  29 str  27  26   1.418
  30 str  28  15   1.416
  31 str  28  27   1.429
  32 str  29  17   1.413
  33 str  29  27   1.413
  34 str  30  20   1.432
  35 str  30  24   1.432
  36 str  30  29   1.423
  37 str  31   1   1.084
  38 str  32   2   1.084
  39 str  33   3   1.051
  40 str  34   6   1.086
  41 str  35   9   1.086
  42 str  36  10   1.084
  43 str  37  11   1.084
  44 str  38  12   1.051
  45 str  39  16   1.054
  46 str  39  38   1.299
  47 str  40  18   1.087
  48 str  41  19   1.087
  49 str  42  21   1.086
  50 str  43  22   1.088
  51 str  44  23   1.086
  52 str  45  25   1.087
  53 str  46  26   1.087
  54 str  47  28   1.054
  55 str  47  33   1.299
 nber stretches=          55
  56 ben   1   2   3
  57 prop tor   1   2   3   4
  58 prop tor   1   2   3  33
  59 ben   1   2  32
  60 ben   1   6   5
  61 ben   1   6  34
  62 ben   2   1   6
  63 prop tor   2   1   6   5
  64 prop tor   2   1   6  34
  65 ben   2   1  31
  66 ben   2   3   4
  67 prop tor   2   3   4   5
  68 prop tor   2   3   4  14
  69 ben   2   3  33
  70 prop tor   2   3  33  47
  71 ben   3   2  32
  72 ben   3   4   5
  73 prop tor   3   4   5   6
  74 prop tor   3   4   5   7
  75 ben   3   4  14
  76 prop tor   3   4  14  13
  77 prop tor   3   4  14  15
  78 ben   3  33  47
  79 prop tor   3  33  47  28
  80 ben   4   3  33
  81 prop tor   4   3  33  47
  82 ben   4   5   6
  83 prop tor   4   5   6   1
  84 prop tor   4   5   6  34
  85 ben   4   5   7
  86 prop tor   4   5   7   8
  87 ben   4  14  13
  88 ben   4  14  15
  89 prop tor   4  14  15  16
  90 prop tor   4  14  15  28
  91 ben   5   4  14
  92 prop tor   5   4  14  13
  93 prop tor   5   4  14  15
  94 ben   5   6  34
  95 ben   5   7   8
  96 prop tor   5   7   8   9
  97 prop tor   5   7   8  13
  98 prop tor   6   1   2   3
  99 prop tor   6   1   2  32
 100 ben   6   1  31
 101 ben   6   5   7
 102 prop tor   6   5   7   8
 103 prop tor   7   5   6   1
 104 prop tor   7   5   6  34
 105 ben   7   8   9
 106 prop tor   7   8   9  10
 107 prop tor   7   8   9  35
 108 ben   7   8  13
 109 prop tor   7   8  13  12
 110 prop tor   7   8  13  14
 111 ben   8   9  10
 112 prop tor   8   9  10  11
 113 prop tor   8   9  10  36
 114 ben   8   9  35
 115 ben   8  13  12
 116 ben   8  13  14
 117 prop tor   8  13  14   4
 118 prop tor   8  13  14  15
 119 ben   9   8  13
 120 prop tor   9   8  13  12
 121 prop tor   9   8  13  14
 122 ben   9  10  11
 123 prop tor   9  10  11  12
 124 prop tor   9  10  11  37
 125 ben   9  10  36
 126 ben  10   9  35
 127 ben  10  11  12
 128 prop tor  10  11  12  13
 129 prop tor  10  11  12  38
 130 ben  10  11  37
 131 ben  11  10  36
 132 ben  11  12  13
 133 prop tor  11  12  13   8
 134 prop tor  11  12  13  14
 135 ben  11  12  38
 136 prop tor  11  12  38  39
 137 ben  12  11  37
 138 ben  12  13  14
 139 prop tor  12  13  14   4
 140 prop tor  12  13  14  15
 141 ben  12  38  39
 142 prop tor  12  38  39  16
 143 prop tor  13   8   9  10
 144 prop tor  13   8   9  35
 145 ben  13  12  38
 146 prop tor  13  12  38  39
 147 ben  13  14  15
 148 prop tor  13  14  15  16
 149 prop tor  13  14  15  28
 150 prop tor  14   4   5   6
 151 prop tor  14   4   5   7
 152 ben  14  15  16
 153 prop tor  14  15  16  17
 154 prop tor  14  15  16  39
 155 ben  14  15  28
 156 prop tor  14  15  28  27
 157 prop tor  14  15  28  47
 158 ben  15  16  17
 159 prop tor  15  16  17  18
 160 prop tor  15  16  17  29
 161 ben  15  16  39
 162 prop tor  15  16  39  38
 163 ben  15  28  27
 164 ben  15  28  47
 165 prop tor  15  28  47  33
 166 ben  16  15  28
 167 prop tor  16  15  28  27
 168 prop tor  16  15  28  47
 169 ben  16  17  18
 170 prop tor  16  17  18  19
 171 prop tor  16  17  18  40
 172 ben  16  17  29
 173 prop tor  16  17  29  27
 174 prop tor  16  17  29  30
 175 ben  16  39  38
 176 ben  17  16  39
 177 prop tor  17  16  39  38
 178 ben  17  18  19
 179 prop tor  17  18  19  20
 180 prop tor  17  18  19  41
 181 ben  17  18  40
 182 ben  17  29  27
 183 ben  17  29  30
 184 prop tor  17  29  30  20
 185 prop tor  17  29  30  24
 186 ben  18  17  29
 187 prop tor  18  17  29  27
 188 prop tor  18  17  29  30
 189 ben  18  19  20
 190 prop tor  18  19  20  21
 191 prop tor  18  19  20  30
 192 ben  18  19  41
 193 ben  19  18  40
 194 ben  19  20  21
 195 prop tor  19  20  21  22
 196 prop tor  19  20  21  42
 197 ben  19  20  30
 198 prop tor  19  20  30  24
 199 prop tor  19  20  30  29
 200 ben  20  19  41
 201 ben  20  21  22
 202 prop tor  20  21  22  23
 203 prop tor  20  21  22  43
 204 ben  20  21  42
 205 ben  20  30  24
 206 ben  20  30  29
 207 ben  21  20  30
 208 prop tor  21  20  30  24
 209 prop tor  21  20  30  29
 210 ben  21  22  23
 211 prop tor  21  22  23  24
 212 prop tor  21  22  23  44
 213 ben  21  22  43
 214 ben  22  21  42
 215 ben  22  23  24
 216 prop tor  22  23  24  25
 217 prop tor  22  23  24  30
 218 ben  22  23  44
 219 ben  23  22  43
 220 ben  23  24  25
 221 prop tor  23  24  25  26
 222 prop tor  23  24  25  45
 223 ben  23  24  30
 224 prop tor  23  24  30  20
 225 prop tor  23  24  30  29
 226 ben  24  23  44
 227 ben  24  25  26
 228 prop tor  24  25  26  27
 229 prop tor  24  25  26  46
 230 ben  24  25  45
 231 ben  24  30  29
 232 ben  25  24  30
 233 prop tor  25  24  30  20
 234 prop tor  25  24  30  29
 235 ben  25  26  27
 236 prop tor  25  26  27  28
 237 prop tor  25  26  27  29
 238 ben  25  26  46
 239 ben  26  25  45
 240 ben  26  27  28
 241 prop tor  26  27  28  15
 242 prop tor  26  27  28  47
 243 ben  26  27  29
 244 prop tor  26  27  29  17
 245 prop tor  26  27  29  30
 246 ben  27  26  46
 247 ben  27  28  47
 248 prop tor  27  28  47  33
 249 ben  27  29  30
 250 prop tor  27  29  30  20
 251 prop tor  27  29  30  24
 252 prop tor  28  15  16  17
 253 prop tor  28  15  16  39
 254 ben  28  27  29
 255 prop tor  28  27  29  17
 256 prop tor  28  27  29  30
 257 ben  28  47  33
 258 prop tor  29  17  18  19
 259 prop tor  29  17  18  40
 260 prop tor  29  27  28  15
 261 prop tor  29  27  28  47
 262 prop tor  30  20  21  22
 263 prop tor  30  20  21  42
 264 prop tor  30  24  25  26
 265 prop tor  30  24  25  45
 266 prop tor  31   1   2   3
 267 prop tor  31   1   2  32
 268 prop tor  31   1   6   5
 269 prop tor  31   1   6  34
 270 prop tor  32   2   3   4
 271 prop tor  32   2   3  33
 272 prop tor  33   3   4   5
 273 prop tor  33   3   4  14
 274 prop tor  35   9  10  11
 275 prop tor  35   9  10  36
 276 prop tor  36  10  11  12
 277 prop tor  36  10  11  37
 278 prop tor  37  11  12  13
 279 prop tor  37  11  12  38
 280 prop tor  38  12  13   8
 281 prop tor  38  12  13  14
 282 prop tor  39  16  17  18
 283 prop tor  39  16  17  29
 284 prop tor  40  18  19  20
 285 prop tor  40  18  19  41
 286 prop tor  41  19  20  21
 287 prop tor  41  19  20  30
 288 prop tor  42  21  22  23
 289 prop tor  42  21  22  43
 290 prop tor  43  22  23  24
 291 prop tor  43  22  23  44
 292 prop tor  44  23  24  25
 293 prop tor  44  23  24  30
 294 prop tor  45  25  26  27
 295 prop tor  45  25  26  46
 296 prop tor  46  26  27  28
 297 prop tor  46  26  27  29
 nber bend=              92
 nber lin bend=           0
 nber prop tor=         150
 nber impr tor=           0
 nber tot redund int=         297
 Eigenvalues of G in red int coords
    Gval -0.00000000 -0.00000000 -0.00000000 -0.00000000 -0.00000000 -0.00000000 -0.00000000 -0.00000000
    Gval -0.00000000 -0.00000000 -0.00000000 -0.00000000 -0.00000000 -0.00000000 -0.00000000 -0.00000000
    Gval -0.00000000 -0.00000000 -0.00000000 -0.00000000 -0.00000000 -0.00000000 -0.00000000 -0.00000000
    Gval -0.00000000 -0.00000000 -0.00000000 -0.00000000 -0.00000000 -0.00000000 -0.00000000 -0.00000000
    Gval -0.00000000 -0.00000000 -0.00000000 -0.00000000 -0.00000000 -0.00000000 -0.00000000 -0.00000000
    Gval -0.00000000 -0.00000000 -0.00000000 -0.00000000 -0.00000000 -0.00000000 -0.00000000 -0.00000000
    Gval -0.00000000 -0.00000000 -0.00000000 -0.00000000 -0.00000000 -0.00000000 -0.00000000 -0.00000000
    Gval -0.00000000 -0.00000000 -0.00000000 -0.00000000 -0.00000000 -0.00000000 -0.00000000 -0.00000000
    Gval -0.00000000 -0.00000000 -0.00000000 -0.00000000 -0.00000000 -0.00000000 -0.00000000 -0.00000000
    Gval -0.00000000 -0.00000000 -0.00000000 -0.00000000 -0.00000000 -0.00000000 -0.00000000 -0.00000000
    Gval  0.00000000  0.00000000  0.00000000  0.00000000  0.00000000  0.00000000  0.00000000  0.00000000
    Gval  0.00000000  0.00000000  0.00000000  0.00000000  0.00000000  0.00000000  0.00000000  0.00000000
    Gval  0.00000000  0.00000000  0.00000000  0.00000000  0.00000000  0.00000000  0.00000000  0.00000000
    Gval  0.00000000  0.00000000  0.00000000  0.00000000  0.00000000  0.00000000  0.00000000  0.00000000
    Gval  0.00000000  0.00000000  0.00000000  0.00000000  0.00000000  0.00000000  0.00000000  0.00000000
    Gval  0.00000000  0.00000000  0.00000000  0.00000000  0.00000000  0.00000000  0.00000000  0.00000000
    Gval  0.00000000  0.00000000  0.00000000  0.00000000  0.00000000  0.00000000  0.00000000  0.00000000
    Gval  0.00000000  0.00000000  0.00000000  0.00000000  0.00000000  0.00000000  0.00000000  0.00000000
    Gval  0.00000000  0.00000000  0.00000000  0.00000000  0.00000000  0.00000000  0.00000000  0.00000000
    Gval  0.00000000  0.00000000  0.00000000  0.00000000  0.00000000  0.00000000  0.00000000  0.00000000
    Gval  0.00000000  0.00000000  0.00000184  0.00000354  0.00000710  0.00000780  0.00000944  0.00001106
    Gval  0.00001434  0.00001893  0.00002151  0.00002381  0.00002473  0.00002575  0.00002868  0.00002986
    Gval  0.00003718  0.00004365  0.00005036  0.00005180  0.00005445  0.00005684  0.00006101  0.00006584
    Gval  0.00006647  0.00006937  0.00006956  0.00007516  0.00007903  0.00008228  0.00008312  0.00008695
    Gval  0.00009634  0.00010131  0.00010705  0.00011252  0.00011645  0.00012817  0.00013882  0.00014170
    Gval  0.00014497  0.00015031  0.00015067  0.00015669  0.00015705  0.00017483  0.00018563  0.00019628
    Gval  0.00020804  0.00021139  0.00021383  0.00021407  0.00025154  0.00026362  0.00028658  0.00028826
    Gval  0.00031963  0.00032480  0.00035443  0.00035925  0.00037320  0.00037617  0.00039081  0.00039654
    Gval  0.00040480  0.00041903  0.00042446  0.00043463  0.00043488  0.00045223  0.00047789  0.00054865
    Gval  0.00059382  0.00059421  0.00059422  0.00059772  0.00059906  0.00060741  0.00060770  0.00060787
    Gval  0.00063704  0.00064273  0.00064742  0.00064764  0.00065619  0.00065652  0.00070021  0.00071209
    Gval  0.00080600  0.00081646  0.00088411  0.00090453  0.00096139  0.00100275  0.00100455  0.00105967
    Gval  0.00106915  0.00107150  0.00107176  0.00108336  0.00108451  0.00110398  0.00113721  0.00113799
    Gval  0.00113804  0.00115270  0.00115342  0.00116160  0.00117807  0.00117809  0.00150899  0.00153323
    Gval  0.00180299  0.00186995  0.00191579  0.00194363  0.00196292  0.00226548  0.00231589  0.00231987
    Gval  0.00234565  0.00247974  0.00262212  0.00296899  0.00297908  0.00311953  0.00362076  0.00366311
    Gval  0.00389532  0.00401090  0.00401371  0.00405768  0.00405931  0.00557967  0.00563899  0.03265119
    Gval  0.03266214
  1.840561299938107E-006  1.840561299938107E-006
  3.536803231256666E-006  1.840561299938107E-006
  7.103829372924119E-006  1.840561299938107E-006
  7.804619259096958E-006  1.840561299938107E-006
  9.442164548615558E-006  1.840561299938107E-006
  1.105768729175496E-005  1.840561299938107E-006
  1.433558939627894E-005  1.840561299938107E-006
  1.893466930033046E-005  1.840561299938107E-006
  2.151254528026979E-005  1.840561299938107E-006
  2.381310304663476E-005  1.840561299938107E-006
  2.472769853603238E-005  1.840561299938107E-006
  2.574798380624758E-005  1.840561299938107E-006
  2.868357283604695E-005  1.840561299938107E-006
  2.985689648106866E-005  1.840561299938107E-006
  3.718105715579103E-005  1.840561299938107E-006
  4.365484921410660E-005  1.840561299938107E-006
  5.035950114064840E-005  1.840561299938107E-006
  5.179900986290449E-005  1.840561299938107E-006
  5.444872484467123E-005  1.840561299938107E-006
  5.684236729447468E-005  1.840561299938107E-006
  6.100613262164009E-005  1.840561299938107E-006
  6.583801403047154E-005  1.840561299938107E-006
  6.647077294262690E-005  1.840561299938107E-006
  6.936942862006914E-005  1.840561299938107E-006
  6.955739308760794E-005  1.840561299938107E-006
  7.516352095295434E-005  1.840561299938107E-006
  7.903092286461610E-005  1.840561299938107E-006
  8.227574176266063E-005  1.840561299938107E-006
  8.312307374239740E-005  1.840561299938107E-006
  8.695438526292023E-005  1.840561299938107E-006
  9.634035791611351E-005  1.840561299938107E-006
  1.013113791268880E-004  1.840561299938107E-006
  1.070538987578405E-004  1.840561299938107E-006
  1.125237594345746E-004  1.840561299938107E-006
  1.164519972896226E-004  1.840561299938107E-006
  1.281664623754347E-004  1.840561299938107E-006
  1.388245544699436E-004  1.840561299938107E-006
  1.416989680930864E-004  1.840561299938107E-006
  1.449742214690592E-004  1.840561299938107E-006
  1.503127716114463E-004  1.840561299938107E-006
  1.506704432017985E-004  1.840561299938107E-006
  1.566886176815261E-004  1.840561299938107E-006
  1.570472961852036E-004  1.840561299938107E-006
  1.748314084594860E-004  1.840561299938107E-006
  1.856267276535044E-004  1.840561299938107E-006
  1.962760182393757E-004  1.840561299938107E-006
  2.080400626558612E-004  1.840561299938107E-006
  2.113887622436259E-004  1.840561299938107E-006
  2.138320849163690E-004  1.840561299938107E-006
  2.140748445821538E-004  1.840561299938107E-006
  2.515360437151621E-004  1.840561299938107E-006
  2.636228685657612E-004  1.840561299938107E-006
  2.865827679345071E-004  1.840561299938107E-006
  2.882600832649156E-004  1.840561299938107E-006
  3.196337012810080E-004  1.840561299938107E-006
  3.247997626069219E-004  1.840561299938107E-006
  3.544279359002425E-004  1.840561299938107E-006
  3.592520769389417E-004  1.840561299938107E-006
  3.731966770892568E-004  1.840561299938107E-006
  3.761737644048254E-004  1.840561299938107E-006
  3.908120422334329E-004  1.840561299938107E-006
  3.965378663856341E-004  1.840561299938107E-006
  4.047970798293120E-004  1.840561299938107E-006
  4.190311509468922E-004  1.840561299938107E-006
  4.244567578089478E-004  1.840561299938107E-006
  4.346317831736626E-004  1.840561299938107E-006
  4.348806691357238E-004  1.840561299938107E-006
  4.522336747354101E-004  1.840561299938107E-006
  4.778922097026504E-004  1.840561299938107E-006
  5.486459321737974E-004  1.840561299938107E-006
  5.938155698562839E-004  1.840561299938107E-006
  5.942097240400576E-004  1.840561299938107E-006
  5.942199233676782E-004  1.840561299938107E-006
  5.977156375079364E-004  1.840561299938107E-006
  5.990603034318024E-004  1.840561299938107E-006
  6.074070566587365E-004  1.840561299938107E-006
  6.076963690938974E-004  1.840561299938107E-006
  6.078678539774024E-004  1.840561299938107E-006
  6.370442718320127E-004  1.840561299938107E-006
  6.427331619546874E-004  1.840561299938107E-006
  6.474176369383948E-004  1.840561299938107E-006
  6.476445589371317E-004  1.840561299938107E-006
  6.561909776333502E-004  1.840561299938107E-006
  6.565191454169836E-004  1.840561299938107E-006
  7.002147466251364E-004  1.840561299938107E-006
  7.120902211586544E-004  1.840561299938107E-006
  8.059977985674887E-004  1.840561299938107E-006
  8.164600282822696E-004  1.840561299938107E-006
  8.841136547776926E-004  1.840561299938107E-006
  9.045327226917790E-004  1.840561299938107E-006
  9.613863217955657E-004  1.840561299938107E-006
  1.002753972742556E-003  1.840561299938107E-006
  1.004553584077543E-003  1.840561299938107E-006
  1.059672199676832E-003  1.840561299938107E-006
  1.069153990509320E-003  1.840561299938107E-006
  1.071500971038633E-003  1.840561299938107E-006
  1.071757770900863E-003  1.840561299938107E-006
  1.083355534028152E-003  1.840561299938107E-006
  1.084509123771232E-003  1.840561299938107E-006
  1.103984676813288E-003  1.840561299938107E-006
  1.137205906238459E-003  1.840561299938107E-006
  1.137991920414127E-003  1.840561299938107E-006
  1.138042319863235E-003  1.840561299938107E-006
  1.152695358600696E-003  1.840561299938107E-006
  1.153423792113168E-003  1.840561299938107E-006
  1.161595515758242E-003  1.840561299938107E-006
  1.178074861071393E-003  1.840561299938107E-006
  1.178088001709254E-003  1.840561299938107E-006
  1.508991917285755E-003  1.840561299938107E-006
  1.533225841439714E-003  1.840561299938107E-006
  1.802991290293072E-003  1.840561299938107E-006
  1.869950144909199E-003  1.840561299938107E-006
  1.915792597291924E-003  1.840561299938107E-006
  1.943633742365644E-003  1.840561299938107E-006
  1.962923759890032E-003  1.840561299938107E-006
  2.265479477898204E-003  1.840561299938107E-006
  2.315894423099396E-003  1.840561299938107E-006
  2.319865542975564E-003  1.840561299938107E-006
  2.345654687263784E-003  1.840561299938107E-006
  2.479740296458260E-003  1.840561299938107E-006
  2.622122489169970E-003  1.840561299938107E-006
  2.968993994343296E-003  1.840561299938107E-006
  2.979076278381598E-003  1.840561299938107E-006
  3.119530980418107E-003  1.840561299938107E-006
  3.620757312093206E-003  1.840561299938107E-006
  3.663113525717125E-003  1.840561299938107E-006
  3.895316114033480E-003  1.840561299938107E-006
  4.010898170018199E-003  1.840561299938107E-006
  4.013706838781991E-003  1.840561299938107E-006
  4.057681723103219E-003  1.840561299938107E-006
  4.059313404337492E-003  1.840561299938107E-006
  5.579669261628246E-003  1.840561299938107E-006
  5.638994923153813E-003  1.840561299938107E-006
  3.265119334215241E-002  1.840561299938107E-006
  3.266213846099075E-002  1.840561299938107E-006
 cut=1d-8, nber non-redundant internal coords=         135
 Check on Eigenvals of non-red overlap matrix:
  0.00000184  0.00000354  0.00000710  0.00000780  0.00000944  0.00001106  0.00001434  0.00001893
  0.00002151  0.00002381  0.00002473  0.00002575  0.00002868  0.00002986  0.00003718  0.00004365
  0.00005036  0.00005180  0.00005445  0.00005684  0.00006101  0.00006584  0.00006647  0.00006937
  0.00006956  0.00007516  0.00007903  0.00008228  0.00008312  0.00008695  0.00009634  0.00010131
  0.00010705  0.00011252  0.00011645  0.00012817  0.00013882  0.00014170  0.00014497  0.00015031
  0.00015067  0.00015669  0.00015705  0.00017483  0.00018563  0.00019628  0.00020804  0.00021139
  0.00021383  0.00021407  0.00025154  0.00026362  0.00028658  0.00028826  0.00031963  0.00032480
  0.00035443  0.00035925  0.00037320  0.00037617  0.00039081  0.00039654  0.00040480  0.00041903
  0.00042446  0.00043463  0.00043488  0.00045223  0.00047789  0.00054865  0.00059382  0.00059421
  0.00059422  0.00059772  0.00059906  0.00060741  0.00060770  0.00060787  0.00063704  0.00064273
  0.00064742  0.00064764  0.00065619  0.00065652  0.00070021  0.00071209  0.00080600  0.00081646
  0.00088411  0.00090453  0.00096139  0.00100275  0.00100455  0.00105967  0.00106915  0.00107150
  0.00107176  0.00108336  0.00108451  0.00110398  0.00113721  0.00113799  0.00113804  0.00115270
  0.00115342  0.00116160  0.00117807  0.00117809  0.00150899  0.00153323  0.00180299  0.00186995
  0.00191579  0.00194363  0.00196292  0.00226548  0.00231589  0.00231987  0.00234565  0.00247974
  0.00262212  0.00296899  0.00297908  0.00311953  0.00362076  0.00366311  0.00389532  0.00401090
  0.00401371  0.00405768  0.00405931  0.00557967  0.00563899  0.03265119  0.03266214
 Checking for correct frequencies
 recalc frequencies=
  -710.7 -643.8  -76.6  -75.3  -28.6   -0.0   -0.0   -0.0    0.0    0.0
     0.0   52.8   80.5   86.9  155.1  172.4  179.2  187.1  193.4  232.1
   232.5  239.3  278.6  344.8  345.4  346.9  372.0  375.0  397.4  424.9
   446.3  450.4  471.8  480.1  491.2  498.0  500.3  526.7  530.9  538.8
   539.3  554.7  576.3  617.1  628.4  633.5  647.4  658.6  658.6  660.7
   688.8  702.2  706.8  722.3  727.3  728.0  739.2  744.9  784.2  784.7
   785.6  791.2  795.3  822.7  828.8  844.6  870.2  875.7  885.3  887.4
   888.3  890.6  926.1  942.7  943.4  992.8 1000.1 1039.2 1062.2 1086.3
  1087.9 1094.7 1116.4 1121.2 1133.9 1146.3 1153.9 1156.9 1169.6 1175.0
  1180.7 1192.3 1202.5 1223.2 1236.2 1254.4 1277.1 1283.2 1297.4 1303.8
  1323.0 1331.1 1334.0 1366.0 1381.8 1399.3 1408.7 1437.1 1453.3 1461.7
  1477.8 1492.6 1499.4 1504.5 1521.7 1557.5 1571.7 1572.5 1585.7 1614.4
[...]
  18 str  16  15   1.416
  19 str  17  16   1.429
  20 str  18  17   1.418
  21 str  19  18   1.384
  22 str  20  19   1.419
  23 str  21  20   1.423
  24 str  22  21   1.392
  25 str  23  22   1.392
  26 str  24  23   1.423
  27 str  25  24   1.419
  28 str  26  25   1.384
  29 str  27  26   1.418
  30 str  28  15   1.416
  31 str  28  27   1.429
  32 str  29  17   1.413
  33 str  29  27   1.413
  34 str  30  20   1.432
  35 str  30  24   1.432
  36 str  30  29   1.423
  37 str  31   1   1.084
  38 str  32   2   1.084
  39 str  33   3   1.051
  40 str  34   6   1.086
  41 str  35   9   1.086
  42 str  36  10   1.084
  43 str  37  11   1.084
  44 str  38  12   1.051
  45 str  39  16   1.054
  46 str  39  38   1.299
  47 str  40  18   1.087
  48 str  41  19   1.087
  49 str  42  21   1.086
  50 str  43  22   1.088
  51 str  44  23   1.086
  52 str  45  25   1.087
  53 str  46  26   1.087
  54 str  47  28   1.054
  55 str  47  33   1.299
 nber stretches=          55
  56 ben   1   2   3
  57 prop tor   1   2   3   4
  58 prop tor   1   2   3  33
  59 ben   1   2  32
  60 ben   1   6   5
  61 ben   1   6  34
  62 ben   2   1   6
  63 prop tor   2   1   6   5
  64 prop tor   2   1   6  34
  65 ben   2   1  31
  66 ben   2   3   4
  67 prop tor   2   3   4   5
  68 prop tor   2   3   4  14
  69 ben   2   3  33
  70 prop tor   2   3  33  47
  71 ben   3   2  32
  72 ben   3   4   5
  73 prop tor   3   4   5   6
  74 prop tor   3   4   5   7
  75 ben   3   4  14
  76 prop tor   3   4  14  13
  77 prop tor   3   4  14  15
  78 ben   3  33  47
  79 prop tor   3  33  47  28
  80 ben   4   3  33
  81 prop tor   4   3  33  47
  82 ben   4   5   6
  83 prop tor   4   5   6   1
  84 prop tor   4   5   6  34
  85 ben   4   5   7
  86 prop tor   4   5   7   8
  87 ben   4  14  13
  88 ben   4  14  15
  89 prop tor   4  14  15  16
  90 prop tor   4  14  15  28
  91 ben   5   4  14
  92 prop tor   5   4  14  13
  93 prop tor   5   4  14  15
  94 ben   5   6  34
  95 ben   5   7   8
  96 prop tor   5   7   8   9
  97 prop tor   5   7   8  13
  98 prop tor   6   1   2   3
  99 prop tor   6   1   2  32
 100 ben   6   1  31
 101 ben   6   5   7
 102 prop tor   6   5   7   8
 103 prop tor   7   5   6   1
 104 prop tor   7   5   6  34
 105 ben   7   8   9
 106 prop tor   7   8   9  10
 107 prop tor   7   8   9  35
 108 ben   7   8  13
 109 prop tor   7   8  13  12
 110 prop tor   7   8  13  14
 111 ben   8   9  10
 112 prop tor   8   9  10  11
 113 prop tor   8   9  10  36
 114 ben   8   9  35
 115 ben   8  13  12
 116 ben   8  13  14
 117 prop tor   8  13  14   4
 118 prop tor   8  13  14  15
 119 ben   9   8  13
 120 prop tor   9   8  13  12
 121 prop tor   9   8  13  14
 122 ben   9  10  11
 123 prop tor   9  10  11  12
 124 prop tor   9  10  11  37
 125 ben   9  10  36
 126 ben  10   9  35
 127 ben  10  11  12
 128 prop tor  10  11  12  13
 129 prop tor  10  11  12  38
 130 ben  10  11  37
 131 ben  11  10  36
 132 ben  11  12  13
 133 prop tor  11  12  13   8
 134 prop tor  11  12  13  14
 135 ben  11  12  38
 136 prop tor  11  12  38  39
 137 ben  12  11  37
 138 ben  12  13  14
 139 prop tor  12  13  14   4
 140 prop tor  12  13  14  15
 141 ben  12  38  39
 142 prop tor  12  38  39  16
 143 prop tor  13   8   9  10
 144 prop tor  13   8   9  35
 145 ben  13  12  38
 146 prop tor  13  12  38  39
 147 ben  13  14  15
 148 prop tor  13  14  15  16
 149 prop tor  13  14  15  28
 150 prop tor  14   4   5   6
 151 prop tor  14   4   5   7
 152 ben  14  15  16
 153 prop tor  14  15  16  17
 154 prop tor  14  15  16  39
 155 ben  14  15  28
 156 prop tor  14  15  28  27
 157 prop tor  14  15  28  47
 158 ben  15  16  17
 159 prop tor  15  16  17  18
 160 prop tor  15  16  17  29
 161 ben  15  16  39
 162 prop tor  15  16  39  38
 163 ben  15  28  27
 164 ben  15  28  47
 165 prop tor  15  28  47  33
 166 ben  16  15  28
 167 prop tor  16  15  28  27
 168 prop tor  16  15  28  47
 169 ben  16  17  18
 170 prop tor  16  17  18  19
 171 prop tor  16  17  18  40
 172 ben  16  17  29
 173 prop tor  16  17  29  27
 174 prop tor  16  17  29  30
 175 ben  16  39  38
 176 ben  17  16  39
 177 prop tor  17  16  39  38
 178 ben  17  18  19
 179 prop tor  17  18  19  20
 180 prop tor  17  18  19  41
 181 ben  17  18  40
 182 ben  17  29  27
 183 ben  17  29  30
 184 prop tor  17  29  30  20
 185 prop tor  17  29  30  24
 186 ben  18  17  29
 187 prop tor  18  17  29  27
 188 prop tor  18  17  29  30
 189 ben  18  19  20
 190 prop tor  18  19  20  21
 191 prop tor  18  19  20  30
 192 ben  18  19  41
 193 ben  19  18  40
 194 ben  19  20  21
 195 prop tor  19  20  21  22
 196 prop tor  19  20  21  42
 197 ben  19  20  30
 198 prop tor  19  20  30  24
 199 prop tor  19  20  30  29
 200 ben  20  19  41
 201 ben  20  21  22
 202 prop tor  20  21  22  23
 203 prop tor  20  21  22  43
 204 ben  20  21  42
 205 ben  20  30  24
 206 ben  20  30  29
 207 ben  21  20  30
 208 prop tor  21  20  30  24
 209 prop tor  21  20  30  29
 210 ben  21  22  23
 211 prop tor  21  22  23  24
 212 prop tor  21  22  23  44
 213 ben  21  22  43
 214 ben  22  21  42
 215 ben  22  23  24
 216 prop tor  22  23  24  25
 217 prop tor  22  23  24  30
 218 ben  22  23  44
 219 ben  23  22  43
 220 ben  23  24  25
 221 prop tor  23  24  25  26
 222 prop tor  23  24  25  45
 223 ben  23  24  30
 224 prop tor  23  24  30  20
 225 prop tor  23  24  30  29
 226 ben  24  23  44
 227 ben  24  25  26
 228 prop tor  24  25  26  27
 229 prop tor  24  25  26  46
 230 ben  24  25  45
 231 ben  24  30  29
 232 ben  25  24  30
 233 prop tor  25  24  30  20
 234 prop tor  25  24  30  29
 235 ben  25  26  27
 236 prop tor  25  26  27  28
 237 prop tor  25  26  27  29
 238 ben  25  26  46
 239 ben  26  25  45
 240 ben  26  27  28
 241 prop tor  26  27  28  15
 242 prop tor  26  27  28  47
 243 ben  26  27  29
 244 prop tor  26  27  29  17
 245 prop tor  26  27  29  30
 246 ben  27  26  46
 247 ben  27  28  47
 248 prop tor  27  28  47  33
 249 ben  27  29  30
 250 prop tor  27  29  30  20
 251 prop tor  27  29  30  24
 252 prop tor  28  15  16  17
 253 prop tor  28  15  16  39
 254 ben  28  27  29
 255 prop tor  28  27  29  17
 256 prop tor  28  27  29  30
 257 ben  28  47  33
 258 prop tor  29  17  18  19
 259 prop tor  29  17  18  40
 260 prop tor  29  27  28  15
 261 prop tor  29  27  28  47
 262 prop tor  30  20  21  22
 263 prop tor  30  20  21  42
 264 prop tor  30  24  25  26
 265 prop tor  30  24  25  45
 266 prop tor  31   1   2   3
 267 prop tor  31   1   2  32
 268 prop tor  31   1   6   5
 269 prop tor  31   1   6  34
 270 prop tor  32   2   3   4
 271 prop tor  32   2   3  33
 272 prop tor  33   3   4   5
 273 prop tor  33   3   4  14
 274 prop tor  35   9  10  11
 275 prop tor  35   9  10  36
 276 prop tor  36  10  11  12
 277 prop tor  36  10  11  37
 278 prop tor  37  11  12  13
 279 prop tor  37  11  12  38
 280 prop tor  38  12  13   8
 281 prop tor  38  12  13  14
 282 prop tor  39  16  17  18
 283 prop tor  39  16  17  29
 284 prop tor  40  18  19  20
 285 prop tor  40  18  19  41
 286 prop tor  41  19  20  21
 287 prop tor  41  19  20  30
 288 prop tor  42  21  22  23
 289 prop tor  42  21  22  43
 290 prop tor  43  22  23  24
 291 prop tor  43  22  23  44
 292 prop tor  44  23  24  25
 293 prop tor  44  23  24  30
 294 prop tor  45  25  26  27
 295 prop tor  45  25  26  46
 296 prop tor  46  26  27  28
 297 prop tor  46  26  27  29
 nber bend=              92
 nber lin bend=           0
 nber prop tor=         150
 nber impr tor=           0
 nber tot redund int=         297
 Eigenvalues of G in red int coords
    Gval -0.00000000 -0.00000000 -0.00000000 -0.00000000 -0.00000000 -0.00000000 -0.00000000 -0.00000000
    Gval -0.00000000 -0.00000000 -0.00000000 -0.00000000 -0.00000000 -0.00000000 -0.00000000 -0.00000000
    Gval -0.00000000 -0.00000000 -0.00000000 -0.00000000 -0.00000000 -0.00000000 -0.00000000 -0.00000000
    Gval -0.00000000 -0.00000000 -0.00000000 -0.00000000 -0.00000000 -0.00000000 -0.00000000 -0.00000000
    Gval -0.00000000 -0.00000000 -0.00000000 -0.00000000 -0.00000000 -0.00000000 -0.00000000 -0.00000000
    Gval -0.00000000 -0.00000000 -0.00000000 -0.00000000 -0.00000000 -0.00000000 -0.00000000 -0.00000000
    Gval -0.00000000 -0.00000000 -0.00000000 -0.00000000 -0.00000000 -0.00000000 -0.00000000 -0.00000000
    Gval -0.00000000 -0.00000000 -0.00000000 -0.00000000 -0.00000000 -0.00000000 -0.00000000 -0.00000000
    Gval -0.00000000 -0.00000000 -0.00000000 -0.00000000 -0.00000000 -0.00000000 -0.00000000 -0.00000000
    Gval -0.00000000 -0.00000000 -0.00000000 -0.00000000 -0.00000000 -0.00000000 -0.00000000  0.00000000
    Gval  0.00000000  0.00000000  0.00000000  0.00000000  0.00000000  0.00000000  0.00000000  0.00000000
    Gval  0.00000000  0.00000000  0.00000000  0.00000000  0.00000000  0.00000000  0.00000000  0.00000000
    Gval  0.00000000  0.00000000  0.00000000  0.00000000  0.00000000  0.00000000  0.00000000  0.00000000
    Gval  0.00000000  0.00000000  0.00000000  0.00000000  0.00000000  0.00000000  0.00000000  0.00000000
    Gval  0.00000000  0.00000000  0.00000000  0.00000000  0.00000000  0.00000000  0.00000000  0.00000000
    Gval  0.00000000  0.00000000  0.00000000  0.00000000  0.00000000  0.00000000  0.00000000  0.00000000
    Gval  0.00000000  0.00000000  0.00000000  0.00000000  0.00000000  0.00000000  0.00000000  0.00000000
    Gval  0.00000000  0.00000000  0.00000000  0.00000000  0.00000000  0.00000000  0.00000000  0.00000000
    Gval  0.00000000  0.00000000  0.00000000  0.00000000  0.00000000  0.00000000  0.00000000  0.00000000
    Gval  0.00000000  0.00000000  0.00000000  0.00000000  0.00000000  0.00000000  0.00000000  0.00000000
    Gval  0.00000000  0.00000000  0.00000184  0.00000354  0.00000710  0.00000780  0.00000944  0.00001106
    Gval  0.00001434  0.00001893  0.00002151  0.00002381  0.00002473  0.00002575  0.00002868  0.00002986
    Gval  0.00003718  0.00004365  0.00005036  0.00005180  0.00005445  0.00005684  0.00006101  0.00006584
    Gval  0.00006647  0.00006937  0.00006956  0.00007516  0.00007903  0.00008228  0.00008312  0.00008695
    Gval  0.00009634  0.00010131  0.00010705  0.00011252  0.00011645  0.00012817  0.00013882  0.00014170
    Gval  0.00014497  0.00015031  0.00015067  0.00015669  0.00015705  0.00017483  0.00018563  0.00019628
    Gval  0.00020804  0.00021139  0.00021383  0.00021407  0.00025154  0.00026362  0.00028658  0.00028826
    Gval  0.00031963  0.00032480  0.00035443  0.00035925  0.00037320  0.00037617  0.00039081  0.00039654
    Gval  0.00040480  0.00041903  0.00042446  0.00043463  0.00043488  0.00045223  0.00047789  0.00054865
    Gval  0.00059382  0.00059421  0.00059422  0.00059772  0.00059906  0.00060741  0.00060770  0.00060787
    Gval  0.00063704  0.00064273  0.00064742  0.00064764  0.00065619  0.00065652  0.00070021  0.00071209
    Gval  0.00080600  0.00081646  0.00088411  0.00090453  0.00096139  0.00100275  0.00100455  0.00105967
    Gval  0.00106915  0.00107150  0.00107176  0.00108336  0.00108451  0.00110398  0.00113721  0.00113799
    Gval  0.00113804  0.00115270  0.00115342  0.00116160  0.00117807  0.00117809  0.00150899  0.00153323
    Gval  0.00180299  0.00186995  0.00191579  0.00194363  0.00196292  0.00226548  0.00231589  0.00231987
    Gval  0.00234565  0.00247974  0.00262212  0.00296899  0.00297908  0.00311953  0.00362076  0.00366311
    Gval  0.00389532  0.00401090  0.00401371  0.00405768  0.00405931  0.00557967  0.00563899  0.03265119
    Gval  0.03266214
  1.840561299938077E-006  1.840561299938077E-006
  3.536803231256689E-006  1.840561299938077E-006
  7.103829372923641E-006  1.840561299938077E-006
  7.804619259097045E-006  1.840561299938077E-006
  9.442164548615690E-006  1.840561299938077E-006
  1.105768729175553E-005  1.840561299938077E-006
  1.433558939627886E-005  1.840561299938077E-006
  1.893466930033032E-005  1.840561299938077E-006
  2.151254528027000E-005  1.840561299938077E-006
  2.381310304663469E-005  1.840561299938077E-006
  2.472769853603246E-005  1.840561299938077E-006
  2.574798380624763E-005  1.840561299938077E-006
  2.868357283604733E-005  1.840561299938077E-006
  2.985689648106858E-005  1.840561299938077E-006
  3.718105715579128E-005  1.840561299938077E-006
  4.365484921410676E-005  1.840561299938077E-006
  5.035950114064860E-005  1.840561299938077E-006
  5.179900986290485E-005  1.840561299938077E-006
  5.444872484467123E-005  1.840561299938077E-006
  5.684236729447471E-005  1.840561299938077E-006
  6.100613262164010E-005  1.840561299938077E-006
  6.583801403047150E-005  1.840561299938077E-006
  6.647077294262693E-005  1.840561299938077E-006
  6.936942862006904E-005  1.840561299938077E-006
  6.955739308760805E-005  1.840561299938077E-006
  7.516352095295440E-005  1.840561299938077E-006
  7.903092286461607E-005  1.840561299938077E-006
  8.227574176266062E-005  1.840561299938077E-006
  8.312307374239756E-005  1.840561299938077E-006
  8.695438526292019E-005  1.840561299938077E-006
  9.634035791611338E-005  1.840561299938077E-006
  1.013113791268887E-004  1.840561299938077E-006
  1.070538987578403E-004  1.840561299938077E-006
  1.125237594345751E-004  1.840561299938077E-006
  1.164519972896222E-004  1.840561299938077E-006
  1.281664623754348E-004  1.840561299938077E-006
  1.388245544699436E-004  1.840561299938077E-006
  1.416989680930866E-004  1.840561299938077E-006
  1.449742214690593E-004  1.840561299938077E-006
  1.503127716114475E-004  1.840561299938077E-006
  1.506704432017982E-004  1.840561299938077E-006
  1.566886176815258E-004  1.840561299938077E-006
  1.570472961852045E-004  1.840561299938077E-006
  1.748314084594860E-004  1.840561299938077E-006
  1.856267276535051E-004  1.840561299938077E-006
  1.962760182393757E-004  1.840561299938077E-006
  2.080400626558610E-004  1.840561299938077E-006
  2.113887622436279E-004  1.840561299938077E-006
  2.138320849163690E-004  1.840561299938077E-006
  2.140748445821536E-004  1.840561299938077E-006
  2.515360437151626E-004  1.840561299938077E-006
  2.636228685657617E-004  1.840561299938077E-006
  2.865827679345073E-004  1.840561299938077E-006
  2.882600832649164E-004  1.840561299938077E-006
  3.196337012810084E-004  1.840561299938077E-006
  3.247997626069223E-004  1.840561299938077E-006
  3.544279359002429E-004  1.840561299938077E-006
  3.592520769389464E-004  1.840561299938077E-006
  3.731966770892572E-004  1.840561299938077E-006
  3.761737644048258E-004  1.840561299938077E-006
  3.908120422334335E-004  1.840561299938077E-006
  3.965378663856343E-004  1.840561299938077E-006
  4.047970798293114E-004  1.840561299938077E-006
  4.190311509468919E-004  1.840561299938077E-006
  4.244567578089475E-004  1.840561299938077E-006
  4.346317831736627E-004  1.840561299938077E-006
  4.348806691357246E-004  1.840561299938077E-006
  4.522336747354110E-004  1.840561299938077E-006
  4.778922097026497E-004  1.840561299938077E-006
  5.486459321737994E-004  1.840561299938077E-006
  5.938155698562846E-004  1.840561299938077E-006
  5.942097240400577E-004  1.840561299938077E-006
  5.942199233676784E-004  1.840561299938077E-006
  5.977156375079369E-004  1.840561299938077E-006
  5.990603034318024E-004  1.840561299938077E-006
  6.074070566587371E-004  1.840561299938077E-006
  6.076963690938979E-004  1.840561299938077E-006
  6.078678539774030E-004  1.840561299938077E-006
  6.370442718320129E-004  1.840561299938077E-006
  6.427331619546885E-004  1.840561299938077E-006
  6.474176369383962E-004  1.840561299938077E-006
  6.476445589371320E-004  1.840561299938077E-006
  6.561909776333506E-004  1.840561299938077E-006
  6.565191454169858E-004  1.840561299938077E-006
  7.002147466251396E-004  1.840561299938077E-006
  7.120902211586558E-004  1.840561299938077E-006
  8.059977985674893E-004  1.840561299938077E-006
  8.164600282822699E-004  1.840561299938077E-006
  8.841136547776930E-004  1.840561299938077E-006
  9.045327226917861E-004  1.840561299938077E-006
  9.613863217955687E-004  1.840561299938077E-006
  1.002753972742557E-003  1.840561299938077E-006
  1.004553584077544E-003  1.840561299938077E-006
  1.059672199676833E-003  1.840561299938077E-006
  1.069153990509323E-003  1.840561299938077E-006
  1.071500971038633E-003  1.840561299938077E-006
  1.071757770900863E-003  1.840561299938077E-006
  1.083355534028156E-003  1.840561299938077E-006
  1.084509123771235E-003  1.840561299938077E-006
  1.103984676813291E-003  1.840561299938077E-006
  1.137205906238461E-003  1.840561299938077E-006
  1.137991920414128E-003  1.840561299938077E-006
  1.138042319863237E-003  1.840561299938077E-006
  1.152695358600700E-003  1.840561299938077E-006
  1.153423792113172E-003  1.840561299938077E-006
  1.161595515758243E-003  1.840561299938077E-006
  1.178074861071393E-003  1.840561299938077E-006
  1.178088001709254E-003  1.840561299938077E-006
  1.508991917285759E-003  1.840561299938077E-006
  1.533225841439714E-003  1.840561299938077E-006
  1.802991290293073E-003  1.840561299938077E-006
  1.869950144909203E-003  1.840561299938077E-006
  1.915792597291928E-003  1.840561299938077E-006
  1.943633742365646E-003  1.840561299938077E-006
  1.962923759890034E-003  1.840561299938077E-006
  2.265479477898199E-003  1.840561299938077E-006
  2.315894423099394E-003  1.840561299938077E-006
  2.319865542975562E-003  1.840561299938077E-006
  2.345654687263777E-003  1.840561299938077E-006
  2.479740296458257E-003  1.840561299938077E-006
  2.622122489169982E-003  1.840561299938077E-006
  2.968993994343295E-003  1.840561299938077E-006
  2.979076278381595E-003  1.840561299938077E-006
  3.119530980418108E-003  1.840561299938077E-006
  3.620757312093212E-003  1.840561299938077E-006
  3.663113525717133E-003  1.840561299938077E-006
  3.895316114033488E-003  1.840561299938077E-006
  4.010898170018209E-003  1.840561299938077E-006
  4.013706838782001E-003  1.840561299938077E-006
  4.057681723103213E-003  1.840561299938077E-006
  4.059313404337486E-003  1.840561299938077E-006
  5.579669261628241E-003  1.840561299938077E-006
  5.638994923153806E-003  1.840561299938077E-006
  3.265119334215245E-002  1.840561299938077E-006
  3.266213846099080E-002  1.840561299938077E-006
 cut=1d-8, nber non-redundant internal coords=         135
 Check on Eigenvals of non-red overlap matrix:
  0.00000184  0.00000354  0.00000710  0.00000780  0.00000944  0.00001106  0.00001434  0.00001893
  0.00002151  0.00002381  0.00002473  0.00002575  0.00002868  0.00002986  0.00003718  0.00004365
  0.00005036  0.00005180  0.00005445  0.00005684  0.00006101  0.00006584  0.00006647  0.00006937
  0.00006956  0.00007516  0.00007903  0.00008228  0.00008312  0.00008695  0.00009634  0.00010131
  0.00010705  0.00011252  0.00011645  0.00012817  0.00013882  0.00014170  0.00014497  0.00015031
  0.00015067  0.00015669  0.00015705  0.00017483  0.00018563  0.00019628  0.00020804  0.00021139
  0.00021383  0.00021407  0.00025154  0.00026362  0.00028658  0.00028826  0.00031963  0.00032480
  0.00035443  0.00035925  0.00037320  0.00037617  0.00039081  0.00039654  0.00040480  0.00041903
  0.00042446  0.00043463  0.00043488  0.00045223  0.00047789  0.00054865  0.00059382  0.00059421
  0.00059422  0.00059772  0.00059906  0.00060741  0.00060770  0.00060787  0.00063704  0.00064273
  0.00064742  0.00064764  0.00065619  0.00065652  0.00070021  0.00071209  0.00080600  0.00081646
  0.00088411  0.00090453  0.00096139  0.00100275  0.00100455  0.00105967  0.00106915  0.00107150
  0.00107176  0.00108336  0.00108451  0.00110398  0.00113721  0.00113799  0.00113804  0.00115270
  0.00115342  0.00116160  0.00117807  0.00117809  0.00150899  0.00153323  0.00180299  0.00186995
  0.00191579  0.00194363  0.00196292  0.00226548  0.00231589  0.00231987  0.00234565  0.00247974
  0.00262212  0.00296899  0.00297908  0.00311953  0.00362076  0.00366311  0.00389532  0.00401090
  0.00401371  0.00405768  0.00405931  0.00557967  0.00563899  0.03265119  0.03266214
 int defn changed for coord          46
          40          18           0           0
          39          38           0           0
