 Enter ifcurve (0=recti, 1=orth curvi, 2=apprx curvi, -1 = skip
 And atom ordering flag, 0= never changes, 1= use the first order thenceforth,
  2= deduce it (does read on fail), 3= always read it
 Reading file: 
 ./phenothiazine_0_C0S0.log                                                     
                                          
  Entering Gaussian System, Link 0=g16                                          
  
 Gaussian format, type: g94, g98, g03= F F F
  #P Geom=AllCheck Guess=TCheck SCRF=Check GenChk RB3LYP/6-311G(d,p) Fre    
 energy type= B3LYP   
 Original G94 input coords:
  6 -3.670478  0.706571  0.000000
  6 -3.809726 -0.676686  0.000000
  6 -2.668448 -1.476469  0.000000
  6 -1.394992 -0.913468  0.000000
 16  0.000000 -2.031052  0.000000
  6  1.394992 -0.913468  0.000000
  6  2.668448 -1.476469  0.000000
  6  3.809726 -0.676686  0.000000
  6  3.670478  0.706571  0.000000
  6  2.402045  1.277778  0.000000
  6  1.249269  0.483429  0.000000
  7  0.000000  1.097453  0.000000
  6 -1.249269  0.483429  0.000000
  6 -2.402045  1.277778  0.000000
  1 -4.544115  1.347433  0.000000
  1 -4.790573 -1.135484  0.000000
  1 -2.766617 -2.556459  0.000000
  1  2.766617 -2.556459  0.000000
  1  4.790573 -1.135484  0.000000
  1  4.544115  1.347433  0.000000
  1  2.293358  2.358206  0.000000
  1  0.000000  2.103899  0.000000
  1 -2.293358  2.358206  0.000000
 nber atoms=          23
  SCF Done:  E(RB3LYP) =  -915.790194085     A.U. after    1 cycles             
  
          23          40 "  -915.790194085"
After scan for Atom:   Atom  AN      X      Y      Z        X      Y      Z        X      Y      Z   
After scan for Atom:   Atom  AN      X      Y      Z        X      Y      Z        X      Y      Z   
After scan for Atom:   Atom  AN      X      Y      Z        X      Y      Z        X      Y      Z   
After scan for Atom:   Atom  AN      X      Y      Z        X      Y      Z        X      Y      Z   
After scan for Atom:   Atom  AN      X      Y      Z        X      Y      Z        X      Y      Z   
After scan for Atom:   Atom  AN      X      Y      Z        X      Y      Z        X      Y      Z   
After scan for Atom:   Atom  AN      X      Y      Z        X      Y      Z        X      Y      Z   
After scan for Atom:   Atom  AN      X      Y      Z        X      Y      Z        X      Y      Z   
After scan for Atom:   Atom  AN      X      Y      Z        X      Y      Z        X      Y      Z   
After scan for Atom:   Atom  AN      X      Y      Z        X      Y      Z        X      Y      Z   
After scan for Atom:   Atom  AN      X      Y      Z        X      Y      Z        X      Y      Z   
After scan for Atom:   Atom  AN      X      Y      Z        X      Y      Z        X      Y      Z   
After scan for Atom:   Atom  AN      X      Y      Z        X      Y      Z        X      Y      Z   
After scan for Atom:   Atom  AN      X      Y      Z        X      Y      Z        X      Y      Z   
After scan for Atom:   Atom  AN      X      Y      Z        X      Y      Z        X      Y      Z   
After scan for Atom:   Atom  AN      X      Y      Z        X      Y      Z        X      Y      Z   
After scan for Atom:   Atom  AN      X      Y      Z        X      Y      Z        X      Y      Z   
After scan for Atom:   Atom  AN      X      Y      Z        X      Y      Z        X      Y      Z   
After scan for Atom:   Atom  AN      X      Y      Z        X      Y      Z        X      Y      Z   
After scan for Atom:   Atom  AN      X      Y      Z        X      Y      Z        X      Y      Z   
After scan for Atom:   Atom  AN      X      Y      Z        X      Y      Z        X      Y      Z   
 g94    frequencies=
     0.0    0.0    0.0    0.0    0.0    0.0  -60.7  109.6  152.7  223.9
   245.1  247.0  347.0  367.2  382.3  433.3  439.8  441.9  467.2  535.9
   538.9  615.0  664.2  690.9  691.6  701.4  708.4  745.7  750.6  840.3
   842.7  849.9  900.8  922.8  923.7  962.7  963.3 1058.9 1061.2 1080.3
  1094.4 1143.6 1156.1 1182.1 1184.9 1255.5 1266.2 1288.0 1311.9 1337.0
  1341.6 1442.0 1477.1 1512.8 1530.0 1546.7 1613.9 1627.7 1629.6 1647.0
  3150.2 3150.7 3167.7 3167.7 3180.1 3180.2 3196.8 3196.9 3642.9
 g94    symmetries=
                                                 A      A      A      A
       A      A      A      A      A      A      A      A      A      A
       A      A      A      A      A      A      A      A      A      A
       A      A      A      A      A      A      A      A      A      A
       A      A      A      A      A      A      A      A      A      A
       A      A      A      A      A      A      A      A      A      A
       A      A      A      A      A      A      A      A      A
 atomic masses:
 12.0000 12.0000 12.0000 12.0000 31.9721 12.0000 12.0000 12.0000 12.0000 12.0000
 12.0000 14.0031 12.0000 12.0000  1.0078  1.0078  1.0078  1.0078  1.0078  1.0078
  1.0078  1.0078  1.0078
 looking for force constants in 
 ./phenothiazine_0_C0S0.fchk                                                    
  
 Cartesian Force Constants                  R   N=        2415                  
  
 n3=          69        2415
 g94-fc frequencies=
   -60.7  -10.9   -5.3   -5.2   -0.0   -0.0    0.0  109.6  152.7  223.9
   245.1  247.0  347.0  367.2  382.3  433.3  439.8  441.9  467.3  535.9
   538.9  615.0  664.2  691.0  691.6  701.4  708.5  745.7  750.6  840.3
   842.7  849.9  900.9  922.8  923.7  962.7  963.3 1058.9 1061.2 1080.3
  1094.4 1143.7 1156.1 1182.1 1184.9 1255.6 1266.2 1288.0 1311.9 1337.0
  1341.6 1442.0 1477.1 1512.9 1530.0 1546.8 1613.9 1627.8 1629.7 1647.0
  3150.2 3150.8 3167.7 3167.8 3180.2 3180.3 3196.8 3197.0 3643.0
 at 99999: n3=          69
 symm operator            1 :  F  nop=           0
 symm operator            2 :  T  nop=           1
 symm operator            3 :  F  nop=           1
 symm operator            4 :  F  nop=           1
 symm operator            5 :  T  nop=           2
 symm operator            6 :  F  nop=           2
 symm operator            7 :  T  nop=           3
 swap           2           3
   1  -3.67048   0.00000   0.70657
   2  -3.80973   0.00000  -0.67669
   3  -2.66845   0.00000  -1.47647
   4  -1.39499   0.00000  -0.91347
   5   0.00000   0.00000  -2.03105
   6   1.39499   0.00000  -0.91347
   7   2.66845   0.00000  -1.47647
   8   3.80973   0.00000  -0.67669
   9   3.67048   0.00000   0.70657
  10   2.40205   0.00000   1.27778
  11   1.24927   0.00000   0.48343
  12   0.00000   0.00000   1.09745
  13  -1.24927   0.00000   0.48343
  14  -2.40205   0.00000   1.27778
  15  -4.54411   0.00000   1.34743
  16  -4.79057   0.00000  -1.13548
  17  -2.76662   0.00000  -2.55646
  18   2.76662   0.00000  -2.55646
  19   4.79057   0.00000  -1.13548
  20   4.54411   0.00000   1.34743
  21   2.29336   0.00000   2.35821
  22   0.00000   0.00000   2.10390
  23  -2.29336   0.00000   2.35821
 swap           1           2
   1   0.00000  -3.67048   0.70657
   2   0.00000  -3.80973  -0.67669
   3   0.00000  -2.66845  -1.47647
   4   0.00000  -1.39499  -0.91347
   5   0.00000   0.00000  -2.03105
   6   0.00000   1.39499  -0.91347
   7   0.00000   2.66845  -1.47647
   8   0.00000   3.80973  -0.67669
   9   0.00000   3.67048   0.70657
  10   0.00000   2.40205   1.27778
  11   0.00000   1.24927   0.48343
  12   0.00000   0.00000   1.09745
  13   0.00000  -1.24927   0.48343
  14   0.00000  -2.40205   1.27778
  15   0.00000  -4.54411   1.34743
  16   0.00000  -4.79057  -1.13548
  17   0.00000  -2.76662  -2.55646
  18   0.00000   2.76662  -2.55646
  19   0.00000   4.79057  -1.13548
  20   0.00000   4.54411   1.34743
  21   0.00000   2.29336   2.35821
  22   0.00000   0.00000   2.10390
  23   0.00000  -2.29336   2.35821
 The point group of the molecule is C2V
 enforcing symm op           1  jsymt=          -1          -1           1
 enforcing symm op           6  jsymt=           1          -1           1
 enforcing symm op           7  jsymt=          -1           1           1
 cartesian coord symmetries:
 A1 :   23 A2 :   10 B1 :   13 B2 :   23
 Symmetry rotation matrix:
   0.00000   0.00000   1.00000
  -1.00000   0.00000   0.00000
   0.00000  -1.00000   0.00000

 Projecting out zero-frequency components
 generating redundant internal coords
         300        3600          23
 search for int coords
   1 str   2   1   1.390
   2 str   3   2   1.394
   3 str   4   3   1.392
   4 str   5   4   1.787
   5 str   6   5   1.787
   6 str   7   6   1.392
   7 str   8   7   1.394
   8 str   9   8   1.390
   9 str  10   9   1.391
  10 str  11   6   1.404
  11 str  11  10   1.400
  12 str  12  11   1.392
  13 str  13   4   1.404
  14 str  13  12   1.392
  15 str  14   1   1.391
  16 str  14  13   1.400
  17 str  15   1   1.083
  18 str  16   2   1.083
  19 str  17   3   1.084
  20 str  18   7   1.084
  21 str  19   8   1.083
  22 str  20   9   1.083
  23 str  21  10   1.086
  24 str  22  12   1.006
  25 str  23  14   1.086
 nber stretches=          25
  26 ben   1   2   3
  27 prop tor   1   2   3   4
  28 prop tor   1   2   3  17
  29 ben   1   2  16
  30 ben   1  14  13
  31 ben   1  14  23
  32 ben   2   1  14
  33 prop tor   2   1  14  13
  34 prop tor   2   1  14  23
  35 ben   2   1  15
  36 ben   2   3   4
  37 prop tor   2   3   4   5
  38 prop tor   2   3   4  13
  39 ben   2   3  17
  40 ben   3   2  16
  41 ben   3   4   5
  42 prop tor   3   4   5   6
  43 ben   3   4  13
  44 prop tor   3   4  13  12
  45 prop tor   3   4  13  14
  46 ben   4   3  17
  47 ben   4   5   6
  48 prop tor   4   5   6   7
  49 prop tor   4   5   6  11
  50 ben   4  13  12
  51 ben   4  13  14
  52 prop tor   4  13  14   1
  53 prop tor   4  13  14  23
  54 ben   5   4  13
  55 prop tor   5   4  13  12
  56 prop tor   5   4  13  14
  57 ben   5   6   7
  58 prop tor   5   6   7   8
  59 prop tor   5   6   7  18
  60 ben   5   6  11
  61 prop tor   5   6  11  10
  62 prop tor   5   6  11  12
  63 ben   6   7   8
  64 prop tor   6   7   8   9
  65 prop tor   6   7   8  19
  66 ben   6   7  18
  67 ben   6  11  10
  68 ben   6  11  12
  69 prop tor   6  11  12  13
  70 prop tor   6  11  12  22
  71 ben   7   6  11
  72 prop tor   7   6  11  10
  73 prop tor   7   6  11  12
  74 ben   7   8   9
  75 prop tor   7   8   9  10
  76 prop tor   7   8   9  20
  77 ben   7   8  19
  78 ben   8   7  18
  79 ben   8   9  10
  80 prop tor   8   9  10  11
  81 prop tor   8   9  10  21
  82 ben   8   9  20
  83 ben   9   8  19
  84 ben   9  10  11
  85 prop tor   9  10  11   6
  86 prop tor   9  10  11  12
  87 ben   9  10  21
  88 ben  10   9  20
  89 ben  10  11  12
  90 prop tor  10  11  12  13
  91 prop tor  10  11  12  22
  92 prop tor  11   6   7   8
  93 prop tor  11   6   7  18
  94 ben  11  10  21
  95 ben  11  12  13
  96 prop tor  11  12  13   4
  97 prop tor  11  12  13  14
  98 ben  11  12  22
  99 ben  12  13  14
 100 prop tor  12  13  14   1
 101 prop tor  12  13  14  23
 102 prop tor  13   4   5   6
 103 ben  13  12  22
 104 ben  13  14  23
 105 prop tor  14   1   2   3
 106 prop tor  14   1   2  16
 107 ben  14   1  15
 108 prop tor  15   1   2   3
 109 prop tor  15   1   2  16
 110 prop tor  15   1  14  13
 111 prop tor  15   1  14  23
 112 prop tor  16   2   3   4
 113 prop tor  16   2   3  17
 114 prop tor  17   3   4   5
 115 prop tor  17   3   4  13
 116 prop tor  18   7   8   9
 117 prop tor  18   7   8  19
 118 prop tor  19   8   9  10
 119 prop tor  19   8   9  20
 120 prop tor  20   9  10  11
 121 prop tor  20   9  10  21
 122 prop tor  21  10  11   6
 123 prop tor  21  10  11  12
 124 prop tor  22  12  13   4
 125 prop tor  22  12  13  14
 nber bend=              40
 nber lin bend=           0
 nber prop tor=          60
 nber impr tor=           0
 nber tot redund int=         125
 Eigenvalues of G in red int coords
    Gval -0.00000000 -0.00000000 -0.00000000 -0.00000000 -0.00000000 -0.00000000 -0.00000000 -0.00000000
    Gval -0.00000000 -0.00000000 -0.00000000 -0.00000000 -0.00000000 -0.00000000 -0.00000000 -0.00000000
    Gval -0.00000000 -0.00000000 -0.00000000 -0.00000000 -0.00000000 -0.00000000 -0.00000000 -0.00000000
    Gval -0.00000000 -0.00000000 -0.00000000 -0.00000000 -0.00000000 -0.00000000 -0.00000000  0.00000000
    Gval  0.00000000  0.00000000  0.00000000  0.00000000  0.00000000  0.00000000  0.00000000  0.00000000
    Gval  0.00000000  0.00000000  0.00000000  0.00000000  0.00000000  0.00000000  0.00000000  0.00000000
    Gval  0.00000000  0.00000000  0.00000000  0.00000000  0.00000000  0.00000000  0.00000000  0.00000000
    Gval  0.00000000  0.00000000  0.00000000  0.00000000  0.00000000  0.00000000  0.00000727  0.00001011
    Gval  0.00002188  0.00002672  0.00002923  0.00002943  0.00003860  0.00004944  0.00005573  0.00005928
    Gval  0.00007199  0.00007333  0.00007805  0.00009197  0.00009727  0.00012105  0.00012478  0.00014544
    Gval  0.00017004  0.00017402  0.00018490  0.00018650  0.00024155  0.00031222  0.00032469  0.00032734
    Gval  0.00038782  0.00040336  0.00041468  0.00042546  0.00059317  0.00059321  0.00059696  0.00059729
    Gval  0.00060705  0.00061761  0.00061859  0.00062700  0.00065513  0.00065650  0.00067835  0.00080407
    Gval  0.00100802  0.00105328  0.00105409  0.00111806  0.00111826  0.00115694  0.00115724  0.00117429
    Gval  0.00117429  0.00125282  0.00170372  0.00175069  0.00179424  0.00198307  0.00261494  0.00263769
    Gval  0.00316711  0.00347223  0.00353760  0.00403363  0.00403714
  7.267387019112166E-006  7.267387019112166E-006
  1.010647149795553E-005  7.267387019112166E-006
  2.187780172951245E-005  7.267387019112166E-006
  2.671944297920577E-005  7.267387019112166E-006
  2.923195114957418E-005  7.267387019112166E-006
  2.943369062925480E-005  7.267387019112166E-006
  3.860252741596208E-005  7.267387019112166E-006
  4.943927515048443E-005  7.267387019112166E-006
  5.573415181134556E-005  7.267387019112166E-006
  5.928025996937988E-005  7.267387019112166E-006
  7.198878878330656E-005  7.267387019112166E-006
  7.333133087161454E-005  7.267387019112166E-006
  7.805000937779022E-005  7.267387019112166E-006
  9.197440008102965E-005  7.267387019112166E-006
  9.726781454543948E-005  7.267387019112166E-006
  1.210513748767687E-004  7.267387019112166E-006
  1.247761202192859E-004  7.267387019112166E-006
  1.454372478129961E-004  7.267387019112166E-006
  1.700448854031993E-004  7.267387019112166E-006
  1.740220503452112E-004  7.267387019112166E-006
  1.849019225340970E-004  7.267387019112166E-006
  1.864996116406717E-004  7.267387019112166E-006
  2.415451607135252E-004  7.267387019112166E-006
  3.122178792378632E-004  7.267387019112166E-006
  3.246873299211696E-004  7.267387019112166E-006
  3.273389135283349E-004  7.267387019112166E-006
  3.878220533324043E-004  7.267387019112166E-006
  4.033551886790146E-004  7.267387019112166E-006
  4.146817251395348E-004  7.267387019112166E-006
  4.254580904363138E-004  7.267387019112166E-006
  5.931677430872600E-004  7.267387019112166E-006
  5.932144131404603E-004  7.267387019112166E-006
  5.969561743692356E-004  7.267387019112166E-006
  5.972947283885869E-004  7.267387019112166E-006
  6.070534766881120E-004  7.267387019112166E-006
  6.176084692078932E-004  7.267387019112166E-006
  6.185859653759808E-004  7.267387019112166E-006
  6.269981355452292E-004  7.267387019112166E-006
  6.551276953088218E-004  7.267387019112166E-006
  6.564960772417420E-004  7.267387019112166E-006
  6.783487951453364E-004  7.267387019112166E-006
  8.040712249296363E-004  7.267387019112166E-006
  1.008019681723152E-003  7.267387019112166E-006
  1.053283339992815E-003  7.267387019112166E-006
  1.054088706249209E-003  7.267387019112166E-006
  1.118058447541633E-003  7.267387019112166E-006
  1.118256998316633E-003  7.267387019112166E-006
  1.156943124539553E-003  7.267387019112166E-006
  1.157240572208552E-003  7.267387019112166E-006
  1.174289861621910E-003  7.267387019112166E-006
  1.174290794762306E-003  7.267387019112166E-006
  1.252822881028003E-003  7.267387019112166E-006
  1.703721842752593E-003  7.267387019112166E-006
  1.750685608300212E-003  7.267387019112166E-006
  1.794238959429179E-003  7.267387019112166E-006
  1.983069239581463E-003  7.267387019112166E-006
  2.614935852397407E-003  7.267387019112166E-006
  2.637688663252495E-003  7.267387019112166E-006
  3.167107761912776E-003  7.267387019112166E-006
  3.472228629758768E-003  7.267387019112166E-006
  3.537598985513143E-003  7.267387019112166E-006
  4.033625353166070E-003  7.267387019112166E-006
  4.037141564696347E-003  7.267387019112166E-006
 cut=1d-8, nber non-redundant internal coords=          63
 Check on Eigenvals of non-red overlap matrix:
  0.00000727  0.00001011  0.00002188  0.00002672  0.00002923  0.00002943  0.00003860  0.00004944
  0.00005573  0.00005928  0.00007199  0.00007333  0.00007805  0.00009197  0.00009727  0.00012105
  0.00012478  0.00014544  0.00017004  0.00017402  0.00018490  0.00018650  0.00024155  0.00031222
  0.00032469  0.00032734  0.00038782  0.00040336  0.00041468  0.00042546  0.00059317  0.00059321
  0.00059696  0.00059729  0.00060705  0.00061761  0.00061859  0.00062700  0.00065513  0.00065650
  0.00067835  0.00080407  0.00100802  0.00105328  0.00105409  0.00111806  0.00111826  0.00115694
  0.00115724  0.00117429  0.00117429  0.00125282  0.00170372  0.00175069  0.00179424  0.00198307
  0.00261494  0.00263769  0.00316711  0.00347223  0.00353760  0.00403363  0.00403714
 Checking for correct frequencies
 recalc frequencies=
   -60.7   -0.0   -0.0    0.0    0.0    0.0    0.0  109.6  152.7  223.9
   245.1  247.0  347.0  367.2  382.3  433.3  439.8  441.9  467.3  535.9
   538.9  615.0  664.2  691.0  691.6  701.4  708.5  745.7  750.6  840.3
   842.7  849.9  900.9  922.8  923.7  962.7  963.3 1058.9 1061.2 1080.3
  1094.4 1143.7 1156.1 1182.1 1184.9 1255.6 1266.2 1288.0 1311.9 1337.0
  1341.6 1442.0 1477.1 1512.9 1530.0 1546.8 1613.9 1627.8 1629.7 1647.0
  3150.2 3150.8 3167.7 3167.8 3180.2 3180.3 3196.8 3197.0 3643.0
 recalc symmetries=
     B1     B2     B1     A2     B1     B2     A1     A2     B1     A1 
     B1     A2     A1     B1     B2     A2     B1     B2     A1     B1 
     A2     B2     A1     A1     B2     A2     B1     B1     A2     B1 
     A2     A1     B2     B1     A2     A2     B1     B2     A1     B2 
     A1     B2     A1     B2     A1     B2     A1     B2     A1     A1 
     B2     B2     A1     B2     A1     B2     B2     A1     B2     A1 
     B2     A1     B2     A1     B2     A1     B2     A1     A1 
 recalc freqs check OK
 Zero-point lengths:
 31.8224 10.0000 10.0000 10.0000 10.0000 10.0000 10.0000 23.6799 20.0632 16.5679
 15.8351 15.7728 13.3086 12.9374 12.6794 11.9094 11.8212 11.7928 11.4688 10.7090
 10.6790  9.9966  9.6196  9.4313  9.4269  9.3608  9.3141  9.0782  9.0488  8.5522
  8.5401  8.5039  8.2598  8.1611  8.1571  7.9899  7.9875  7.6185  7.6103  7.5426
  7.4938  7.3307  7.2910  7.2104  7.2020  6.9965  6.9669  6.9078  6.8445  6.7800
  6.7684  6.5284  6.4504  6.3738  6.3379  6.3035  6.1710  6.1447  6.1411  6.1087
  4.4170  4.4166  4.4047  4.4047  4.3961  4.3961  4.3847  4.3845  4.1074
 highest evec of mol 1
  0.0000 -0.0004  0.0002
  0.0000  0.0007  0.0000
  0.0000 -0.0007 -0.0006
  0.0000  0.0017  0.0027
  0.0000  0.0000  0.0000
  0.0000 -0.0017  0.0027
  0.0000  0.0007 -0.0006
  0.0000 -0.0007  0.0000
  0.0000  0.0004  0.0002
  0.0000 -0.0009  0.0010
  0.0000 -0.0020 -0.0017
  0.0000  0.0000 -0.2616
  0.0000  0.0020 -0.0017
  0.0000  0.0009  0.0010
  0.0000  0.0003 -0.0003
  0.0000 -0.0004 -0.0003
  0.0000 -0.0002  0.0005
  0.0000  0.0002  0.0005
  0.0000  0.0004 -0.0003
  0.0000 -0.0003 -0.0003
  0.0000  0.0018 -0.0011
  0.0000  0.0000  0.9652
  0.0000 -0.0018 -0.0011
 generating redundant internal coords
         300        3600          23
 Adding extra bonds for z output only
           6           6           6           6          16           6
           6           6           6           6           6           7
           6           6           1           1           1           1
           1           1           1           1           1
 search for int coords
   1 str   2   1   1.390
   2 str   3   2   1.394
   3 str   4   3   1.392
   4 str   5   4   1.787
   5 str   6   5   1.787
   6 str   7   6   1.392
   7 str   8   7   1.394
   8 str   9   8   1.390
   9 str  10   9   1.391
  10 str  11   6   1.404
  11 str  11  10   1.400
  12 str  12  11   1.392
  13 str  13   4   1.404
  14 str  13  12   1.392
  15 str  14   1   1.391
  16 str  14  13   1.400
  17 str  15   1   1.083
  18 str  16   2   1.083
  19 str  17   3   1.084
  20 str  18   7   1.084
  21 str  19   8   1.083
  22 str  20   9   1.083
  23 str  21  10   1.086
  24 str  22  12   1.006
  25 str  23  14   1.086
 nber stretches=          25
  26 ben   1   2   3
  27 prop tor   1   2   3   4
  28 prop tor   1   2   3  17
  29 ben   1   2  16
  30 ben   1  14  13
  31 ben   1  14  23
  32 ben   2   1  14
  33 prop tor   2   1  14  13
  34 prop tor   2   1  14  23
  35 ben   2   1  15
  36 ben   2   3   4
  37 prop tor   2   3   4   5
  38 prop tor   2   3   4  13
  39 ben   2   3  17
  40 ben   3   2  16
  41 ben   3   4   5
  42 prop tor   3   4   5   6
  43 ben   3   4  13
  44 prop tor   3   4  13  12
  45 prop tor   3   4  13  14
  46 ben   4   3  17
  47 ben   4   5   6
  48 prop tor   4   5   6   7
  49 prop tor   4   5   6  11
  50 ben   4  13  12
  51 ben   4  13  14
  52 prop tor   4  13  14   1
  53 prop tor   4  13  14  23
  54 ben   5   4  13
  55 prop tor   5   4  13  12
  56 prop tor   5   4  13  14
  57 ben   5   6   7
  58 prop tor   5   6   7   8
  59 prop tor   5   6   7  18
  60 ben   5   6  11
  61 prop tor   5   6  11  10
  62 prop tor   5   6  11  12
  63 ben   6   7   8
  64 prop tor   6   7   8   9
  65 prop tor   6   7   8  19
  66 ben   6   7  18
  67 ben   6  11  10
  68 ben   6  11  12
  69 prop tor   6  11  12  13
  70 prop tor   6  11  12  22
  71 ben   7   6  11
  72 prop tor   7   6  11  10
  73 prop tor   7   6  11  12
  74 ben   7   8   9
  75 prop tor   7   8   9  10
  76 prop tor   7   8   9  20
  77 ben   7   8  19
  78 ben   8   7  18
  79 ben   8   9  10
  80 prop tor   8   9  10  11
  81 prop tor   8   9  10  21
  82 ben   8   9  20
  83 ben   9   8  19
  84 ben   9  10  11
  85 prop tor   9  10  11   6
  86 prop tor   9  10  11  12
  87 ben   9  10  21
  88 ben  10   9  20
  89 ben  10  11  12
  90 prop tor  10  11  12  13
  91 prop tor  10  11  12  22
  92 prop tor  11   6   7   8
  93 prop tor  11   6   7  18
  94 ben  11  10  21
  95 ben  11  12  13
  96 prop tor  11  12  13   4
  97 prop tor  11  12  13  14
  98 ben  11  12  22
  99 ben  12  13  14
 100 prop tor  12  13  14   1
 101 prop tor  12  13  14  23
 102 prop tor  13   4   5   6
 103 ben  13  12  22
 104 ben  13  14  23
 105 prop tor  14   1   2   3
 106 prop tor  14   1   2  16
 107 ben  14   1  15
 108 prop tor  15   1   2   3
 109 prop tor  15   1   2  16
 110 prop tor  15   1  14  13
 111 prop tor  15   1  14  23
 112 prop tor  16   2   3   4
 113 prop tor  16   2   3  17
 114 prop tor  17   3   4   5
 115 prop tor  17   3   4  13
 116 prop tor  18   7   8   9
 117 prop tor  18   7   8  19
 118 prop tor  19   8   9  10
 119 prop tor  19   8   9  20
 120 prop tor  20   9  10  11
 121 prop tor  20   9  10  21
 122 prop tor  21  10  11   6
 123 prop tor  21  10  11  12
 124 prop tor  22  12  13   4
 125 prop tor  22  12  13  14
 nber bend=              40
 nber lin bend=           0
 nber prop tor=          60
 nber impr tor=           0
 nber tot redund int=         125
 Reading file: 
 ./phenothiazine_0_C-1S0.log                                                    
                                          
  Entering Gaussian System, Link 0=g16                                          
  
 Gaussian format, type: g94, g98, g03= F F F
  #P Geom=AllCheck Guess=TCheck SCRF=Check GenChk UB3LYP/6-311G(d,p) Fre    
 energy type= B3LYP   
 Original G94 input coords:
  6 -3.651348  0.663572 -0.000001
  6 -3.814464 -0.721233  0.000000
  6 -2.667141 -1.522353  0.000000
  6 -1.396384 -0.964498  0.000000
 16  0.000000 -2.095611  0.000000
  6  1.396384 -0.964498  0.000000
  6  2.667141 -1.522353  0.000000
  6  3.814464 -0.721233  0.000000
  6  3.651348  0.663572 -0.000001
  6  2.383069  1.228679  0.000000
  6  1.196565  0.448225  0.000001
  7  0.000000  1.087481  0.000001
  6 -1.196565  0.448225  0.000001
  6 -2.383069  1.228679  0.000000
  1 -4.521995  1.313861 -0.000001
  1 -4.800276 -1.174616  0.000000
  1 -2.766507 -2.605196  0.000000
  1  2.766507 -2.605196  0.000000
  1  4.800276 -1.174616  0.000000
  1  4.521995  1.313861 -0.000001
  1  2.247428  2.304323  0.000000
  1  0.000000  3.066603  0.000001
  1 -2.247428  2.304323  0.000000
 nber atoms=          23
  SCF Done:  E(UB3LYP) =  -915.730314258     A.U. after    1 cycles             
  
          23          40 "  -915.730314258"
After scan for Atom:   Atom  AN      X      Y      Z        X      Y      Z        X      Y      Z   
After scan for Atom:   Atom  AN      X      Y      Z        X      Y      Z        X      Y      Z   
After scan for Atom:   Atom  AN      X      Y      Z        X      Y      Z        X      Y      Z   
After scan for Atom:   Atom  AN      X      Y      Z        X      Y      Z        X      Y      Z   
After scan for Atom:   Atom  AN      X      Y      Z        X      Y      Z        X      Y      Z   
After scan for Atom:   Atom  AN      X      Y      Z        X      Y      Z        X      Y      Z   
After scan for Atom:   Atom  AN      X      Y      Z        X      Y      Z        X      Y      Z   
After scan for Atom:   Atom  AN      X      Y      Z        X      Y      Z        X      Y      Z   
After scan for Atom:   Atom  AN      X      Y      Z        X      Y      Z        X      Y      Z   
After scan for Atom:   Atom  AN      X      Y      Z        X      Y      Z        X      Y      Z   
After scan for Atom:   Atom  AN      X      Y      Z        X      Y      Z        X      Y      Z   
After scan for Atom:   Atom  AN      X      Y      Z        X      Y      Z        X      Y      Z   
After scan for Atom:   Atom  AN      X      Y      Z        X      Y      Z        X      Y      Z   
After scan for Atom:   Atom  AN      X      Y      Z        X      Y      Z        X      Y      Z   
After scan for Atom:   Atom  AN      X      Y      Z        X      Y      Z        X      Y      Z   
After scan for Atom:   Atom  AN      X      Y      Z        X      Y      Z        X      Y      Z   
After scan for Atom:   Atom  AN      X      Y      Z        X      Y      Z        X      Y      Z   
After scan for Atom:   Atom  AN      X      Y      Z        X      Y      Z        X      Y      Z   
After scan for Atom:   Atom  AN      X      Y      Z        X      Y      Z        X      Y      Z   
After scan for Atom:   Atom  AN      X      Y      Z        X      Y      Z        X      Y      Z   
After scan for Atom:   Atom  AN      X      Y      Z        X      Y      Z        X      Y      Z   
 g94    frequencies=
     0.0    0.0    0.0    0.0    0.0    0.0 -109.2  -52.8   98.0  155.9
   227.7  245.4  260.5  345.4  374.8  395.3  437.0  437.4  438.2  451.4
   521.0  541.7  551.9  610.1  664.3  681.7  687.0  701.3  710.0  717.3
   720.4  831.8  835.2  845.6  880.5  881.6  907.5  934.0  934.7 1043.0
  1047.6 1060.2 1072.6 1120.2 1131.6 1161.7 1166.5 1249.2 1262.5 1280.2
  1300.9 1329.1 1396.1 1448.1 1468.5 1473.5 1500.9 1561.1 1579.7 1591.8
  1631.5 3123.1 3123.5 3131.4 3131.5 3159.9 3160.3 3174.4 3174.7
 g94    symmetries=
                                                 A      A      A      A
       A      A      A      A      A      A      A      A      A      A
       A      A      A      A      A      A      A      A      A      A
       A      A      A      A      A      A      A      A      A      A
       A      A      A      A      A      A      A      A      A      A
       A      A      A      A      A      A      A      A      A      A
       A      A      A      A      A      A      A      A      A
 atomic masses:
 12.0000 12.0000 12.0000 12.0000 31.9721 12.0000 12.0000 12.0000 12.0000 12.0000
 12.0000 14.0031 12.0000 12.0000  1.0078  1.0078  1.0078  1.0078  1.0078  1.0078
  1.0078  1.0078  1.0078
 looking for force constants in 
 ./phenothiazine_0_C-1S0.fchk                                                   
  
 Cartesian Force Constants                  R   N=        2415                  
  
 n3=          69        2415
 g94-fc frequencies=
  -109.2  -52.8   -5.3   -2.0   -0.0   -0.0    0.0    1.1   98.0  155.9
   227.7  245.4  260.5  345.4  374.8  395.3  437.0  437.4  438.2  451.4
   521.0  541.8  551.9  610.1  664.3  681.7  687.0  701.3  710.1  717.4
   720.4  831.8  835.2  845.7  880.5  881.6  907.5  934.1  934.7 1043.0
  1047.6 1060.3 1072.6 1120.2 1131.6 1161.7 1166.5 1249.2 1262.5 1280.2
  1300.9 1329.2 1396.1 1448.1 1468.5 1473.6 1500.9 1561.1 1579.7 1591.8
  1631.6 3123.1 3123.6 3131.5 3131.6 3160.0 3160.4 3174.4 3174.7
 at 99999: n3=          69
 symm operator            1 :  F  nop=           0
 symm operator            2 :  T  nop=           1
 symm operator            3 :  F  nop=           1
 symm operator            4 :  F  nop=           1
 symm operator            5 :  T  nop=           2
 symm operator            6 :  F  nop=           2
 symm operator            7 :  T  nop=           3
 swap           2           3
   1  -3.65135  -0.00000   0.66357
   2  -3.81446   0.00000  -0.72123
   3  -2.66714   0.00000  -1.52235
   4  -1.39638   0.00000  -0.96450
   5   0.00000   0.00000  -2.09561
   6   1.39638   0.00000  -0.96450
   7   2.66714   0.00000  -1.52235
   8   3.81446   0.00000  -0.72123
   9   3.65135  -0.00000   0.66357
  10   2.38307   0.00000   1.22868
  11   1.19657   0.00000   0.44822
  12   0.00000   0.00000   1.08748
  13  -1.19657   0.00000   0.44822
  14  -2.38307   0.00000   1.22868
  15  -4.52200  -0.00000   1.31386
  16  -4.80028   0.00000  -1.17462
  17  -2.76651   0.00000  -2.60520
  18   2.76651   0.00000  -2.60520
  19   4.80028   0.00000  -1.17462
  20   4.52200  -0.00000   1.31386
  21   2.24743   0.00000   2.30432
  22   0.00000   0.00000   3.06660
  23  -2.24743   0.00000   2.30432
 swap           1           2
   1  -0.00000  -3.65135   0.66357
   2   0.00000  -3.81446  -0.72123
   3   0.00000  -2.66714  -1.52235
   4   0.00000  -1.39638  -0.96450
   5   0.00000   0.00000  -2.09561
   6   0.00000   1.39638  -0.96450
   7   0.00000   2.66714  -1.52235
   8   0.00000   3.81446  -0.72123
   9  -0.00000   3.65135   0.66357
  10   0.00000   2.38307   1.22868
  11   0.00000   1.19657   0.44822
  12   0.00000   0.00000   1.08748
  13   0.00000  -1.19657   0.44822
  14   0.00000  -2.38307   1.22868
  15  -0.00000  -4.52200   1.31386
  16   0.00000  -4.80028  -1.17462
  17   0.00000  -2.76651  -2.60520
  18   0.00000   2.76651  -2.60520
  19   0.00000   4.80028  -1.17462
  20  -0.00000   4.52200   1.31386
  21   0.00000   2.24743   2.30432
  22   0.00000   0.00000   3.06660
  23   0.00000  -2.24743   2.30432
 The point group of the molecule is C2V
 enforcing symm op           1  jsymt=          -1          -1           1
 enforcing symm op           6  jsymt=           1          -1           1
 enforcing symm op           7  jsymt=          -1           1           1
 cartesian coord symmetries:
 A1 :   23 A2 :   10 B1 :   13 B2 :   23
 Symmetry rotation matrix:
   0.00000   0.00000   1.00000
  -1.00000   0.00000   0.00000
   0.00000  -1.00000   0.00000

 Projecting out zero-frequency components
 generating redundant internal coords
         300        3600          23
 unconnected atom          22           1
