 Enter ifcurve (0=recti, 1=orth curvi, 2=apprx curvi, -1 = skip
 And atom ordering flag, 0= never changes, 1= use the first order thenceforth,
  2= deduce it (does read on fail), 3= always read it
 Reading file: 
 ./Common_Moeties_7_C0S0.log                                                    
                                          
  Entering Gaussian System, Link 0=g16                                          
  
 Gaussian format, type: g94, g98, g03= F F F
  #P Geom=AllCheck Guess=TCheck SCRF=Check GenChk RB3LYP/6-311G(d,p) Fre    
 energy type= B3LYP   
 Original G94 input coords:
  6  3.757897  0.000000  0.000000
  6  2.422790  0.000000  0.000000
 16  1.444572  1.492607  0.000000
  6 -0.139013  0.700341  0.000000
  6 -1.343462  1.400769  0.000000
  6 -2.545484  0.696995  0.000000
  6 -2.545484 -0.696995  0.000000
  6 -1.343462 -1.400769  0.000000
  6 -0.139013 -0.700341  0.000000
 16  1.444572 -1.492607  0.000000
  1  4.318504 -0.925707  0.000000
  1  4.318504  0.925707  0.000000
  1 -1.342947  2.484610  0.000000
  1 -3.482512  1.241070  0.000000
  1 -3.482512 -1.241070  0.000000
  1 -1.342947 -2.484610  0.000000
 nber atoms=          16
 Original standard coords:
  6  0.000000  0.000000  3.363001
  6  0.000000  0.000000  2.027894
 16  0.000000  1.492607  1.049677
  6  0.000000  0.700341 -0.533909
  6  0.000000  1.400769 -1.738357
  6  0.000000  0.696995 -2.940379
  6  0.000000 -0.696995 -2.940379
  6  0.000000 -1.400769 -1.738357
  6  0.000000 -0.700341 -0.533909
 16  0.000000 -1.492607  1.049677
  1  0.000000 -0.925707  3.923609
  1  0.000000  0.925707  3.923609
  1  0.000000  2.484610 -1.737842
  1  0.000000  1.241070 -3.877408
  1  0.000000 -1.241070 -3.877408
  1  0.000000 -2.484610 -1.737842
  SCF Done:  E(RB3LYP) =  -1104.94555994     A.U. after    1 cycles             
  
          23          40 "  -1104.94555994"
After scan for Atom:   Atom  AN      X      Y      Z        X      Y      Z        X      Y      Z   
After scan for Atom:   Atom  AN      X      Y      Z        X      Y      Z        X      Y      Z   
After scan for Atom:   Atom  AN      X      Y      Z        X      Y      Z        X      Y      Z   
After scan for Atom:   Atom  AN      X      Y      Z        X      Y      Z        X      Y      Z   
After scan for Atom:   Atom  AN      X      Y      Z        X      Y      Z        X      Y      Z   
After scan for Atom:   Atom  AN      X      Y      Z        X      Y      Z        X      Y      Z   
After scan for Atom:   Atom  AN      X      Y      Z        X      Y      Z        X      Y      Z   
After scan for Atom:   Atom  AN      X      Y      Z        X      Y      Z        X      Y      Z   
After scan for Atom:   Atom  AN      X      Y      Z        X      Y      Z        X      Y      Z   
After scan for Atom:   Atom  AN      X      Y      Z        X      Y      Z        X      Y      Z   
After scan for Atom:   Atom  AN      X      Y      Z        X      Y      Z        X      Y      Z   
After scan for Atom:   Atom  AN      X      Y      Z        X      Y      Z        X      Y      Z   
After scan for Atom:   Atom  AN      X      Y      Z        X      Y      Z        X      Y      Z   
After scan for Atom:   Atom  AN      X      Y      Z        X      Y      Z        X      Y      Z   
 g94    frequencies=
     0.0    0.0    0.0    0.0    0.0    0.0   24.7  136.2  215.3  258.6
   373.4  404.8  419.7  452.6  473.7  476.9  491.1  579.6  631.8  679.7
   686.6  739.6  750.4  775.0  817.3  854.6  935.9  980.2 1049.6 1051.3
  1121.8 1136.0 1152.4 1186.2 1287.1 1319.9 1417.8 1466.3 1482.9 1603.7
  1613.6 1635.0 3152.2 3169.3 3176.1 3185.0 3195.7 3237.5
 g94    symmetries=
                                                B1     A2     B1     B2
      B2     A1     B1     B1     A1     B2     A2     A1     A2     A2
      A1     B2     B1     B2     B1     A2     B1     A2     B2     A1
      B2     A1     B2     A1     B2     A1     A1     B2     A1     A1
      B2     A1     A1     B2     A1     B2     A1     B2
 atomic masses:
 12.0000 12.0000 31.9721 12.0000 12.0000 12.0000 12.0000 12.0000 12.0000 31.9721
  1.0078  1.0078  1.0078  1.0078  1.0078  1.0078
 looking for force constants in 
 ./Common_Moeties_7_C0S0.fchk                                                   
  
 Cartesian Force Constants                  R   N=        1176                  
  
 n3=          48        1176
 g94-fc frequencies=
    -0.0   -0.0   -0.0    3.2    3.4    5.5   24.7  136.2  215.3  258.6
   373.4  404.9  419.7  452.6  473.7  476.9  491.1  579.6  631.8  679.7
   686.7  739.6  750.4  775.0  817.3  854.7  935.9  980.2 1049.7 1051.3
  1121.9 1136.0 1152.5 1186.3 1287.1 1320.0 1417.8 1466.4 1482.9 1603.7
  1613.7 1635.0 3152.2 3169.4 3176.2 3185.1 3195.8 3237.6
 at 99999: n3=          48
 symm operator            1 :  T  nop=           1
 symm operator            2 :  F  nop=           1
 symm operator            3 :  F  nop=           1
 symm operator            4 :  F  nop=           1
 symm operator            5 :  F  nop=           1
 symm operator            6 :  T  nop=           2
 symm operator            7 :  T  nop=           3
 The point group of the molecule is C2V
 enforcing symm op           1  jsymt=          -1          -1           1
 enforcing symm op           6  jsymt=           1          -1           1
 enforcing symm op           7  jsymt=          -1           1           1
 cartesian coord symmetries:
 A1 :   16 A2 :    7 B1 :    9 B2 :   16
 Symmetry rotation matrix:
   1.00000   0.00000   0.00000
   0.00000   1.00000   0.00000
   0.00000   0.00000   1.00000

 Projecting out zero-frequency components
 generating redundant internal coords
         300        3600          16
 search for int coords
   1 str   2   1   1.335
   2 str   3   2   1.785
   3 str   4   3   1.771
   4 str   5   4   1.393
   5 str   6   5   1.393
   6 str   7   6   1.394
   7 str   8   7   1.393
   8 str   9   4   1.401
   9 str   9   8   1.393
  10 str  10   2   1.785
  11 str  10   9   1.771
  12 str  11   1   1.082
  13 str  12   1   1.082
  14 str  13   5   1.084
  15 str  14   6   1.084
  16 str  15   7   1.084
  17 str  16   8   1.084
 nber stretches=          17
  18 ben   1   2   3
  19 prop tor   1   2   3   4
  20 ben   1   2  10
  21 prop tor   1   2  10   9
  22 ben   2   1  11
  23 ben   2   1  12
  24 ben   2   3   4
  25 prop tor   2   3   4   5
  26 prop tor   2   3   4   9
  27 ben   2  10   9
  28 ben   3   2  10
  29 prop tor   3   2  10   9
  30 ben   3   4   5
  31 prop tor   3   4   5   6
  32 prop tor   3   4   5  13
  33 ben   3   4   9
  34 prop tor   3   4   9   8
  35 prop tor   3   4   9  10
  36 ben   4   5   6
  37 prop tor   4   5   6   7
  38 prop tor   4   5   6  14
  39 ben   4   5  13
  40 ben   4   9   8
  41 ben   4   9  10
  42 prop tor   4   9  10   2
  43 ben   5   4   9
  44 prop tor   5   4   9   8
  45 prop tor   5   4   9  10
  46 ben   5   6   7
  47 prop tor   5   6   7   8
  48 prop tor   5   6   7  15
  49 ben   5   6  14
  50 ben   6   5  13
  51 ben   6   7   8
  52 prop tor   6   7   8   9
  53 prop tor   6   7   8  16
  54 ben   6   7  15
  55 ben   7   6  14
  56 ben   7   8   9
  57 prop tor   7   8   9   4
  58 prop tor   7   8   9  10
  59 ben   7   8  16
  60 ben   8   7  15
  61 ben   8   9  10
  62 prop tor   8   9  10   2
  63 prop tor   9   4   5   6
  64 prop tor   9   4   5  13
  65 ben   9   8  16
  66 prop tor  10   2   3   4
  67 prop tor  11   1   2   3
  68 prop tor  11   1   2  10
  69 ben  11   1  12
  70 prop tor  12   1   2   3
  71 prop tor  12   1   2  10
  72 prop tor  13   5   6   7
  73 prop tor  13   5   6  14
  74 prop tor  14   6   7   8
  75 prop tor  14   6   7  15
  76 prop tor  15   7   8   9
  77 prop tor  15   7   8  16
  78 prop tor  16   8   9   4
  79 prop tor  16   8   9  10
 nber bend=              26
 nber lin bend=           0
 nber prop tor=          36
 nber impr tor=           0
 nber tot redund int=          79
 Eigenvalues of G in red int coords
    Gval -0.00000000 -0.00000000 -0.00000000 -0.00000000 -0.00000000 -0.00000000 -0.00000000 -0.00000000
    Gval -0.00000000 -0.00000000 -0.00000000 -0.00000000 -0.00000000 -0.00000000 -0.00000000 -0.00000000
    Gval -0.00000000  0.00000000  0.00000000  0.00000000  0.00000000  0.00000000  0.00000000  0.00000000
    Gval  0.00000000  0.00000000  0.00000000  0.00000000  0.00000000  0.00000000  0.00000000  0.00000000
    Gval  0.00000000  0.00000000  0.00000000  0.00000000  0.00000000  0.00001366  0.00001465  0.00002722
    Gval  0.00002891  0.00003432  0.00003887  0.00004347  0.00005602  0.00007237  0.00007947  0.00009931
    Gval  0.00012135  0.00014771  0.00016026  0.00018252  0.00019568  0.00020436  0.00031109  0.00033149
    Gval  0.00040022  0.00053010  0.00054354  0.00056629  0.00059318  0.00059738  0.00061752  0.00062396
    Gval  0.00065511  0.00077131  0.00078013  0.00105446  0.00112194  0.00116032  0.00117276  0.00128640
    Gval  0.00157536  0.00159714  0.00177761  0.00183643  0.00266668  0.00351761  0.00402467
  1.366099998157405E-005  1.366099998157405E-005
  1.464771520757752E-005  1.366099998157405E-005
  2.721648231948990E-005  1.366099998157405E-005
  2.891010372710561E-005  1.366099998157405E-005
  3.431972593928292E-005  1.366099998157405E-005
  3.886747022643763E-005  1.366099998157405E-005
  4.346934334840267E-005  1.366099998157405E-005
  5.602049395663756E-005  1.366099998157405E-005
  7.237188574635479E-005  1.366099998157405E-005
  7.947498840804923E-005  1.366099998157405E-005
  9.930785786971057E-005  1.366099998157405E-005
  1.213475220269672E-004  1.366099998157405E-005
  1.477120268964692E-004  1.366099998157405E-005
  1.602575482481029E-004  1.366099998157405E-005
  1.825186154427594E-004  1.366099998157405E-005
  1.956785104341653E-004  1.366099998157405E-005
  2.043588652291068E-004  1.366099998157405E-005
  3.110906349370944E-004  1.366099998157405E-005
  3.314854781788609E-004  1.366099998157405E-005
  4.002249703102819E-004  1.366099998157405E-005
  5.301025223707196E-004  1.366099998157405E-005
  5.435421953441073E-004  1.366099998157405E-005
  5.662920912012828E-004  1.366099998157405E-005
  5.931787205262097E-004  1.366099998157405E-005
  5.973791223849614E-004  1.366099998157405E-005
  6.175222125220981E-004  1.366099998157405E-005
  6.239574810037778E-004  1.366099998157405E-005
  6.551092161378308E-004  1.366099998157405E-005
  7.713092761211151E-004  1.366099998157405E-005
  7.801339710306756E-004  1.366099998157405E-005
  1.054455407563961E-003  1.366099998157405E-005
  1.121943364520045E-003  1.366099998157405E-005
  1.160318372326739E-003  1.366099998157405E-005
  1.172762937058046E-003  1.366099998157405E-005
  1.286402367965955E-003  1.366099998157405E-005
  1.575360021175004E-003  1.366099998157405E-005
  1.597140981800712E-003  1.366099998157405E-005
  1.777607306376279E-003  1.366099998157405E-005
  1.836425824554716E-003  1.366099998157405E-005
  2.666677377368123E-003  1.366099998157405E-005
  3.517614410247547E-003  1.366099998157405E-005
  4.024669416461241E-003  1.366099998157405E-005
 cut=1d-8, nber non-redundant internal coords=          42
 Check on Eigenvals of non-red overlap matrix:
  0.00001366  0.00001465  0.00002722  0.00002891  0.00003432  0.00003887  0.00004347  0.00005602
  0.00007237  0.00007947  0.00009931  0.00012135  0.00014771  0.00016026  0.00018252  0.00019568
  0.00020436  0.00031109  0.00033149  0.00040022  0.00053010  0.00054354  0.00056629  0.00059318
  0.00059738  0.00061752  0.00062396  0.00065511  0.00077131  0.00078013  0.00105446  0.00112194
  0.00116032  0.00117276  0.00128640  0.00157536  0.00159714  0.00177761  0.00183643  0.00266668
  0.00351761  0.00402467
 Checking for correct frequencies
 recalc frequencies=
    -0.0   -0.0   -0.0    0.0    0.0    0.0   24.7  136.2  215.3  258.6
   373.4  404.9  419.7  452.6  473.7  476.9  491.1  579.6  631.8  679.7
   686.7  739.6  750.4  775.0  817.3  854.7  935.9  980.2 1049.7 1051.3
  1121.9 1136.0 1152.5 1186.3 1287.1 1320.0 1417.8 1466.4 1482.9 1603.7
  1613.7 1635.0 3152.2 3169.4 3176.2 3185.1 3195.8 3237.6
 recalc symmetries=
     A1     B1     B1     B2     A2     B2     B1     A2     B1     B2 
     B2     A1     B1     B1     A1     B2     A2     A1     A2     A2 
     A1     B2     B1     B2     B1     A2     B1     A2     B2     A1 
     B2     A1     B2     A1     B2     A1     A1     B2     A1     A1 
     B2     A1     A1     B2     A1     B2     A1     B2 
 recalc freqs check OK
 Zero-point lengths:
 10.0000 10.0000 10.0000 10.0000 10.0000 10.0000 49.8401 21.2442 16.8937 15.4173
 12.8289 12.3210 12.1006 11.6529 11.3908 11.3525 11.1867 10.2975  9.8632  9.5089
  9.4608  9.1157  9.0497  8.9052  8.6719  8.4801  8.1036  7.9184  7.6519  7.6458
  7.4016  7.3555  7.3026  7.1979  6.9102  6.8236  6.5839  6.4740  6.4378  6.1906
  6.1715  6.1311  4.4156  4.4036  4.3989  4.3927  4.3854  4.3570
 highest evec of mol 1
  0.0000  0.3269  0.0000
  0.0000  0.0052  0.0000
  0.0000 -0.0010  0.0011
  0.0000 -0.0001  0.0005
  0.0000 -0.0001 -0.0001
  0.0000  0.0001 -0.0001
  0.0000  0.0001  0.0001
  0.0000 -0.0001  0.0001
  0.0000 -0.0001 -0.0005
  0.0000 -0.0010 -0.0011
  0.0000 -0.5673  0.3531
  0.0000 -0.5673 -0.3531
  0.0000  0.0002  0.0000
  0.0000 -0.0001  0.0002
  0.0000 -0.0001 -0.0002
  0.0000  0.0002 -0.0000
 generating redundant internal coords
         300        3600          16
 Adding extra bonds for z output only
           6           6          16           6           6           6
           6           6           6          16           1           1
           1           1           1           1
 search for int coords
   1 str   2   1   1.335
   2 str   3   2   1.785
   3 str   4   3   1.771
   4 str   5   4   1.393
   5 str   6   5   1.393
   6 str   7   6   1.394
   7 str   8   7   1.393
   8 str   9   4   1.401
   9 str   9   8   1.393
  10 str  10   2   1.785
  11 str  10   9   1.771
  12 str  11   1   1.082
  13 str  12   1   1.082
  14 str  13   5   1.084
  15 str  14   6   1.084
  16 str  15   7   1.084
  17 str  16   8   1.084
 nber stretches=          17
  18 ben   1   2   3
  19 prop tor   1   2   3   4
  20 ben   1   2  10
  21 prop tor   1   2  10   9
  22 ben   2   1  11
  23 ben   2   1  12
  24 ben   2   3   4
  25 prop tor   2   3   4   5
  26 prop tor   2   3   4   9
  27 ben   2  10   9
  28 ben   3   2  10
  29 prop tor   3   2  10   9
  30 ben   3   4   5
  31 prop tor   3   4   5   6
  32 prop tor   3   4   5  13
  33 ben   3   4   9
  34 prop tor   3   4   9   8
  35 prop tor   3   4   9  10
  36 ben   4   5   6
  37 prop tor   4   5   6   7
  38 prop tor   4   5   6  14
  39 ben   4   5  13
  40 ben   4   9   8
  41 ben   4   9  10
  42 prop tor   4   9  10   2
  43 ben   5   4   9
  44 prop tor   5   4   9   8
  45 prop tor   5   4   9  10
  46 ben   5   6   7
  47 prop tor   5   6   7   8
  48 prop tor   5   6   7  15
  49 ben   5   6  14
  50 ben   6   5  13
  51 ben   6   7   8
  52 prop tor   6   7   8   9
  53 prop tor   6   7   8  16
  54 ben   6   7  15
  55 ben   7   6  14
  56 ben   7   8   9
  57 prop tor   7   8   9   4
  58 prop tor   7   8   9  10
  59 ben   7   8  16
  60 ben   8   7  15
  61 ben   8   9  10
  62 prop tor   8   9  10   2
  63 prop tor   9   4   5   6
  64 prop tor   9   4   5  13
  65 ben   9   8  16
  66 prop tor  10   2   3   4
  67 prop tor  11   1   2   3
  68 prop tor  11   1   2  10
  69 ben  11   1  12
  70 prop tor  12   1   2   3
  71 prop tor  12   1   2  10
  72 prop tor  13   5   6   7
  73 prop tor  13   5   6  14
  74 prop tor  14   6   7   8
  75 prop tor  14   6   7  15
  76 prop tor  15   7   8   9
  77 prop tor  15   7   8  16
  78 prop tor  16   8   9   4
  79 prop tor  16   8   9  10
 nber bend=              26
 nber lin bend=           0
 nber prop tor=          36
 nber impr tor=           0
 nber tot redund int=          79
 Reading file: 
 ./Common_Moeties_7_C1S0.log                                                    
                                          
  Entering Gaussian System, Link 0=g16                                          
  
 Gaussian format, type: g94, g98, g03= F F F
  #P Geom=AllCheck Guess=TCheck SCRF=Check GenChk UB3LYP/6-311G(d,p) Fre    
 energy type= B3LYP   
 Original G94 input coords:
  6  3.733674  0.000000  0.000000
  6  2.370229  0.000000  0.000000
 16  1.435655  1.475062  0.000000
  6 -0.126633  0.710227  0.000000
  6 -1.335099  1.419339  0.000000
  6 -2.518528  0.705179  0.000000
  6 -2.518528 -0.705179  0.000000
  6 -1.335099 -1.419339  0.000000
  6 -0.126633 -0.710227  0.000000
 16  1.435655 -1.475062  0.000000
  1  4.293516 -0.927182  0.000000
  1  4.293516  0.927182  0.000000
  1 -1.339016  2.502137  0.000000
  1 -3.461846  1.237737  0.000000
  1 -3.461846 -1.237737  0.000000
  1 -1.339016 -2.502137  0.000000
 nber atoms=          16
 Original standard coords:
  6  0.000000  0.000000  3.340807
  6  0.000000  0.000000  1.977361
 16  0.000000  1.475062  1.042788
  6  0.000000  0.710227 -0.519500
  6  0.000000  1.419339 -1.727966
  6  0.000000  0.705179 -2.911395
  6  0.000000 -0.705179 -2.911395
  6  0.000000 -1.419339 -1.727966
  6  0.000000 -0.710227 -0.519500
 16  0.000000 -1.475062  1.042788
  1  0.000000 -0.927182  3.900649
  1  0.000000  0.927182  3.900649
  1  0.000000  2.502137 -1.731884
  1  0.000000  1.237737 -3.854713
  1  0.000000 -1.237737 -3.854713
  1  0.000000 -2.502137 -1.731884
  SCF Done:  E(UB3LYP) =  -1104.68048966     A.U. after    1 cycles             
  
          23          40 "  -1104.68048966"
After scan for Atom:   Atom  AN      X      Y      Z        X      Y      Z        X      Y      Z   
After scan for Atom:   Atom  AN      X      Y      Z        X      Y      Z        X      Y      Z   
After scan for Atom:   Atom  AN      X      Y      Z        X      Y      Z        X      Y      Z   
After scan for Atom:   Atom  AN      X      Y      Z        X      Y      Z        X      Y      Z   
After scan for Atom:   Atom  AN      X      Y      Z        X      Y      Z        X      Y      Z   
After scan for Atom:   Atom  AN      X      Y      Z        X      Y      Z        X      Y      Z   
After scan for Atom:   Atom  AN      X      Y      Z        X      Y      Z        X      Y      Z   
After scan for Atom:   Atom  AN      X      Y      Z        X      Y      Z        X      Y      Z   
After scan for Atom:   Atom  AN      X      Y      Z        X      Y      Z        X      Y      Z   
After scan for Atom:   Atom  AN      X      Y      Z        X      Y      Z        X      Y      Z   
After scan for Atom:   Atom  AN      X      Y      Z        X      Y      Z        X      Y      Z   
After scan for Atom:   Atom  AN      X      Y      Z        X      Y      Z        X      Y      Z   
After scan for Atom:   Atom  AN      X      Y      Z        X      Y      Z        X      Y      Z   
After scan for Atom:   Atom  AN      X      Y      Z        X      Y      Z        X      Y      Z   
 g94    frequencies=
     0.0    0.0    0.0    0.0    0.0    0.0   99.5  144.8  229.8  248.3
   369.6  419.8  425.3  444.0  472.4  475.2  491.3  552.6  593.2  664.0
   687.8  757.6  769.6  820.1  868.0  910.6  981.2 1023.5 1036.4 1062.5
  1108.0 1146.8 1177.4 1208.1 1280.1 1332.6 1364.7 1462.5 1466.6 1515.2
  1569.7 1601.5 3154.0 3190.7 3196.7 3203.8 3209.8 3253.9
 g94    symmetries=
                                                B1     A2     B1     B2
      B2     A1     B1     B1     A2     B2     A1     A2     A1     A2
      A1     B2     B1     B2     A2     B1     B1     A2     A1     B2
      A1     B2     B2     A1     B2     A1     A1     B2     A1     A1
      A1     B2     A1     B2     A1     B2     A1     B2
 atomic masses:
 12.0000 12.0000 31.9721 12.0000 12.0000 12.0000 12.0000 12.0000 12.0000 31.9721
  1.0078  1.0078  1.0078  1.0078  1.0078  1.0078
 looking for force constants in 
 ./Common_Moeties_7_C1S0.fchk                                                   
  
 Cartesian Force Constants                  R   N=        1176                  
  
 n3=          48        1176
 g94-fc frequencies=
    -0.0    0.0    0.0    4.5    5.0    5.7   99.5  144.8  229.8  248.3
   369.6  419.8  425.3  444.0  472.4  475.2  491.3  552.7  593.2  664.0
   687.8  757.6  769.6  820.1  868.0  910.6  981.3 1023.5 1036.4 1062.5
  1108.0 1146.8 1177.4 1208.2 1280.1 1332.6 1364.7 1462.5 1466.6 1515.2
  1569.7 1601.5 3154.0 3190.7 3196.8 3203.8 3209.9 3254.0
 at 99999: n3=          48
 symm operator            1 :  T  nop=           1
 symm operator            2 :  F  nop=           1
 symm operator            3 :  F  nop=           1
 symm operator            4 :  F  nop=           1
 symm operator            5 :  F  nop=           1
 symm operator            6 :  T  nop=           2
 symm operator            7 :  T  nop=           3
 The point group of the molecule is C2V
 enforcing symm op           1  jsymt=          -1          -1           1
 enforcing symm op           6  jsymt=           1          -1           1
 enforcing symm op           7  jsymt=          -1           1           1
 cartesian coord symmetries:
 A1 :   16 A2 :    7 B1 :    9 B2 :   16
 Symmetry rotation matrix:
   1.00000   0.00000   0.00000
   0.00000   1.00000   0.00000
   0.00000   0.00000   1.00000

 Projecting out zero-frequency components
 generating redundant internal coords
         300        3600          16
 search for int coords
   1 str   2   1   1.363
   2 str   3   2   1.746
   3 str   4   3   1.739
   4 str   5   4   1.401
   5 str   6   5   1.382
   6 str   7   6   1.410
   7 str   8   7   1.382
   8 str   9   4   1.420
   9 str   9   8   1.401
  10 str  10   2   1.746
  11 str  10   9   1.739
  12 str  11   1   1.083
  13 str  12   1   1.083
  14 str  13   5   1.083
  15 str  14   6   1.083
  16 str  15   7   1.083
  17 str  16   8   1.083
 nber stretches=          17
  18 ben   1   2   3
  19 prop tor   1   2   3   4
  20 ben   1   2  10
  21 prop tor   1   2  10   9
  22 ben   2   1  11
  23 ben   2   1  12
  24 ben   2   3   4
  25 prop tor   2   3   4   5
  26 prop tor   2   3   4   9
  27 ben   2  10   9
  28 ben   3   2  10
  29 prop tor   3   2  10   9
  30 ben   3   4   5
  31 prop tor   3   4   5   6
  32 prop tor   3   4   5  13
  33 ben   3   4   9
  34 prop tor   3   4   9   8
  35 prop tor   3   4   9  10
  36 ben   4   5   6
  37 prop tor   4   5   6   7
  38 prop tor   4   5   6  14
  39 ben   4   5  13
  40 ben   4   9   8
  41 ben   4   9  10
  42 prop tor   4   9  10   2
  43 ben   5   4   9
  44 prop tor   5   4   9   8
  45 prop tor   5   4   9  10
  46 ben   5   6   7
  47 prop tor   5   6   7   8
  48 prop tor   5   6   7  15
  49 ben   5   6  14
  50 ben   6   5  13
  51 ben   6   7   8
  52 prop tor   6   7   8   9
  53 prop tor   6   7   8  16
  54 ben   6   7  15
  55 ben   7   6  14
  56 ben   7   8   9
  57 prop tor   7   8   9   4
  58 prop tor   7   8   9  10
  59 ben   7   8  16
  60 ben   8   7  15
  61 ben   8   9  10
  62 prop tor   8   9  10   2
  63 prop tor   9   4   5   6
  64 prop tor   9   4   5  13
  65 ben   9   8  16
  66 prop tor  10   2   3   4
  67 prop tor  11   1   2   3
  68 prop tor  11   1   2  10
  69 ben  11   1  12
  70 prop tor  12   1   2   3
  71 prop tor  12   1   2  10
  72 prop tor  13   5   6   7
  73 prop tor  13   5   6  14
  74 prop tor  14   6   7   8
  75 prop tor  14   6   7  15
  76 prop tor  15   7   8   9
  77 prop tor  15   7   8  16
  78 prop tor  16   8   9   4
  79 prop tor  16   8   9  10
 nber bend=              26
 nber lin bend=           0
 nber prop tor=          36
 nber impr tor=           0
 nber tot redund int=          79
 Eigenvalues of G in red int coords
    Gval -0.00000000 -0.00000000 -0.00000000 -0.00000000 -0.00000000 -0.00000000 -0.00000000 -0.00000000
    Gval -0.00000000 -0.00000000 -0.00000000 -0.00000000 -0.00000000 -0.00000000 -0.00000000 -0.00000000
    Gval -0.00000000 -0.00000000  0.00000000  0.00000000  0.00000000  0.00000000  0.00000000  0.00000000
    Gval  0.00000000  0.00000000  0.00000000  0.00000000  0.00000000  0.00000000  0.00000000  0.00000000
    Gval  0.00000000  0.00000000  0.00000000  0.00000000  0.00000000  0.00001368  0.00001471  0.00002717
    Gval  0.00002904  0.00003478  0.00003888  0.00004358  0.00005586  0.00007255  0.00008017  0.00009944
    Gval  0.00012147  0.00014866  0.00015959  0.00018688  0.00019619  0.00020799  0.00031034  0.00033153
    Gval  0.00039520  0.00052961  0.00054230  0.00056619  0.00059313  0.00059734  0.00061734  0.00061917
    Gval  0.00065472  0.00077190  0.00078107  0.00105520  0.00112285  0.00116439  0.00117221  0.00128277
    Gval  0.00157313  0.00157957  0.00177686  0.00181601  0.00267384  0.00355094  0.00401239
  1.367736612830196E-005  1.367736612830196E-005
  1.470615750500092E-005  1.367736612830196E-005
  2.716620083224843E-005  1.367736612830196E-005
  2.903581193940224E-005  1.367736612830196E-005
  3.477995692123428E-005  1.367736612830196E-005
  3.888405024530010E-005  1.367736612830196E-005
  4.357529104339128E-005  1.367736612830196E-005
  5.586318600049780E-005  1.367736612830196E-005
  7.254984573210879E-005  1.367736612830196E-005
  8.016993440309850E-005  1.367736612830196E-005
  9.943961068559592E-005  1.367736612830196E-005
  1.214720308762226E-004  1.367736612830196E-005
  1.486576050921505E-004  1.367736612830196E-005
  1.595944101103689E-004  1.367736612830196E-005
  1.868842272062636E-004  1.367736612830196E-005
  1.961892866207050E-004  1.367736612830196E-005
  2.079855374707037E-004  1.367736612830196E-005
  3.103443534263858E-004  1.367736612830196E-005
  3.315298944070199E-004  1.367736612830196E-005
  3.951974352703213E-004  1.367736612830196E-005
  5.296099500056971E-004  1.367736612830196E-005
  5.422980744313930E-004  1.367736612830196E-005
  5.661890583662202E-004  1.367736612830196E-005
  5.931332548435966E-004  1.367736612830196E-005
  5.973353260244595E-004  1.367736612830196E-005
  6.173418635973379E-004  1.367736612830196E-005
  6.191651853566148E-004  1.367736612830196E-005
  6.547194409056692E-004  1.367736612830196E-005
  7.718965576715137E-004  1.367736612830196E-005
  7.810672132990886E-004  1.367736612830196E-005
  1.055198205257829E-003  1.367736612830196E-005
  1.122851287982275E-003  1.367736612830196E-005
  1.164389539498317E-003  1.367736612830196E-005
  1.172214190621691E-003  1.367736612830196E-005
  1.282768030139411E-003  1.367736612830196E-005
  1.573128230720539E-003  1.367736612830196E-005
  1.579571731206318E-003  1.367736612830196E-005
  1.776861233343592E-003  1.367736612830196E-005
  1.816012829131727E-003  1.367736612830196E-005
  2.673842720250758E-003  1.367736612830196E-005
  3.550944745401343E-003  1.367736612830196E-005
  4.012393280933456E-003  1.367736612830196E-005
 cut=1d-8, nber non-redundant internal coords=          42
 Check on Eigenvals of non-red overlap matrix:
  0.00001368  0.00001471  0.00002717  0.00002904  0.00003478  0.00003888  0.00004358  0.00005586
  0.00007255  0.00008017  0.00009944  0.00012147  0.00014866  0.00015959  0.00018688  0.00019619
  0.00020799  0.00031034  0.00033153  0.00039520  0.00052961  0.00054230  0.00056619  0.00059313
  0.00059734  0.00061734  0.00061917  0.00065472  0.00077190  0.00078107  0.00105520  0.00112285
  0.00116439  0.00117221  0.00128277  0.00157313  0.00157957  0.00177686  0.00181601  0.00267384
  0.00355094  0.00401239
 Checking for correct frequencies
 recalc frequencies=
    -0.0   -0.0   -0.0    0.0    0.0    0.0   99.5  144.8  229.8  248.3
   369.6  419.8  425.3  444.0  472.4  475.2  491.3  552.7  593.2  664.0
   687.8  757.6  769.6  820.1  868.0  910.6  981.3 1023.5 1036.4 1062.5
  1108.0 1146.8 1177.4 1208.2 1280.1 1332.6 1364.7 1462.5 1466.6 1515.2
  1569.7 1601.5 3154.0 3190.7 3196.8 3203.8 3209.9 3254.0
 recalc symmetries=
     A2     B2     B1     B1     B2     A1     B1     A2     B1     B2 
     B2     A1     B1     B1     A2     B2     A1     A2     A1     A2 
     A1     B2     B1     B2     A2     B1     B1     A2     A1     B2 
     A1     B2     B2     A1     B2     A1     A1     B2     A1     A1 
     A1     B2     A1     B2     A1     B2     A1     B2 
 recalc freqs check OK
 Zero-point lengths:
 10.0000 10.0000 10.0000 10.0000 10.0000 10.0000 24.8564 20.6026 16.3536 15.7322
 12.8948 12.1000 12.0209 11.7655 11.4059 11.3727 11.1843 10.5455 10.1783  9.6208
  9.4526  9.0069  8.9364  8.6570  8.4147  8.2154  7.9142  7.7490  7.7007  7.6055
  7.4477  7.3205  7.2248  7.1323  6.9291  6.7911  6.7108  6.4826  6.4735  6.3688
  6.2573  6.1948  4.4143  4.3888  4.3847  4.3799  4.3757  4.3460
 highest evec of mol 2
  0.0000 -0.3307  0.0000
  0.0000 -0.0019  0.0000
  0.0000  0.0006 -0.0012
  0.0000  0.0002 -0.0004
  0.0000 -0.0001 -0.0002
  0.0000  0.0001  0.0000
  0.0000  0.0001 -0.0000
  0.0000 -0.0001  0.0002
  0.0000  0.0002  0.0004
  0.0000  0.0006  0.0012
  0.0000  0.5694 -0.3480
  0.0000  0.5694  0.3480
  0.0000  0.0003  0.0000
  0.0000 -0.0000  0.0001
  0.0000 -0.0000 -0.0001
  0.0000  0.0003 -0.0000
 Enter nber and list of atoms to keep of mol #2
 keep list:          16           1           2           3           4
           5           6           7           8           9          10
          11          12          13          14          15          16
 reordering atoms
           1   3.29900782022186     
           2   1.93556182022186     
           3   1.00098882022186     
           4 -0.561299179778140     
           5  -1.76976517977814     
           6  -2.95319417977814     
           7  -2.95319417977814     
           8  -1.76976517977814     
           9 -0.561299179778140     
          10   1.00098882022186     
          11   3.85884982022186     
          12   3.85884982022186     
          13  -1.77368317977814     
          14  -3.89651217977814     
          15  -3.89651217977814     
          16  -1.77368317977814     
           1           1
           2           2
           3           3
           4           4
           5           5
           6           6
           7           7
           8           8
           9           9
          10          10
          11          11
          12          12
          13          13
          14          14
          15          15
          16          16
 initial cartes coords mol 1
   6   0.00000  -0.00000   3.32106
   6   0.00000  -0.00000   1.98595
  16   0.00000   1.49261   1.00774
   6   0.00000   0.70034  -0.57585
   6   0.00000   1.40077  -1.78030
   6   0.00000   0.69700  -2.98232
   6   0.00000  -0.69700  -2.98232
   6   0.00000  -1.40077  -1.78030
   6   0.00000  -0.70034  -0.57585
  16   0.00000  -1.49261   1.00774
   1   0.00000  -0.92571   3.88167
   1   0.00000   0.92571   3.88167
   1   0.00000   2.48461  -1.77978
   1   0.00000   1.24107  -3.91935
   1   0.00000  -1.24107  -3.91935
   1   0.00000  -2.48461  -1.77978
 initial cartes coords mol 2
   6   0.00000  -0.00000   3.29901
   6   0.00000  -0.00000   1.93556
  16   0.00000   1.47506   1.00099
   6   0.00000   0.71023  -0.56130
   6   0.00000   1.41934  -1.76977
   6   0.00000   0.70518  -2.95319
   6   0.00000  -0.70518  -2.95319
   6   0.00000  -1.41934  -1.76977
   6   0.00000  -0.71023  -0.56130
  16   0.00000  -1.47506   1.00099
   1   0.00000  -0.92718   3.85885
   1   0.00000   0.92718   3.85885
   1   0.00000   2.50214  -1.77368
   1   0.00000   1.23774  -3.89651
   1   0.00000  -1.23774  -3.89651
   1   0.00000  -2.50214  -1.77368
 loop 1 0
 mod cartes coords mol 2
   6   0.00000  -0.00000   3.29901
   6   0.00000  -0.00000   1.93556
  16   0.00000   1.47506   1.00099
   6   0.00000   0.71023  -0.56130
   6   0.00000   1.41934  -1.76977
   6   0.00000   0.70518  -2.95319
   6   0.00000  -0.70518  -2.95319
   6   0.00000  -1.41934  -1.76977
   6   0.00000  -0.71023  -0.56130
  16   0.00000  -1.47506   1.00099
   1   0.00000  -0.92718   3.85885
   1   0.00000   0.92718   3.85885
   1   0.00000   2.50214  -1.77368
   1   0.00000   1.23774  -3.89651
   1   0.00000  -1.23774  -3.89651
   1   0.00000  -2.50214  -1.77368
 read in order, maxerr=  0.05 for atom   2
 final axis swaps:           1           1           1
 final xyz swap pattern=           1
 reorder list:
   1   2   3   4   5   6   7   8   9  10  11  12  13  14  15  16
 axis signs=           1           1           1
  6     0.000000 -0.000000  3.299008     0.000000 -0.000000  3.321062
  6     0.000000 -0.000000  1.935562     0.000000 -0.000000  1.985955
 16     0.000000  1.475062  1.000989     0.000000  1.492607  1.007738
  6     0.000000  0.710227 -0.561299     0.000000  0.700341 -0.575848
  6     0.000000  1.419339 -1.769765     0.000000  1.400769 -1.780296
  6     0.000000  0.705179 -2.953194     0.000000  0.696995 -2.982318
  6     0.000000 -0.705179 -2.953194     0.000000 -0.696995 -2.982318
  6     0.000000 -1.419339 -1.769765     0.000000 -1.400769 -1.780296
  6     0.000000 -0.710227 -0.561299     0.000000 -0.700341 -0.575848
 16     0.000000 -1.475062  1.000989     0.000000 -1.492607  1.007738
  1     0.000000 -0.927182  3.858850     0.000000 -0.925707  3.881670
  1     0.000000  0.927182  3.858850     0.000000  0.925707  3.881670
  1     0.000000  2.502137 -1.773683     0.000000  2.484610 -1.779781
  1     0.000000  1.237737 -3.896512     0.000000  1.241070 -3.919347
  1     0.000000 -1.237737 -3.896512     0.000000 -1.241070 -3.919347
  1     0.000000 -2.502137 -1.773683     0.000000 -2.484610 -1.779781
 generating redundant internal coords
         300        3600          16
 Adding extra bonds for z output only
           6           6          16           6           6           6
           6           6           6          16           1           1
           1           1           1           1
 search for int coords
   1 str   2   1   1.363
   2 str   3   2   1.746
   3 str   4   3   1.739
   4 str   5   4   1.401
   5 str   6   5   1.382
   6 str   7   6   1.410
   7 str   8   7   1.382
   8 str   9   4   1.420
   9 str   9   8   1.401
  10 str  10   2   1.746
  11 str  10   9   1.739
  12 str  11   1   1.083
  13 str  12   1   1.083
  14 str  13   5   1.083
  15 str  14   6   1.083
  16 str  15   7   1.083
  17 str  16   8   1.083
 nber stretches=          17
  18 ben   1   2   3
  19 prop tor   1   2   3   4
  20 ben   1   2  10
  21 prop tor   1   2  10   9
  22 ben   2   1  11
  23 ben   2   1  12
  24 ben   2   3   4
  25 prop tor   2   3   4   5
  26 prop tor   2   3   4   9
  27 ben   2  10   9
  28 ben   3   2  10
  29 prop tor   3   2  10   9
  30 ben   3   4   5
  31 prop tor   3   4   5   6
  32 prop tor   3   4   5  13
  33 ben   3   4   9
  34 prop tor   3   4   9   8
  35 prop tor   3   4   9  10
  36 ben   4   5   6
  37 prop tor   4   5   6   7
  38 prop tor   4   5   6  14
  39 ben   4   5  13
  40 ben   4   9   8
  41 ben   4   9  10
  42 prop tor   4   9  10   2
  43 ben   5   4   9
  44 prop tor   5   4   9   8
  45 prop tor   5   4   9  10
  46 ben   5   6   7
  47 prop tor   5   6   7   8
  48 prop tor   5   6   7  15
  49 ben   5   6  14
  50 ben   6   5  13
  51 ben   6   7   8
  52 prop tor   6   7   8   9
  53 prop tor   6   7   8  16
  54 ben   6   7  15
  55 ben   7   6  14
  56 ben   7   8   9
  57 prop tor   7   8   9   4
  58 prop tor   7   8   9  10
  59 ben   7   8  16
  60 ben   8   7  15
  61 ben   8   9  10
  62 prop tor   8   9  10   2
  63 prop tor   9   4   5   6
  64 prop tor   9   4   5  13
  65 ben   9   8  16
  66 prop tor  10   2   3   4
  67 prop tor  11   1   2   3
  68 prop tor  11   1   2  10
  69 ben  11   1  12
  70 prop tor  12   1   2   3
  71 prop tor  12   1   2  10
  72 prop tor  13   5   6   7
  73 prop tor  13   5   6  14
  74 prop tor  14   6   7   8
  75 prop tor  14   6   7  15
  76 prop tor  15   7   8   9
  77 prop tor  15   7   8  16
  78 prop tor  16   8   9   4
  79 prop tor  16   8   9  10
 nber bend=              26
 nber lin bend=           0
 nber prop tor=          36
 nber impr tor=           0
 nber tot redund int=          79
 generating redundant internal coords
         300        3600          16
 search for int coords
   1 str   2   1   1.335
   2 str   3   2   1.785
   3 str   4   3   1.771
   4 str   5   4   1.393
   5 str   6   5   1.393
   6 str   7   6   1.394
   7 str   8   7   1.393
   8 str   9   4   1.401
   9 str   9   8   1.393
  10 str  10   2   1.785
  11 str  10   9   1.771
  12 str  11   1   1.082
  13 str  12   1   1.082
  14 str  13   5   1.084
  15 str  14   6   1.084
  16 str  15   7   1.084
  17 str  16   8   1.084
 nber stretches=          17
  18 ben   1   2   3
  19 prop tor   1   2   3   4
  20 ben   1   2  10
  21 prop tor   1   2  10   9
  22 ben   2   1  11
  23 ben   2   1  12
  24 ben   2   3   4
  25 prop tor   2   3   4   5
  26 prop tor   2   3   4   9
  27 ben   2  10   9
  28 ben   3   2  10
  29 prop tor   3   2  10   9
  30 ben   3   4   5
  31 prop tor   3   4   5   6
  32 prop tor   3   4   5  13
  33 ben   3   4   9
  34 prop tor   3   4   9   8
  35 prop tor   3   4   9  10
  36 ben   4   5   6
  37 prop tor   4   5   6   7
  38 prop tor   4   5   6  14
  39 ben   4   5  13
  40 ben   4   9   8
  41 ben   4   9  10
  42 prop tor   4   9  10   2
  43 ben   5   4   9
  44 prop tor   5   4   9   8
  45 prop tor   5   4   9  10
  46 ben   5   6   7
  47 prop tor   5   6   7   8
  48 prop tor   5   6   7  15
  49 ben   5   6  14
  50 ben   6   5  13
  51 ben   6   7   8
  52 prop tor   6   7   8   9
  53 prop tor   6   7   8  16
  54 ben   6   7  15
  55 ben   7   6  14
  56 ben   7   8   9
  57 prop tor   7   8   9   4
  58 prop tor   7   8   9  10
  59 ben   7   8  16
  60 ben   8   7  15
  61 ben   8   9  10
  62 prop tor   8   9  10   2
  63 prop tor   9   4   5   6
  64 prop tor   9   4   5  13
  65 ben   9   8  16
  66 prop tor  10   2   3   4
  67 prop tor  11   1   2   3
  68 prop tor  11   1   2  10
  69 ben  11   1  12
  70 prop tor  12   1   2   3
  71 prop tor  12   1   2  10
  72 prop tor  13   5   6   7
  73 prop tor  13   5   6  14
  74 prop tor  14   6   7   8
  75 prop tor  14   6   7  15
  76 prop tor  15   7   8   9
  77 prop tor  15   7   8  16
  78 prop tor  16   8   9   4
  79 prop tor  16   8   9  10
 nber bend=              26
 nber lin bend=           0
 nber prop tor=          36
 nber impr tor=           0
 nber tot redund int=          79
 Eigenvalues of G in red int coords
    Gval -0.00000000 -0.00000000 -0.00000000 -0.00000000 -0.00000000 -0.00000000 -0.00000000 -0.00000000
    Gval -0.00000000 -0.00000000 -0.00000000 -0.00000000 -0.00000000 -0.00000000 -0.00000000 -0.00000000
    Gval -0.00000000  0.00000000  0.00000000  0.00000000  0.00000000  0.00000000  0.00000000  0.00000000
    Gval  0.00000000  0.00000000  0.00000000  0.00000000  0.00000000  0.00000000  0.00000000  0.00000000
    Gval  0.00000000  0.00000000  0.00000000  0.00000000  0.00000000  0.00001366  0.00001465  0.00002722
    Gval  0.00002891  0.00003432  0.00003887  0.00004347  0.00005602  0.00007237  0.00007947  0.00009931
    Gval  0.00012135  0.00014771  0.00016026  0.00018252  0.00019568  0.00020436  0.00031109  0.00033149
    Gval  0.00040022  0.00053010  0.00054354  0.00056629  0.00059318  0.00059738  0.00061752  0.00062396
    Gval  0.00065511  0.00077131  0.00078013  0.00105446  0.00112194  0.00116032  0.00117276  0.00128640
    Gval  0.00157536  0.00159714  0.00177761  0.00183643  0.00266668  0.00351761  0.00402467
  1.366099998157398E-005  1.366099998157398E-005
  1.464771520757781E-005  1.366099998157398E-005
  2.721648231948988E-005  1.366099998157398E-005
  2.891010372710558E-005  1.366099998157398E-005
  3.431972593928321E-005  1.366099998157398E-005
  3.886747022643758E-005  1.366099998157398E-005
  4.346934334840235E-005  1.366099998157398E-005
  5.602049395663777E-005  1.366099998157398E-005
  7.237188574635483E-005  1.366099998157398E-005
  7.947498840804944E-005  1.366099998157398E-005
  9.930785786971015E-005  1.366099998157398E-005
  1.213475220269671E-004  1.366099998157398E-005
  1.477120268964695E-004  1.366099998157398E-005
  1.602575482481032E-004  1.366099998157398E-005
  1.825186154427594E-004  1.366099998157398E-005
  1.956785104341656E-004  1.366099998157398E-005
  2.043588652291050E-004  1.366099998157398E-005
  3.110906349370945E-004  1.366099998157398E-005
  3.314854781788611E-004  1.366099998157398E-005
  4.002249703102820E-004  1.366099998157398E-005
  5.301025223707189E-004  1.366099998157398E-005
  5.435421953441067E-004  1.366099998157398E-005
  5.662920912012819E-004  1.366099998157398E-005
  5.931787205262092E-004  1.366099998157398E-005
  5.973791223849597E-004  1.366099998157398E-005
  6.175222125220981E-004  1.366099998157398E-005
  6.239574810037776E-004  1.366099998157398E-005
  6.551092161378296E-004  1.366099998157398E-005
  7.713092761211162E-004  1.366099998157398E-005
  7.801339710306756E-004  1.366099998157398E-005
  1.054455407563960E-003  1.366099998157398E-005
  1.121943364520045E-003  1.366099998157398E-005
  1.160318372326740E-003  1.366099998157398E-005
  1.172762937058048E-003  1.366099998157398E-005
  1.286402367965953E-003  1.366099998157398E-005
  1.575360021175006E-003  1.366099998157398E-005
  1.597140981800714E-003  1.366099998157398E-005
  1.777607306376283E-003  1.366099998157398E-005
  1.836425824554714E-003  1.366099998157398E-005
  2.666677377368127E-003  1.366099998157398E-005
  3.517614410247546E-003  1.366099998157398E-005
  4.024669416461239E-003  1.366099998157398E-005
 cut=1d-8, nber non-redundant internal coords=          42
 Check on Eigenvals of non-red overlap matrix:
  0.00001366  0.00001465  0.00002722  0.00002891  0.00003432  0.00003887  0.00004347  0.00005602
  0.00007237  0.00007947  0.00009931  0.00012135  0.00014771  0.00016026  0.00018252  0.00019568
  0.00020436  0.00031109  0.00033149  0.00040022  0.00053010  0.00054354  0.00056629  0.00059318
  0.00059738  0.00061752  0.00062396  0.00065511  0.00077131  0.00078013  0.00105446  0.00112194
  0.00116032  0.00117276  0.00128640  0.00157536  0.00159714  0.00177761  0.00183643  0.00266668
  0.00351761  0.00402467
 generating redundant internal coords
         300        3600          16
 search for int coords
   1 str   2   1   1.363
   2 str   3   2   1.746
   3 str   4   3   1.739
   4 str   5   4   1.401
   5 str   6   5   1.382
   6 str   7   6   1.410
   7 str   8   7   1.382
   8 str   9   4   1.420
   9 str   9   8   1.401
  10 str  10   2   1.746
  11 str  10   9   1.739
  12 str  11   1   1.083
  13 str  12   1   1.083
  14 str  13   5   1.083
  15 str  14   6   1.083
  16 str  15   7   1.083
  17 str  16   8   1.083
 nber stretches=          17
  18 ben   1   2   3
  19 prop tor   1   2   3   4
  20 ben   1   2  10
  21 prop tor   1   2  10   9
  22 ben   2   1  11
  23 ben   2   1  12
  24 ben   2   3   4
  25 prop tor   2   3   4   5
  26 prop tor   2   3   4   9
  27 ben   2  10   9
  28 ben   3   2  10
  29 prop tor   3   2  10   9
  30 ben   3   4   5
  31 prop tor   3   4   5   6
  32 prop tor   3   4   5  13
  33 ben   3   4   9
  34 prop tor   3   4   9   8
  35 prop tor   3   4   9  10
  36 ben   4   5   6
  37 prop tor   4   5   6   7
  38 prop tor   4   5   6  14
  39 ben   4   5  13
  40 ben   4   9   8
  41 ben   4   9  10
  42 prop tor   4   9  10   2
  43 ben   5   4   9
  44 prop tor   5   4   9   8
  45 prop tor   5   4   9  10
  46 ben   5   6   7
  47 prop tor   5   6   7   8
  48 prop tor   5   6   7  15
  49 ben   5   6  14
  50 ben   6   5  13
  51 ben   6   7   8
  52 prop tor   6   7   8   9
  53 prop tor   6   7   8  16
  54 ben   6   7  15
  55 ben   7   6  14
  56 ben   7   8   9
  57 prop tor   7   8   9   4
  58 prop tor   7   8   9  10
  59 ben   7   8  16
  60 ben   8   7  15
  61 ben   8   9  10
  62 prop tor   8   9  10   2
  63 prop tor   9   4   5   6
  64 prop tor   9   4   5  13
  65 ben   9   8  16
  66 prop tor  10   2   3   4
  67 prop tor  11   1   2   3
  68 prop tor  11   1   2  10
  69 ben  11   1  12
  70 prop tor  12   1   2   3
  71 prop tor  12   1   2  10
  72 prop tor  13   5   6   7
  73 prop tor  13   5   6  14
  74 prop tor  14   6   7   8
  75 prop tor  14   6   7  15
  76 prop tor  15   7   8   9
  77 prop tor  15   7   8  16
  78 prop tor  16   8   9   4
  79 prop tor  16   8   9  10
 nber bend=              26
 nber lin bend=           0
 nber prop tor=          36
 nber impr tor=           0
 nber tot redund int=          79
 Eigenvalues of G in red int coords
    Gval -0.00000000 -0.00000000 -0.00000000 -0.00000000 -0.00000000 -0.00000000 -0.00000000 -0.00000000
    Gval -0.00000000 -0.00000000 -0.00000000 -0.00000000 -0.00000000 -0.00000000 -0.00000000 -0.00000000
    Gval -0.00000000 -0.00000000 -0.00000000  0.00000000  0.00000000  0.00000000  0.00000000  0.00000000
    Gval  0.00000000  0.00000000  0.00000000  0.00000000  0.00000000  0.00000000  0.00000000  0.00000000
    Gval  0.00000000  0.00000000  0.00000000  0.00000000  0.00000000  0.00001368  0.00001471  0.00002717
    Gval  0.00002904  0.00003478  0.00003888  0.00004358  0.00005586  0.00007255  0.00008017  0.00009944
    Gval  0.00012147  0.00014866  0.00015959  0.00018688  0.00019619  0.00020799  0.00031034  0.00033153
    Gval  0.00039520  0.00052961  0.00054230  0.00056619  0.00059313  0.00059734  0.00061734  0.00061917
    Gval  0.00065472  0.00077190  0.00078107  0.00105520  0.00112285  0.00116439  0.00117221  0.00128277
    Gval  0.00157313  0.00157957  0.00177686  0.00181601  0.00267384  0.00355094  0.00401239
  1.367736612830193E-005  1.367736612830193E-005
  1.470615750500089E-005  1.367736612830193E-005
  2.716620083224840E-005  1.367736612830193E-005
  2.903581193940217E-005  1.367736612830193E-005
  3.477995692123423E-005  1.367736612830193E-005
  3.888405024530000E-005  1.367736612830193E-005
  4.357529104339112E-005  1.367736612830193E-005
  5.586318600049788E-005  1.367736612830193E-005
  7.254984573210887E-005  1.367736612830193E-005
  8.016993440309855E-005  1.367736612830193E-005
  9.943961068559637E-005  1.367736612830193E-005
  1.214720308762224E-004  1.367736612830193E-005
  1.486576050921501E-004  1.367736612830193E-005
  1.595944101103686E-004  1.367736612830193E-005
  1.868842272062634E-004  1.367736612830193E-005
  1.961892866207052E-004  1.367736612830193E-005
  2.079855374707039E-004  1.367736612830193E-005
  3.103443534263856E-004  1.367736612830193E-005
  3.315298944070199E-004  1.367736612830193E-005
  3.951974352703215E-004  1.367736612830193E-005
  5.296099500056974E-004  1.367736612830193E-005
  5.422980744313930E-004  1.367736612830193E-005
  5.661890583662204E-004  1.367736612830193E-005
  5.931332548435968E-004  1.367736612830193E-005
  5.973353260244592E-004  1.367736612830193E-005
  6.173418635973389E-004  1.367736612830193E-005
  6.191651853566164E-004  1.367736612830193E-005
  6.547194409056692E-004  1.367736612830193E-005
  7.718965576715144E-004  1.367736612830193E-005
  7.810672132990875E-004  1.367736612830193E-005
  1.055198205257829E-003  1.367736612830193E-005
  1.122851287982274E-003  1.367736612830193E-005
  1.164389539498318E-003  1.367736612830193E-005
  1.172214190621687E-003  1.367736612830193E-005
  1.282768030139411E-003  1.367736612830193E-005
  1.573128230720543E-003  1.367736612830193E-005
  1.579571731206314E-003  1.367736612830193E-005
  1.776861233343592E-003  1.367736612830193E-005
  1.816012829131731E-003  1.367736612830193E-005
  2.673842720250761E-003  1.367736612830193E-005
  3.550944745401339E-003  1.367736612830193E-005
  4.012393280933454E-003  1.367736612830193E-005
 cut=1d-8, nber non-redundant internal coords=          42
 Check on Eigenvals of non-red overlap matrix:
  0.00001368  0.00001471  0.00002717  0.00002904  0.00003478  0.00003888  0.00004358  0.00005586
  0.00007255  0.00008017  0.00009944  0.00012147  0.00014866  0.00015959  0.00018688  0.00019619
  0.00020799  0.00031034  0.00033153  0.00039520  0.00052961  0.00054230  0.00056619  0.00059313
  0.00059734  0.00061734  0.00061917  0.00065472  0.00077190  0.00078107  0.00105520  0.00112285
  0.00116439  0.00117221  0.00128277  0.00157313  0.00157957  0.00177686  0.00181601  0.00267384
  0.00355094  0.00401239
 d1=
  -0.0   9.6  -0.0   3.7   1.1   0.0  -0.0  -6.1  -0.0   1.5   0.0   4.2   2.8  -0.0  -3.7  -0.0   0.0   0.0  -0.4   0.0
   0.0   0.0   0.0  -0.0  -0.0  -0.4   0.0   0.0   0.0   0.0   0.3  -0.0  -0.0   0.0  -0.0   0.1  -0.0   0.0  -0.0   0.0
   0.0  -0.0
 d2=
  -0.0   9.7   0.0   3.7   0.9   0.0   0.0  -6.1   0.0   1.5  -0.0   4.2  -2.8   0.0  -3.6  -0.0  -0.0  -0.0   0.4   0.0
  -0.0   0.0  -0.0   0.0  -0.0   0.4   0.0   0.0   0.0  -0.0   0.3  -0.0   0.0  -0.0   0.0   0.1   0.0   0.0  -0.0  -0.0
   0.0   0.0
 curvilinear- renormalizn of Dush matrix done
  mol 1 sym            1  -> mol 2 sym            1
  mol 1 sym            2  -> mol 2 sym            2
  mol 1 sym            3  -> mol 2 sym            3
  mol 1 sym            4  -> mol 2 sym            4

 Dushinsky matrix, ncs 2 in terms of ncs 1

   mode   freq    coeff     %      %tot     of    at

   1 A2     -0.  0.0000     0.0     0.0   8 A2    136.
   2 B2     -0. -0.0000     0.0     0.0  11 B2    373.
   3 B1     -0. -0.0000     0.0     0.0   7 B1     25.
   4 B1      0.  0.0000     0.0     0.0   7 B1     25.
   5 B2      0.  0.0000     0.0     0.0  16 B2    477.
   6 A1      0.  0.0000     0.0     0.0  12 A1    405.
   7 B1     99. -0.9725    94.6   100.0   7 B1     25.
   8 A2    145.  0.9984    99.7   100.1   8 A2    136.
   9 B1    230. -0.9701    94.1   102.1   9 B1    215.
  10 B2    248.  0.9969    99.4    98.9  10 B2    259.
  11 B2    370.  0.9960    99.2   100.4  11 B2    373.
  12 A1    420. -0.9940    98.8   102.1  12 A1    405.
  13 B1    425.  0.9843    96.9    99.4  13 B1    420.
  14 B1    444.  0.9664    93.4   100.4  14 B1    453.
  15 A2    472. -0.9784    95.7   100.8  17 A2    491.
  16 B2    475.  0.9973    99.5    99.6  16 B2    477.
  17 A1    491.  0.9885    97.7   101.2  15 A1    474.
  18 A2    553.  0.9735    94.8    99.7  19 A2    632.
  19 A1    593.  0.9965    99.3   100.6  18 A1    580.
  20 A2    664. -0.9891    97.8    99.2  20 A2    680.
  21 A1    688.  0.9962    99.3   101.2  21 A1    687.
  22 B2    758. -0.9740    94.9    99.9  22 B2    740.
  23 B1    770.  0.9941    98.8   100.0  23 B1    750.
  24 B2    820. -0.9758    95.2   101.2  24 B2    775.
  25 A2    868. -0.9964    99.3   100.6  26 A2    855.
  26 B1    911.  0.9995    99.9    99.3  25 B1    817.
  27 B1    981.  0.9946    98.9   100.7  27 B1    936.
  28 A2   1024.  0.9972    99.4    99.5  28 A2    980.
  29 A1   1036.  0.9891    97.8    99.5  30 A1   1051.
  30 B2   1062. -0.9960    99.2    99.6  29 B2   1050.
  31 A1   1108. -0.9771    95.5    99.9  32 A1   1136.
  32 B2   1147.  0.9943    98.9    99.2  31 B2   1122.
  33 B2   1177.  0.9982    99.6    99.7  33 B2   1152.
  34 A1   1208.  0.9897    98.0   100.3  34 A1   1186.
  35 B2   1280. -0.9934    98.7    99.9  35 B2   1287.
  36 A1   1333. -0.8823    77.8   100.2  36 A1   1320.
                 0.3478    12.1          37 A1   1418.
  37 A1   1365. -0.4338    18.8   100.3  36 A1   1320.
                -0.7474    55.9          37 A1   1418.
                -0.4554    20.7          42 A1   1635.
  38 B2   1462. -0.9743    94.9    99.8  38 B2   1466.
  39 A1   1467.  0.9592    92.0   100.3  39 A1   1483.
  40 A1   1515.  0.5090    25.9   100.1  37 A1   1418.
                -0.8015    64.2          42 A1   1635.
  41 A1   1570.  0.9629    92.7   100.7  40 A1   1604.
  42 B2   1602. -0.9750    95.1    99.4  41 B2   1614.
  43 A1   3154. -0.9999   100.0   100.0  43 A1   3152.
  44 B2   3191.  0.9955    99.1   100.0  44 B2   3169.
  45 A1   3197.  0.9938    98.8   100.0  45 A1   3176.
  46 B2   3204.  0.9955    99.1   100.0  46 B2   3185.
  47 A1   3210.  0.9938    98.8   100.0  47 A1   3196.
  48 B2   3254. -1.0000   100.0   100.0  48 B2   3237.
 nber times 1st assigned=           1           0
 nber times 1st assigned=           2           0
 nber times 1st assigned=           3           0
 nber times 1st assigned=           4           0
 nber times 1st assigned=           5           0
 nber times 1st assigned=           6           0
 nber times 1st assigned=           7           2
 nber times 1st assigned=           9           0
 nber times 1st assigned=          10           0
 nber times 1st assigned=          13           0
 nber times 1st assigned=          14           0
 nber times 1st assigned=          15           0
 nber times 1st assigned=          17           0
 nber times 1st assigned=          18           0
 nber times 1st assigned=          19           0
 nber times 1st assigned=          20           0
 nber times 1st assigned=          21           0
 nber times 1st assigned=          22           0
 nber times 1st assigned=          23           0
 nber times 1st assigned=          24           0
 nber times 1st assigned=          25           0
 nber times 1st assigned=          26           0
 nber times 1st assigned=          27           0
 nber times 1st assigned=          28           0
 nber times 1st assigned=          29           0
 nber times 1st assigned=          30           0
 nber times 1st assigned=          31           0
 nber times 1st assigned=          32           0
 nber times 1st assigned=          33           0
 nber times 1st assigned=          34           0
 nber times 1st assigned=          35           0
 nber times 1st assigned=          36           0
 nber times 1st assigned=          37           0
 nber times 1st assigned=          38           0
 nber times 1st assigned=          39           0
 nber times 1st assigned=          40           0
 nber times 1st assigned=          41           0
 nber times 1st assigned=          42           0
 nber times 1st assigned=          43           0
 nber times 1st assigned=          44           0
 nber times 1st assigned=          45           0
 nber times 1st assigned=          46           0
 nber times 1st assigned=          47           0
 nber times 1st assigned=          48           0
 Dushinsky matrix written to .out file
 modes represented=   42.0575780722295     

 Dushinsky matrix, ncs 1 in terms of ncs 2

   mode   freq    coeff     %      %tot     of    at

   7 B1     25. -0.9725    94.6   102.2   7 B1     99.
   8 A2    136.  0.9984    99.7   100.1   8 A2    145.
   9 B1    215. -0.9701    94.1   102.7   9 B1    230.
  10 B2    259.  0.9969    99.4    99.4  10 B2    248.
  11 B2    373.  0.9960    99.2   100.1  11 B2    370.
  12 A1    405. -0.9940    98.8   103.0  12 A1    420.
  13 B1    420.  0.9843    96.9    98.9  13 B1    425.
  14 B1    453.  0.9664    93.4    98.1  14 B1    444.
  15 A1    474.  0.9885    97.7   100.7  17 A1    491.
  16 B2    477.  0.9973    99.5    99.7  16 B2    475.
  17 A2    491. -0.9784    95.7   100.6  15 A2    472.
  18 A1    580.  0.9965    99.3   100.8  19 A1    593.
  19 A2    632.  0.9735    94.8    99.8  18 A2    553.
  20 A2    680. -0.9891    97.8    99.4  20 A2    664.
  21 A1    687.  0.9962    99.3   100.9  21 A1    688.
  22 B2    740. -0.9740    94.9    99.8  22 B2    758.
  23 B1    750.  0.9941    98.8    99.9  23 B1    770.
  24 B2    775. -0.9758    95.2   101.2  24 B2    820.
  25 B1    817.  0.9995    99.9    99.2  26 B1    911.
  26 A2    855. -0.9964    99.3   100.5  25 A2    868.
  27 B1    936.  0.9946    98.9   100.7  27 B1    981.
  28 A2    980.  0.9972    99.4    99.6  28 A2   1024.
  29 B2   1050. -0.9960    99.2    99.6  30 B2   1062.
  30 A1   1051.  0.9891    97.8    99.5  29 A1   1036.
  31 B2   1122.  0.9943    98.9    98.9  32 B2   1147.
  32 A1   1136. -0.9771    95.5   100.0  31 A1   1108.
  33 B2   1152.  0.9982    99.6    99.7  33 B2   1177.
  34 A1   1186.  0.9897    98.0   100.2  34 A1   1208.
  35 B2   1287. -0.9934    98.7   100.0  35 B2   1280.
  36 A1   1320. -0.8823    77.8   100.1  36 A1   1333.
                -0.4338    18.8          37 A1   1365.
  37 A1   1418.  0.3478    12.1    99.9  36 A1   1333.
                -0.7474    55.9          37 A1   1365.
                 0.5090    25.9          40 A1   1515.
  38 B2   1466. -0.9743    94.9    99.6  38 B2   1462.
  39 A1   1483.  0.9592    92.0   100.3  39 A1   1467.
  40 A1   1604.  0.9629    92.7   100.6  41 A1   1570.
  41 B2   1614. -0.9750    95.1    99.5  42 B2   1602.
  42 A1   1635. -0.4554    20.7   100.2  37 A1   1365.
                -0.8015    64.2          40 A1   1515.
  43 A1   3152. -0.9999   100.0   100.0  43 A1   3154.
  44 B2   3169.  0.9955    99.1   100.0  44 B2   3191.
  45 A1   3176.  0.9938    98.8   100.0  45 A1   3197.
  46 B2   3185.  0.9955    99.1   100.0  46 B2   3204.
  47 A1   3196.  0.9938    98.8   100.0  47 A1   3210.
  48 B2   3237. -1.0000   100.0   100.0  48 B2   3254.
 nber times 1st assigned=           1           0
 nber times 1st assigned=           2           0
 nber times 1st assigned=           3           0
 nber times 1st assigned=           4           0
 nber times 1st assigned=           5           0
 nber times 1st assigned=           6           0
 nber times 1st assigned=           7           0
 nber times 1st assigned=           8           0
 nber times 1st assigned=           9           0
 nber times 1st assigned=          10           0
 nber times 1st assigned=          11           0
 nber times 1st assigned=          12           0
 nber times 1st assigned=          13           0
 nber times 1st assigned=          14           0
 nber times 1st assigned=          15           0
 nber times 1st assigned=          16           0
 nber times 1st assigned=          17           0
 nber times 1st assigned=          18           0
 nber times 1st assigned=          19           0
 nber times 1st assigned=          20           0
 nber times 1st assigned=          21           0
 nber times 1st assigned=          22           0
 nber times 1st assigned=          23           0
 nber times 1st assigned=          24           0
 nber times 1st assigned=          25           0
 nber times 1st assigned=          26           0
 nber times 1st assigned=          27           0
 nber times 1st assigned=          28           0
 nber times 1st assigned=          29           0
 nber times 1st assigned=          30           0
 nber times 1st assigned=          31           0
 nber times 1st assigned=          32           0
 nber times 1st assigned=          33           0
 nber times 1st assigned=          34           0
 nber times 1st assigned=          35           0
 nber times 1st assigned=          36           0
 nber times 1st assigned=          37           0
 nber times 1st assigned=          38           0
 nber times 1st assigned=          39           0
 nber times 1st assigned=          40           0
 nber times 1st assigned=          41           0
 nber times 1st assigned=          42           0
 nber times 1st assigned=          43           0
 nber times 1st assigned=          44           0
 nber times 1st assigned=          45           0
 nber times 1st assigned=          46           0
 nber times 1st assigned=          47           0
 nber times 1st assigned=          48           0
 modes represented=   42.0575780722295     
 p1=
   -0.   -0.    0.    0.    0.   -0.    0.   -0.   -0.    0.    0.    6.   -0.   -0.  -10.    0.    0.   -5.    0.   -0.
    2.    0.    0.   -0.    0.   -0.   -0.   -0.    0.   -1.    0.   -3.   -0.    1.   -0.    1.    2.   -0.   -2.   -2.
   -0.    2.   -0.    0.    0.    0.    0.   -0.
 p2=
    0.    0.   -0.    0.   -0.   -0.    0.    0.    0.    0.   -0.    7.    0.    0.   -0.    0.    9.   -0.    5.   -0.
   -2.   -0.    0.   -0.    0.   -0.   -0.    0.    1.   -0.   -3.   -0.   -0.   -1.    0.   -1.    3.   -0.    2.    2.
    1.   -0.    0.    0.   -0.    0.   -0.    0.

 Displacement: in terms of nc of 1 THEN of nc of 2

   1 A1  freq=    -0. Q= -0.000 lam=    -0.0 A2  freq=    -0. Q= -0.000 lam=    -0.0
   2 B1  freq=    -0. Q= -0.000 lam=    -0.0 B2  freq=    -0. Q= -0.000 lam=    -0.0
   3 B1  freq=    -0. Q=  0.000 lam=    -0.0 B1  freq=    -0. Q=  0.000 lam=    -0.0
   4 B2  freq=     0. Q=  0.000 lam=     0.0 B1  freq=     0. Q=  0.000 lam=     0.0
   5 A2  freq=     0. Q=  0.000 lam=     0.0 B2  freq=     0. Q=  0.000 lam=     0.0
   6 B2  freq=     0. Q= -0.000 lam=     0.0 A1  freq=     0. Q= -0.000 lam=     0.0
   7 B1  freq=    25. Q=  0.000 lam=     0.0 B1  freq=    99. Q=  0.000 lam=     0.0
   8 A2  freq=   136. Q= -0.000 lam=     0.0 A2  freq=   145. Q= -0.000 lam=     0.0
   9 B1  freq=   215. Q= -0.000 lam=     0.0 B1  freq=   230. Q= -0.000 lam=     0.0
  10 B2  freq=   259. Q=  0.000 lam=     0.0 B2  freq=   248. Q=  0.000 lam=     0.0
  11 B2  freq=   373. Q=  0.000 lam=     0.0 B2  freq=   370. Q=  0.000 lam=     0.0
  12 A1  freq=   405. Q=  0.509 lam=    52.3 A1  freq=   420. Q=  0.577 lam=    69.9
  13 B1  freq=   420. Q= -0.000 lam=     0.0 B1  freq=   425. Q= -0.000 lam=     0.0
  14 B1  freq=   453. Q= -0.000 lam=     0.0 B1  freq=   444. Q= -0.000 lam=     0.0
  15 A1  freq=   474. Q= -0.836 lam=   165.6 A2  freq=   472. Q= -0.000 lam=     0.0
  16 B2  freq=   477. Q=  0.000 lam=     0.0 B2  freq=   475. Q=  0.000 lam=     0.0
  17 A2  freq=   491. Q=  0.000 lam=     0.0 A1  freq=   491. Q=  0.774 lam=   147.1
  18 A1  freq=   580. Q= -0.450 lam=    58.7 A2  freq=   553. Q= -0.000 lam=     0.0
  19 A2  freq=   632. Q=  0.000 lam=     0.0 A1  freq=   593. Q=  0.525 lam=    81.9
  20 A2  freq=   680. Q= -0.000 lam=     0.0 A2  freq=   664. Q= -0.000 lam=     0.0
  21 A1  freq=   687. Q=  0.218 lam=    16.3 A1  freq=   688. Q=  0.182 lam=    11.4
  22 B2  freq=   740. Q=  0.000 lam=     0.0 B2  freq=   758. Q=  0.000 lam=     0.0
  23 B1  freq=   750. Q=  0.000 lam=     0.0 B1  freq=   770. Q=  0.000 lam=     0.0
  24 B2  freq=   775. Q= -0.000 lam=     0.0 B2  freq=   820. Q= -0.000 lam=     0.0
  25 B1  freq=   817. Q=  0.000 lam=     0.0 A2  freq=   868. Q=  0.000 lam=     0.0
  26 A2  freq=   855. Q= -0.000 lam=     0.0 B1  freq=   911. Q= -0.000 lam=     0.0
  27 B1  freq=   936. Q= -0.000 lam=     0.0 B1  freq=   981. Q= -0.000 lam=     0.0
  28 A2  freq=   980. Q= -0.000 lam=     0.0 A2  freq=  1024. Q= -0.000 lam=     0.0
  29 B2  freq=  1050. Q=  0.000 lam=     0.0 A1  freq=  1036. Q=  0.126 lam=     8.2
  30 A1  freq=  1051. Q= -0.108 lam=     6.1 B2  freq=  1062. Q= -0.000 lam=     0.0
  31 B2  freq=  1122. Q=  0.000 lam=     0.0 A1  freq=  1108. Q=  0.406 lam=    91.1
  32 A1  freq=  1136. Q= -0.430 lam=   105.1 B2  freq=  1147. Q= -0.000 lam=     0.0
  33 B2  freq=  1152. Q= -0.000 lam=     0.0 B2  freq=  1177. Q= -0.000 lam=     0.0
  34 A1  freq=  1186. Q=  0.138 lam=    11.3 A1  freq=  1208. Q=  0.077 lam=     3.6
  35 B2  freq=  1287. Q= -0.000 lam=     0.0 B2  freq=  1280. Q= -0.000 lam=     0.0
  36 A1  freq=  1320. Q=  0.108 lam=     7.7 A1  freq=  1333. Q=  0.206 lam=    28.3
  37 A1  freq=  1418. Q=  0.322 lam=    73.5 A1  freq=  1365. Q=  0.505 lam=   174.3
  38 B2  freq=  1466. Q= -0.000 lam=     0.0 B2  freq=  1462. Q= -0.000 lam=     0.0
  39 A1  freq=  1483. Q= -0.250 lam=    46.2 A1  freq=  1467. Q= -0.233 lam=    39.9
  40 A1  freq=  1604. Q= -0.341 lam=    93.3 A1  freq=  1515. Q= -0.297 lam=    66.8
  41 B2  freq=  1614. Q= -0.000 lam=     0.0 A1  freq=  1570. Q= -0.205 lam=    32.9
  42 A1  freq=  1635. Q=  0.401 lam=   131.2 B2  freq=  1602. Q=  0.000 lam=     0.0
  43 A1  freq=  3152. Q= -0.007 lam=     0.1 A1  freq=  3154. Q= -0.000 lam=     0.0
  44 B2  freq=  3169. Q=  0.000 lam=     0.0 B2  freq=  3191. Q=  0.000 lam=     0.0
  45 A1  freq=  3176. Q=  0.013 lam=     0.3 A1  freq=  3197. Q=  0.013 lam=     0.3
  46 B2  freq=  3185. Q=  0.000 lam=     0.0 B2  freq=  3204. Q=  0.000 lam=     0.0
  47 A1  freq=  3196. Q=  0.013 lam=     0.3 A1  freq=  3210. Q=  0.013 lam=     0.3
  48 B2  freq=  3237. Q= -0.000 lam=     0.0 B2  freq=  3254. Q= -0.000 lam=     0.0

 total reorg energy (cm**-1, kcal/mol)=      768.      756.      2.20      2.16
 Nber of molecules processed=           2
