 Enter ifcurve (0=recti, 1=orth curvi, 2=apprx curvi, -1 = skip
 And atom ordering flag, 0= never changes, 1= use the first order thenceforth,
  2= deduce it (does read on fail), 3= always read it
 Reading file: 
 ./TT_1_C0S1.log                                                                
                                          
  Entering Gaussian System, Link 0=g16                                          
  
 Gaussian format, type: g94, g98, g03= F F F
  #P Geom=AllCheck Guess=TCheck SCRF=Check GenChk RB3LYP TD(FC,Read)/6-3    
 energy type= TD      
 Original G94 input coords:
  6 -1.499582 -0.134997  0.111072
  6 -0.895275  1.131585  0.054927
  6  0.473036  1.255525 -0.064598
  6  1.316319  0.097248 -0.134892
  6  2.718103  0.202580 -0.257260
  6  3.683885 -0.858147 -0.338721
  6  4.970039 -0.374346 -0.451447
 16  6.567746 -1.119574 -0.588258
  6  7.312235  0.465956 -0.656350
  6  6.402944  1.507689 -0.579910
  6  5.088621  1.045468 -0.464956
 16  3.514700  1.816788 -0.330119
  6  0.673236 -1.186885 -0.075269
  6 -0.696986 -1.285346  0.044397
  1 -2.575421 -0.223737  0.205019
  1 -1.509933  2.023604  0.106000
  1  0.920370  2.242531 -0.106355
  1  3.407929 -1.900959 -0.312477
  1  8.385070  0.538200 -0.749585
  1  6.699110  2.547422 -0.607973
  1  1.271347 -2.088198 -0.124667
  1 -1.159266 -2.265637  0.087492
 nber atoms=          22
  Total Energy, E(TD-HF/TD-DFT) =  -1258.48614925                               
  
          32          49 "  -1258.48614925"
After scan for Atom:   Atom  AN      X      Y      Z        X      Y      Z        X      Y      Z   
After scan for Atom:   Atom  AN      X      Y      Z        X      Y      Z        X      Y      Z   
After scan for Atom:   Atom  AN      X      Y      Z        X      Y      Z        X      Y      Z   
After scan for Atom:   Atom  AN      X      Y      Z        X      Y      Z        X      Y      Z   
After scan for Atom:   Atom  AN      X      Y      Z        X      Y      Z        X      Y      Z   
After scan for Atom:   Atom  AN      X      Y      Z        X      Y      Z        X      Y      Z   
After scan for Atom:   Atom  AN      X      Y      Z        X      Y      Z        X      Y      Z   
After scan for Atom:   Atom  AN      X      Y      Z        X      Y      Z        X      Y      Z   
After scan for Atom:   Atom  AN      X      Y      Z        X      Y      Z        X      Y      Z   
After scan for Atom:   Atom  AN      X      Y      Z        X      Y      Z        X      Y      Z   
After scan for Atom:   Atom  AN      X      Y      Z        X      Y      Z        X      Y      Z   
After scan for Atom:   Atom  AN      X      Y      Z        X      Y      Z        X      Y      Z   
After scan for Atom:   Atom  AN      X      Y      Z        X      Y      Z        X      Y      Z   
After scan for Atom:   Atom  AN      X      Y      Z        X      Y      Z        X      Y      Z   
After scan for Atom:   Atom  AN      X      Y      Z        X      Y      Z        X      Y      Z   
After scan for Atom:   Atom  AN      X      Y      Z        X      Y      Z        X      Y      Z   
After scan for Atom:   Atom  AN      X      Y      Z        X      Y      Z        X      Y      Z   
After scan for Atom:   Atom  AN      X      Y      Z        X      Y      Z        X      Y      Z   
After scan for Atom:   Atom  AN      X      Y      Z        X      Y      Z        X      Y      Z   
After scan for Atom:   Atom  AN      X      Y      Z        X      Y      Z        X      Y      Z   
 g94    frequencies=
     0.0    0.0    0.0    0.0    0.0    0.0   43.0   47.8  106.7  112.6
   174.1  211.6  259.5  305.4  367.5  404.3  407.8  432.4  435.3  507.2
   557.3  587.5  610.4  617.4  630.7  645.2  645.5  688.5  732.5  738.2
   767.4  783.2  835.8  855.5  869.7  943.5  953.6  970.0  992.1 1025.5
  1068.4 1088.8 1129.0 1164.7 1179.1 1210.4 1229.5 1306.1 1332.7 1370.7
  1401.5 1417.8 1431.7 1459.0 1496.1 1532.1 1538.7 1635.0 3158.8 3163.1
  3175.3 3186.5 3193.4 3209.4 3233.4 3242.5
 g94    symmetries=
                                                 A      A      A      A
       A      A      A      A      A      A      A      A      A      A
       A      A      A      A      A      A      A      A      A      A
       A      A      A      A      A      A      A      A      A      A
       A      A      A      A      A      A      A      A      A      A
       A      A      A      A      A      A      A      A      A      A
       A      A      A      A      A      A
 atomic masses:
 12.0000 12.0000 12.0000 12.0000 12.0000 12.0000 12.0000 31.9721 12.0000 12.0000
 12.0000 31.9721 12.0000 12.0000  1.0078  1.0078  1.0078  1.0078  1.0078  1.0078
  1.0078  1.0078
 looking for force constants in 
 ./TT_1_C0S1.fchk                                                               
  
 Cartesian Force Constants                  R   N=        2211                  
  
 n3=          66        2211
 g94-fc frequencies=
    -3.8   -0.0    0.0    0.0    1.3    2.8   43.0   47.8  106.7  112.6
   174.1  211.6  259.5  305.4  367.5  404.4  407.9  432.4  435.3  507.2
   557.3  587.6  610.4  617.4  630.7  645.2  645.5  688.6  732.5  738.2
   767.4  783.2  835.8  855.6  869.7  943.5  953.6  970.0  992.1 1025.5
  1068.4 1088.8 1129.0 1164.7 1179.1 1210.5 1229.6 1306.2 1332.7 1370.7
  1401.6 1417.9 1431.7 1459.0 1496.2 1532.1 1538.8 1635.1 3158.9 3163.2
  3175.4 3186.6 3193.5 3209.4 3233.4 3242.5
 at 99999: n3=          66
 symm operator            1 :  F  nop=           0
 symm operator            2 :  F  nop=           0
 symm operator            3 :  F  nop=           0
 symm operator            4 :  F  nop=           0
 symm operator            5 :  F  nop=           0
 symm operator            6 :  F  nop=           0
 symm operator            7 :  F  nop=           0
 The point group of the molecule is  C1
 Symmetry rotation matrix:
   1.00000   0.00000   0.00000
   0.00000   1.00000   0.00000
   0.00000   0.00000   1.00000

 Projecting out zero-frequency components
 generating redundant internal coords
         300        3600          22
 search for int coords
   1 str   2   1   1.404
   2 str   3   2   1.379
   3 str   4   3   1.434
   4 str   5   4   1.411
   5 str   6   5   1.437
   6 str   7   6   1.379
   7 str   8   7   1.768
   8 str   9   8   1.753
   9 str  10   9   1.385
  10 str  11   7   1.425
  11 str  11  10   1.398
  12 str  12   5   1.802
  13 str  12  11   1.758
  14 str  13   4   1.437
  15 str  14   1   1.404
  16 str  14  13   1.379
  17 str  15   1   1.084
  18 str  16   2   1.084
  19 str  17   3   1.084
  20 str  18   6   1.079
  21 str  19   9   1.079
  22 str  20  10   1.081
  23 str  21  13   1.083
  24 str  22  14   1.085
 nber stretches=          24
  25 ben   1   2   3
  26 prop tor   1   2   3   4
  27 prop tor   1   2   3  17
  28 ben   1   2  16
  29 ben   1  14  13
  30 ben   1  14  22
  31 ben   2   1  14
  32 prop tor   2   1  14  13
  33 prop tor   2   1  14  22
  34 ben   2   1  15
  35 ben   2   3   4
  36 prop tor   2   3   4   5
  37 prop tor   2   3   4  13
  38 ben   2   3  17
  39 ben   3   2  16
  40 ben   3   4   5
  41 prop tor   3   4   5   6
  42 prop tor   3   4   5  12
  43 ben   3   4  13
  44 prop tor   3   4  13  14
  45 prop tor   3   4  13  21
  46 ben   4   3  17
  47 ben   4   5   6
  48 prop tor   4   5   6   7
  49 prop tor   4   5   6  18
  50 ben   4   5  12
  51 prop tor   4   5  12  11
  52 ben   4  13  14
  53 prop tor   4  13  14   1
  54 prop tor   4  13  14  22
  55 ben   4  13  21
  56 ben   5   4  13
  57 prop tor   5   4  13  14
  58 prop tor   5   4  13  21
  59 ben   5   6   7
  60 prop tor   5   6   7   8
  61 prop tor   5   6   7  11
  62 ben   5   6  18
  63 ben   5  12  11
  64 ben   6   5  12
  65 prop tor   6   5  12  11
  66 ben   6   7   8
  67 prop tor   6   7   8   9
  68 ben   6   7  11
  69 prop tor   6   7  11  10
  70 prop tor   6   7  11  12
  71 ben   7   6  18
  72 ben   7   8   9
  73 prop tor   7   8   9  10
  74 prop tor   7   8   9  19
  75 ben   7  11  10
  76 ben   7  11  12
  77 prop tor   7  11  12   5
  78 ben   8   7  11
  79 prop tor   8   7  11  10
  80 prop tor   8   7  11  12
  81 ben   8   9  10
  82 prop tor   8   9  10  11
  83 prop tor   8   9  10  20
  84 ben   8   9  19
  85 ben   9  10  11
  86 prop tor   9  10  11   7
  87 prop tor   9  10  11  12
  88 ben   9  10  20
  89 ben  10   9  19
  90 ben  10  11  12
  91 prop tor  10  11  12   5
  92 prop tor  11   7   8   9
  93 ben  11  10  20
  94 prop tor  12   5   6   7
  95 prop tor  12   5   6  18
  96 prop tor  13   4   5   6
  97 prop tor  13   4   5  12
  98 ben  13  14  22
  99 prop tor  14   1   2   3
 100 prop tor  14   1   2  16
 101 ben  14   1  15
 102 ben  14  13  21
 103 prop tor  15   1   2   3
 104 prop tor  15   1   2  16
 105 prop tor  15   1  14  13
 106 prop tor  15   1  14  22
 107 prop tor  16   2   3   4
 108 prop tor  16   2   3  17
 109 prop tor  17   3   4   5
 110 prop tor  17   3   4  13
 111 prop tor  18   6   7   8
 112 prop tor  18   6   7  11
 113 prop tor  19   9  10  11
 114 prop tor  19   9  10  20
 115 prop tor  20  10  11   7
 116 prop tor  20  10  11  12
 117 prop tor  21  13  14   1
 118 prop tor  21  13  14  22
 nber bend=              38
 nber lin bend=           0
 nber prop tor=          56
 nber impr tor=           0
 nber tot redund int=         118
 Eigenvalues of G in red int coords
    Gval -0.00000000 -0.00000000 -0.00000000 -0.00000000 -0.00000000 -0.00000000 -0.00000000 -0.00000000
    Gval -0.00000000 -0.00000000 -0.00000000 -0.00000000 -0.00000000 -0.00000000 -0.00000000 -0.00000000
    Gval -0.00000000 -0.00000000 -0.00000000 -0.00000000 -0.00000000 -0.00000000 -0.00000000 -0.00000000
    Gval -0.00000000 -0.00000000 -0.00000000 -0.00000000  0.00000000  0.00000000  0.00000000  0.00000000
    Gval  0.00000000  0.00000000  0.00000000  0.00000000  0.00000000  0.00000000  0.00000000  0.00000000
    Gval  0.00000000  0.00000000  0.00000000  0.00000000  0.00000000  0.00000000  0.00000000  0.00000000
    Gval  0.00000000  0.00000000  0.00000000  0.00000000  0.00000000  0.00000000  0.00000000  0.00000000
    Gval  0.00000000  0.00000000  0.00000273  0.00000529  0.00001493  0.00001631  0.00002088  0.00002985
    Gval  0.00003292  0.00003957  0.00004724  0.00004850  0.00005461  0.00006276  0.00006462  0.00008931
    Gval  0.00009186  0.00010244  0.00011149  0.00011625  0.00012596  0.00015273  0.00015535  0.00018284
    Gval  0.00022304  0.00026639  0.00029690  0.00030627  0.00030836  0.00036199  0.00037536  0.00043174
    Gval  0.00053257  0.00054904  0.00059303  0.00059361  0.00059654  0.00060372  0.00061967  0.00062357
    Gval  0.00063051  0.00065187  0.00065920  0.00103930  0.00106178  0.00108204  0.00110553  0.00113833
    Gval  0.00114649  0.00116969  0.00117085  0.00118192  0.00128163  0.00144743  0.00188077  0.00208187
    Gval  0.00232913  0.00311101  0.00357479  0.00372330  0.00392239  0.00405384
  2.730577928539546E-006  2.730577928539546E-006
  5.292828548044412E-006  2.730577928539546E-006
  1.493322825678048E-005  2.730577928539546E-006
  1.630629695956810E-005  2.730577928539546E-006
  2.088193242479054E-005  2.730577928539546E-006
  2.985256315861945E-005  2.730577928539546E-006
  3.291763050887587E-005  2.730577928539546E-006
  3.956822726016752E-005  2.730577928539546E-006
  4.723923392228731E-005  2.730577928539546E-006
  4.849980713810570E-005  2.730577928539546E-006
  5.460741972721573E-005  2.730577928539546E-006
  6.275672319752722E-005  2.730577928539546E-006
  6.461920906099098E-005  2.730577928539546E-006
  8.931070297040068E-005  2.730577928539546E-006
  9.186240090968157E-005  2.730577928539546E-006
  1.024375837350176E-004  2.730577928539546E-006
  1.114879848065964E-004  2.730577928539546E-006
  1.162491972082033E-004  2.730577928539546E-006
  1.259629751540393E-004  2.730577928539546E-006
  1.527276276071986E-004  2.730577928539546E-006
  1.553460006345890E-004  2.730577928539546E-006
  1.828393759538676E-004  2.730577928539546E-006
  2.230378062456313E-004  2.730577928539546E-006
  2.663866385932319E-004  2.730577928539546E-006
  2.968985491092692E-004  2.730577928539546E-006
  3.062674421361150E-004  2.730577928539546E-006
  3.083632961331517E-004  2.730577928539546E-006
  3.619920453568044E-004  2.730577928539546E-006
  3.753568249709074E-004  2.730577928539546E-006
  4.317434773976583E-004  2.730577928539546E-006
  5.325733608867736E-004  2.730577928539546E-006
  5.490389024111351E-004  2.730577928539546E-006
  5.930348071542535E-004  2.730577928539546E-006
  5.936069990004869E-004  2.730577928539546E-006
  5.965436259549509E-004  2.730577928539546E-006
  6.037248900239236E-004  2.730577928539546E-006
  6.196742412756702E-004  2.730577928539546E-006
  6.235703368761999E-004  2.730577928539546E-006
  6.305076011398737E-004  2.730577928539546E-006
  6.518724222292965E-004  2.730577928539546E-006
  6.592010487538847E-004  2.730577928539546E-006
  1.039301730339655E-003  2.730577928539546E-006
  1.061780457804581E-003  2.730577928539546E-006
  1.082044528128368E-003  2.730577928539546E-006
  1.105525242282080E-003  2.730577928539546E-006
  1.138334531691398E-003  2.730577928539546E-006
  1.146493803546080E-003  2.730577928539546E-006
  1.169694569165902E-003  2.730577928539546E-006
  1.170847224538000E-003  2.730577928539546E-006
  1.181922921094089E-003  2.730577928539546E-006
  1.281631458075376E-003  2.730577928539546E-006
  1.447433572491781E-003  2.730577928539546E-006
  1.880767503779452E-003  2.730577928539546E-006
  2.081867780833525E-003  2.730577928539546E-006
  2.329130332138223E-003  2.730577928539546E-006
  3.111005013907093E-003  2.730577928539546E-006
  3.574791511913015E-003  2.730577928539546E-006
  3.723295570341596E-003  2.730577928539546E-006
  3.922387383403909E-003  2.730577928539546E-006
  4.053841771373238E-003  2.730577928539546E-006
 cut=1d-8, nber non-redundant internal coords=          60
 Check on Eigenvals of non-red overlap matrix:
  0.00000273  0.00000529  0.00001493  0.00001631  0.00002088  0.00002985  0.00003292  0.00003957
  0.00004724  0.00004850  0.00005461  0.00006276  0.00006462  0.00008931  0.00009186  0.00010244
  0.00011149  0.00011625  0.00012596  0.00015273  0.00015535  0.00018284  0.00022304  0.00026639
  0.00029690  0.00030627  0.00030836  0.00036199  0.00037536  0.00043174  0.00053257  0.00054904
  0.00059303  0.00059361  0.00059654  0.00060372  0.00061967  0.00062357  0.00063051  0.00065187
  0.00065920  0.00103930  0.00106178  0.00108204  0.00110553  0.00113833  0.00114649  0.00116969
  0.00117085  0.00118192  0.00128163  0.00144743  0.00188077  0.00208187  0.00232913  0.00311101
  0.00357479  0.00372330  0.00392239  0.00405384
 Checking for correct frequencies
 recalc frequencies=
    -0.0   -0.0   -0.0   -0.0    0.0    0.0   43.0   47.8  106.7  112.6
   174.1  211.6  259.5  305.4  367.5  404.4  407.9  432.4  435.3  507.2
   557.3  587.6  610.4  617.4  630.7  645.2  645.5  688.6  732.5  738.2
   767.4  783.2  835.8  855.6  869.7  943.5  953.6  970.0  992.1 1025.5
  1068.4 1088.8 1129.0 1164.7 1179.1 1210.5 1229.6 1306.2 1332.7 1370.7
  1401.6 1417.9 1431.7 1459.0 1496.2 1532.1 1538.8 1635.1 3158.9 3163.2
  3175.4 3186.6 3193.5 3209.4 3233.4 3242.5
 recalc symmetries=
                                                                       
                                                                       
                                                                       
                                                                       
                                                                       
                                                                       
                                           
 recalc freqs check OK
 Zero-point lengths:
 10.0000 10.0000 10.0000 10.0000 10.0000 10.0000 37.8119 35.8539 23.9966 23.3674
 18.7877 17.0442 15.3893 14.1864 12.9325 12.3286 12.2756 11.9216 11.8819 11.0082
 10.5011 10.2275 10.0340  9.9775  9.8713  9.7597  9.7578  9.4477  9.1597  9.1244
  8.9489  8.8584  8.5752  8.4756  8.4064  8.0709  8.0282  7.9600  7.8707  7.7416
  7.5844  7.5131  7.3780  7.2642  7.2198  7.1256  7.0700  6.8595  6.7909  6.6960
  6.6220  6.5838  6.5519  6.4904  6.4092  6.3336  6.3199  6.1309  4.4109  4.4079
  4.3994  4.3917  4.3869  4.3760  4.3598  4.3536
 highest evec of mol 1
  0.0003 -0.0001 -0.0000
 -0.0002  0.0001  0.0000
  0.0004  0.0000 -0.0000
 -0.0008 -0.0001  0.0001
  0.0005  0.0005 -0.0000
  0.0010  0.0041 -0.0001
  0.0026  0.0011 -0.0002
  0.0008  0.0020 -0.0001
 -0.2832 -0.0075  0.0246
 -0.0119 -0.0800  0.0012
  0.0072  0.0020 -0.0006
 -0.0004 -0.0005  0.0000
  0.0000  0.0007 -0.0000
 -0.0003  0.0001  0.0000
 -0.0005 -0.0000  0.0000
  0.0003 -0.0004 -0.0000
 -0.0006 -0.0012  0.0001
 -0.0036 -0.0131  0.0003
  0.9218  0.0584 -0.0801
  0.0606  0.2217 -0.0058
  0.0008 -0.0012 -0.0001
  0.0001  0.0003 -0.0000
 generating redundant internal coords
         300        3600          22
 Adding extra bonds for z output only
           6           6           6           6           6           6
           6          16           6           6           6          16
           6           6           1           1           1           1
           1           1           1           1
 search for int coords
   1 str   2   1   1.404
   2 str   3   2   1.379
   3 str   4   3   1.434
   4 str   5   4   1.411
   5 str   6   5   1.437
   6 str   7   6   1.379
   7 str   8   7   1.768
   8 str   9   8   1.753
   9 str  10   9   1.385
  10 str  11   7   1.425
  11 str  11  10   1.398
  12 str  12   5   1.802
  13 str  12  11   1.758
  14 str  13   4   1.437
  15 str  14   1   1.404
  16 str  14  13   1.379
  17 str  15   1   1.084
  18 str  16   2   1.084
  19 str  17   3   1.084
  20 str  18   6   1.079
  21 str  19   9   1.079
  22 str  20  10   1.081
  23 str  21  13   1.083
  24 str  22  14   1.085
 nber stretches=          24
  25 ben   1   2   3
  26 prop tor   1   2   3   4
  27 prop tor   1   2   3  17
  28 ben   1   2  16
  29 ben   1  14  13
  30 ben   1  14  22
  31 ben   2   1  14
  32 prop tor   2   1  14  13
  33 prop tor   2   1  14  22
  34 ben   2   1  15
  35 ben   2   3   4
  36 prop tor   2   3   4   5
  37 prop tor   2   3   4  13
  38 ben   2   3  17
  39 ben   3   2  16
  40 ben   3   4   5
  41 prop tor   3   4   5   6
  42 prop tor   3   4   5  12
  43 ben   3   4  13
  44 prop tor   3   4  13  14
  45 prop tor   3   4  13  21
  46 ben   4   3  17
  47 ben   4   5   6
  48 prop tor   4   5   6   7
  49 prop tor   4   5   6  18
  50 ben   4   5  12
  51 prop tor   4   5  12  11
  52 ben   4  13  14
  53 prop tor   4  13  14   1
  54 prop tor   4  13  14  22
  55 ben   4  13  21
  56 ben   5   4  13
  57 prop tor   5   4  13  14
  58 prop tor   5   4  13  21
  59 ben   5   6   7
  60 prop tor   5   6   7   8
  61 prop tor   5   6   7  11
  62 ben   5   6  18
  63 ben   5  12  11
  64 ben   6   5  12
  65 prop tor   6   5  12  11
  66 ben   6   7   8
  67 prop tor   6   7   8   9
  68 ben   6   7  11
  69 prop tor   6   7  11  10
  70 prop tor   6   7  11  12
  71 ben   7   6  18
  72 ben   7   8   9
  73 prop tor   7   8   9  10
  74 prop tor   7   8   9  19
  75 ben   7  11  10
  76 ben   7  11  12
  77 prop tor   7  11  12   5
  78 ben   8   7  11
  79 prop tor   8   7  11  10
  80 prop tor   8   7  11  12
  81 ben   8   9  10
  82 prop tor   8   9  10  11
  83 prop tor   8   9  10  20
  84 ben   8   9  19
  85 ben   9  10  11
  86 prop tor   9  10  11   7
  87 prop tor   9  10  11  12
  88 ben   9  10  20
  89 ben  10   9  19
  90 ben  10  11  12
  91 prop tor  10  11  12   5
  92 prop tor  11   7   8   9
  93 ben  11  10  20
  94 prop tor  12   5   6   7
  95 prop tor  12   5   6  18
  96 prop tor  13   4   5   6
  97 prop tor  13   4   5  12
  98 ben  13  14  22
  99 prop tor  14   1   2   3
 100 prop tor  14   1   2  16
 101 ben  14   1  15
 102 ben  14  13  21
 103 prop tor  15   1   2   3
 104 prop tor  15   1   2  16
 105 prop tor  15   1  14  13
 106 prop tor  15   1  14  22
 107 prop tor  16   2   3   4
 108 prop tor  16   2   3  17
 109 prop tor  17   3   4   5
 110 prop tor  17   3   4  13
 111 prop tor  18   6   7   8
 112 prop tor  18   6   7  11
 113 prop tor  19   9  10  11
 114 prop tor  19   9  10  20
 115 prop tor  20  10  11   7
 116 prop tor  20  10  11  12
 117 prop tor  21  13  14   1
 118 prop tor  21  13  14  22
 nber bend=              38
 nber lin bend=           0
 nber prop tor=          56
 nber impr tor=           0
 nber tot redund int=         118
 Reading file: 
 ./TT_1_C0S0.log                                                                
                                          
  Entering Gaussian System, Link 0=g16                                          
  
 Gaussian format, type: g94, g98, g03= F F F
  #P Geom=AllCheck Guess=TCheck SCRF=Check GenChk RB3LYP/6-311G(d,p) Fre    
 energy type= B3LYP   
 Original G94 input coords:
  6 -1.506205 -0.144067  0.135924
  6 -0.927751  1.085565 -0.171180
  6  0.452344  1.200695 -0.298616
  6  1.287491  0.087484 -0.112207
  6  2.744557  0.189923 -0.252659
  6  3.622826 -0.777365 -0.673360
  6  4.965692 -0.317764 -0.678710
 16  6.506630 -1.015690 -1.103711
  6  7.318622  0.483548 -0.710622
  6  6.467892  1.460330 -0.283206
  6  5.121712  0.998762 -0.267819
 16  3.581780  1.696252  0.152560
  6  0.691543 -1.143736  0.208740
  6 -0.689033 -1.257825  0.323296
  1 -2.582121 -0.233225  0.232252
  1 -1.553379  1.958115 -0.322051
  1  0.887171  2.157200 -0.565495
  1  3.306604 -1.760597 -0.992513
  1  8.390168  0.542761 -0.822981
  1  6.790241  2.451711  0.002895
  1  1.319109 -2.007958  0.391948
  1 -1.127664 -2.217349  0.573588
 nber atoms=          22
  SCF Done:  E(RB3LYP) =  -1258.62005394     A.U. after    1 cycles             
  
          23          40 "  -1258.62005394"
After scan for Atom:   Atom  AN      X      Y      Z        X      Y      Z        X      Y      Z   
After scan for Atom:   Atom  AN      X      Y      Z        X      Y      Z        X      Y      Z   
After scan for Atom:   Atom  AN      X      Y      Z        X      Y      Z        X      Y      Z   
After scan for Atom:   Atom  AN      X      Y      Z        X      Y      Z        X      Y      Z   
After scan for Atom:   Atom  AN      X      Y      Z        X      Y      Z        X      Y      Z   
After scan for Atom:   Atom  AN      X      Y      Z        X      Y      Z        X      Y      Z   
After scan for Atom:   Atom  AN      X      Y      Z        X      Y      Z        X      Y      Z   
After scan for Atom:   Atom  AN      X      Y      Z        X      Y      Z        X      Y      Z   
After scan for Atom:   Atom  AN      X      Y      Z        X      Y      Z        X      Y      Z   
After scan for Atom:   Atom  AN      X      Y      Z        X      Y      Z        X      Y      Z   
After scan for Atom:   Atom  AN      X      Y      Z        X      Y      Z        X      Y      Z   
After scan for Atom:   Atom  AN      X      Y      Z        X      Y      Z        X      Y      Z   
After scan for Atom:   Atom  AN      X      Y      Z        X      Y      Z        X      Y      Z   
After scan for Atom:   Atom  AN      X      Y      Z        X      Y      Z        X      Y      Z   
After scan for Atom:   Atom  AN      X      Y      Z        X      Y      Z        X      Y      Z   
After scan for Atom:   Atom  AN      X      Y      Z        X      Y      Z        X      Y      Z   
After scan for Atom:   Atom  AN      X      Y      Z        X      Y      Z        X      Y      Z   
After scan for Atom:   Atom  AN      X      Y      Z        X      Y      Z        X      Y      Z   
After scan for Atom:   Atom  AN      X      Y      Z        X      Y      Z        X      Y      Z   
After scan for Atom:   Atom  AN      X      Y      Z        X      Y      Z        X      Y      Z   
 g94    frequencies=
     0.0    0.0    0.0    0.0    0.0    0.0   42.6   65.0   93.3  177.9
   204.3  258.6  272.5  326.1  407.7  414.5  459.6  465.6  498.3  573.7
   585.5  622.8  631.9  639.5  696.4  700.7  709.7  762.6  774.3  820.8
   836.8  851.8  876.0  899.6  927.1  979.0  980.4 1001.6 1014.7 1053.0
  1104.0 1109.5 1177.7 1183.4 1206.9 1210.2 1243.6 1315.0 1355.7 1362.7
  1378.3 1456.9 1475.9 1504.7 1523.3 1557.9 1615.1 1642.0 3161.8 3168.2
  3177.9 3184.2 3191.9 3212.5 3213.6 3244.7
 g94    symmetries=
                                                 A      A      A      A
       A      A      A      A      A      A      A      A      A      A
       A      A      A      A      A      A      A      A      A      A
       A      A      A      A      A      A      A      A      A      A
       A      A      A      A      A      A      A      A      A      A
       A      A      A      A      A      A      A      A      A      A
       A      A      A      A      A      A
 atomic masses:
 12.0000 12.0000 12.0000 12.0000 12.0000 12.0000 12.0000 31.9721 12.0000 12.0000
 12.0000 31.9721 12.0000 12.0000  1.0078  1.0078  1.0078  1.0078  1.0078  1.0078
  1.0078  1.0078
 looking for force constants in 
 ./TT_1_C0S0.fchk                                                               
  
 Cartesian Force Constants                  R   N=        2211                  
  
 n3=          66        2211
 g94-fc frequencies=
    -3.5   -0.7   -0.0   -0.0    0.0    1.8   42.6   65.0   93.3  177.9
   204.3  258.6  272.5  326.2  407.8  414.5  459.6  465.7  498.3  573.7
   585.5  622.8  632.0  639.5  696.4  700.7  709.8  762.6  774.3  820.8
   836.9  851.8  876.0  899.6  927.1  979.0  980.4 1001.6 1014.7 1053.0
  1104.1 1109.6 1177.7 1183.4 1206.9 1210.3 1243.6 1315.0 1355.7 1362.7
  1378.3 1457.0 1476.0 1504.7 1523.3 1558.0 1615.1 1642.0 3161.8 3168.3
  3178.0 3184.3 3192.0 3212.6 3213.6 3244.8
 at 99999: n3=          66
 symm operator            1 :  F  nop=           0
 symm operator            2 :  F  nop=           0
 symm operator            3 :  F  nop=           0
 symm operator            4 :  F  nop=           0
 symm operator            5 :  F  nop=           0
 symm operator            6 :  F  nop=           0
 symm operator            7 :  F  nop=           0
 The point group of the molecule is  C1
 Symmetry rotation matrix:
   1.00000   0.00000   0.00000
   0.00000   1.00000   0.00000
   0.00000   0.00000   1.00000

 Projecting out zero-frequency components
 generating redundant internal coords
         300        3600          22
 search for int coords
   1 str   2   1   1.393
   2 str   3   2   1.391
   3 str   4   3   1.404
   4 str   5   4   1.467
   5 str   6   5   1.373
   6 str   7   6   1.419
   7 str   8   7   1.744
   8 str   9   8   1.750
   9 str  10   9   1.364
  10 str  11   7   1.388
  11 str  11  10   1.423
  12 str  12   5   1.770
  13 str  12  11   1.742
  14 str  13   4   1.405
  15 str  14   1   1.394
  16 str  14  13   1.390
  17 str  15   1   1.084
  18 str  16   2   1.084
  19 str  17   3   1.084
  20 str  18   6   1.081
  21 str  19   9   1.079
  22 str  20  10   1.081
  23 str  21  13   1.084
  24 str  22  14   1.084
 nber stretches=          24
  25 ben   1   2   3
  26 prop tor   1   2   3   4
  27 prop tor   1   2   3  17
  28 ben   1   2  16
  29 ben   1  14  13
  30 ben   1  14  22
  31 ben   2   1  14
  32 prop tor   2   1  14  13
  33 prop tor   2   1  14  22
  34 ben   2   1  15
  35 ben   2   3   4
  36 prop tor   2   3   4   5
  37 prop tor   2   3   4  13
  38 ben   2   3  17
  39 ben   3   2  16
  40 ben   3   4   5
  41 prop tor   3   4   5   6
  42 prop tor   3   4   5  12
  43 ben   3   4  13
  44 prop tor   3   4  13  14
  45 prop tor   3   4  13  21
  46 ben   4   3  17
  47 ben   4   5   6
  48 prop tor   4   5   6   7
  49 prop tor   4   5   6  18
  50 ben   4   5  12
  51 prop tor   4   5  12  11
  52 ben   4  13  14
  53 prop tor   4  13  14   1
  54 prop tor   4  13  14  22
  55 ben   4  13  21
  56 ben   5   4  13
  57 prop tor   5   4  13  14
  58 prop tor   5   4  13  21
  59 ben   5   6   7
  60 prop tor   5   6   7   8
  61 prop tor   5   6   7  11
  62 ben   5   6  18
  63 ben   5  12  11
  64 ben   6   5  12
  65 prop tor   6   5  12  11
  66 ben   6   7   8
  67 prop tor   6   7   8   9
  68 ben   6   7  11
  69 prop tor   6   7  11  10
  70 prop tor   6   7  11  12
  71 ben   7   6  18
  72 ben   7   8   9
  73 prop tor   7   8   9  10
  74 prop tor   7   8   9  19
  75 ben   7  11  10
  76 ben   7  11  12
  77 prop tor   7  11  12   5
  78 ben   8   7  11
  79 prop tor   8   7  11  10
  80 prop tor   8   7  11  12
  81 ben   8   9  10
  82 prop tor   8   9  10  11
  83 prop tor   8   9  10  20
  84 ben   8   9  19
  85 ben   9  10  11
  86 prop tor   9  10  11   7
  87 prop tor   9  10  11  12
  88 ben   9  10  20
  89 ben  10   9  19
  90 ben  10  11  12
  91 prop tor  10  11  12   5
  92 prop tor  11   7   8   9
  93 ben  11  10  20
  94 prop tor  12   5   6   7
  95 prop tor  12   5   6  18
  96 prop tor  13   4   5   6
  97 prop tor  13   4   5  12
  98 ben  13  14  22
  99 prop tor  14   1   2   3
 100 prop tor  14   1   2  16
 101 ben  14   1  15
 102 ben  14  13  21
 103 prop tor  15   1   2   3
 104 prop tor  15   1   2  16
 105 prop tor  15   1  14  13
 106 prop tor  15   1  14  22
 107 prop tor  16   2   3   4
 108 prop tor  16   2   3  17
 109 prop tor  17   3   4   5
 110 prop tor  17   3   4  13
 111 prop tor  18   6   7   8
 112 prop tor  18   6   7  11
 113 prop tor  19   9  10  11
 114 prop tor  19   9  10  20
 115 prop tor  20  10  11   7
 116 prop tor  20  10  11  12
 117 prop tor  21  13  14   1
 118 prop tor  21  13  14  22
 nber bend=              38
 nber lin bend=           0
 nber prop tor=          56
 nber impr tor=           0
 nber tot redund int=         118
 Eigenvalues of G in red int coords
    Gval -0.00000000 -0.00000000 -0.00000000 -0.00000000 -0.00000000 -0.00000000 -0.00000000 -0.00000000
    Gval -0.00000000 -0.00000000 -0.00000000 -0.00000000 -0.00000000 -0.00000000 -0.00000000 -0.00000000
    Gval -0.00000000 -0.00000000 -0.00000000 -0.00000000 -0.00000000 -0.00000000 -0.00000000 -0.00000000
    Gval -0.00000000 -0.00000000 -0.00000000 -0.00000000 -0.00000000 -0.00000000 -0.00000000  0.00000000
    Gval  0.00000000  0.00000000  0.00000000  0.00000000  0.00000000  0.00000000  0.00000000  0.00000000
    Gval  0.00000000  0.00000000  0.00000000  0.00000000  0.00000000  0.00000000  0.00000000  0.00000000
    Gval  0.00000000  0.00000000  0.00000000  0.00000000  0.00000000  0.00000000  0.00000000  0.00000000
    Gval  0.00000000  0.00000000  0.00000293  0.00000533  0.00001092  0.00001919  0.00002233  0.00003026
    Gval  0.00003299  0.00004027  0.00004650  0.00004875  0.00005396  0.00006280  0.00006534  0.00008019
    Gval  0.00009717  0.00010260  0.00011289  0.00011678  0.00012451  0.00015577  0.00016253  0.00018606
    Gval  0.00022702  0.00027028  0.00029366  0.00030686  0.00031815  0.00036776  0.00037004  0.00041217
    Gval  0.00053453  0.00059219  0.00059306  0.00059660  0.00059847  0.00060438  0.00061996  0.00062359
    Gval  0.00063498  0.00066080  0.00066168  0.00103204  0.00105636  0.00108135  0.00110901  0.00113855
    Gval  0.00114458  0.00117037  0.00117259  0.00118675  0.00129255  0.00144844  0.00185789  0.00208702
    Gval  0.00234164  0.00310544  0.00354268  0.00373273  0.00397409  0.00406809
  2.927531662421004E-006  2.927531662421004E-006
  5.326788921509260E-006  2.927531662421004E-006
  1.091904319206776E-005  2.927531662421004E-006
  1.918892276238882E-005  2.927531662421004E-006
  2.232647254589148E-005  2.927531662421004E-006
  3.025667932250725E-005  2.927531662421004E-006
  3.299403191165805E-005  2.927531662421004E-006
  4.027041223410776E-005  2.927531662421004E-006
  4.650371600854285E-005  2.927531662421004E-006
  4.874643516712308E-005  2.927531662421004E-006
  5.396008663524411E-005  2.927531662421004E-006
  6.280454322731897E-005  2.927531662421004E-006
  6.534419699460466E-005  2.927531662421004E-006
  8.019390710150007E-005  2.927531662421004E-006
  9.717138193384459E-005  2.927531662421004E-006
  1.025963259417323E-004  2.927531662421004E-006
  1.128949539773579E-004  2.927531662421004E-006
  1.167824185677991E-004  2.927531662421004E-006
  1.245126842936245E-004  2.927531662421004E-006
  1.557682030362498E-004  2.927531662421004E-006
  1.625303395598763E-004  2.927531662421004E-006
  1.860647694355304E-004  2.927531662421004E-006
  2.270184141928441E-004  2.927531662421004E-006
  2.702758298989996E-004  2.927531662421004E-006
  2.936564231525620E-004  2.927531662421004E-006
  3.068550595626090E-004  2.927531662421004E-006
  3.181491349764801E-004  2.927531662421004E-006
  3.677586479606260E-004  2.927531662421004E-006
  3.700362065623875E-004  2.927531662421004E-006
  4.121715849981046E-004  2.927531662421004E-006
  5.345330716607067E-004  2.927531662421004E-006
  5.921931855606497E-004  2.927531662421004E-006
  5.930627187400122E-004  2.927531662421004E-006
  5.966041643055776E-004  2.927531662421004E-006
  5.984669852392911E-004  2.927531662421004E-006
  6.043761328949993E-004  2.927531662421004E-006
  6.199597506546829E-004  2.927531662421004E-006
  6.235911155720279E-004  2.927531662421004E-006
  6.349810039005497E-004  2.927531662421004E-006
  6.607952994136344E-004  2.927531662421004E-006
  6.616787669616360E-004  2.927531662421004E-006
  1.032040159449654E-003  2.927531662421004E-006
  1.056363510977211E-003  2.927531662421004E-006
  1.081349202387198E-003  2.927531662421004E-006
  1.109014222904440E-003  2.927531662421004E-006
  1.138552778241379E-003  2.927531662421004E-006
  1.144579529809034E-003  2.927531662421004E-006
  1.170368885290600E-003  2.927531662421004E-006
  1.172588621123751E-003  2.927531662421004E-006
  1.186745687342281E-003  2.927531662421004E-006
  1.292546671390038E-003  2.927531662421004E-006
  1.448435901202813E-003  2.927531662421004E-006
  1.857893983592036E-003  2.927531662421004E-006
  2.087016569105904E-003  2.927531662421004E-006
  2.341641208190079E-003  2.927531662421004E-006
  3.105438886845310E-003  2.927531662421004E-006
  3.542678356646067E-003  2.927531662421004E-006
  3.732734561176227E-003  2.927531662421004E-006
  3.974091960510334E-003  2.927531662421004E-006
  4.068093013356395E-003  2.927531662421004E-006
 cut=1d-8, nber non-redundant internal coords=          60
 Check on Eigenvals of non-red overlap matrix:
  0.00000293  0.00000533  0.00001092  0.00001919  0.00002233  0.00003026  0.00003299  0.00004027
  0.00004650  0.00004875  0.00005396  0.00006280  0.00006534  0.00008019  0.00009717  0.00010260
  0.00011289  0.00011678  0.00012451  0.00015577  0.00016253  0.00018606  0.00022702  0.00027028
  0.00029366  0.00030686  0.00031815  0.00036776  0.00037004  0.00041217  0.00053453  0.00059219
  0.00059306  0.00059660  0.00059847  0.00060438  0.00061996  0.00062359  0.00063498  0.00066080
  0.00066168  0.00103204  0.00105636  0.00108135  0.00110901  0.00113855  0.00114458  0.00117037
  0.00117259  0.00118675  0.00129255  0.00144844  0.00185789  0.00208702  0.00234164  0.00310544
  0.00354268  0.00373273  0.00397409  0.00406809
 Checking for correct frequencies
 recalc frequencies=
    -0.0   -0.0   -0.0    0.0    0.0    0.0   42.6   65.0   93.3  177.9
   204.3  258.6  272.5  326.2  407.8  414.5  459.6  465.7  498.3  573.7
   585.5  622.8  632.0  639.5  696.4  700.7  709.8  762.6  774.3  820.8
   836.9  851.8  876.0  899.6  927.1  979.0  980.4 1001.6 1014.7 1053.0
  1104.1 1109.6 1177.7 1183.4 1206.9 1210.3 1243.6 1315.0 1355.7 1362.7
  1378.3 1457.0 1476.0 1504.7 1523.3 1558.0 1615.1 1642.0 3161.8 3168.3
  3178.0 3184.3 3192.0 3212.6 3213.6 3244.8
 recalc symmetries=
                                                                       
                                                                       
                                                                       
                                                                       
                                                                       
                                                                       
                                           
 recalc freqs check OK
 Zero-point lengths:
 10.0000 10.0000 10.0000 10.0000 10.0000 10.0000 37.9965 30.7605 25.6632 18.5853
 17.3455 15.4158 15.0182 13.7273 12.2770 12.1766 11.5637 11.4885 11.1055 10.3499
 10.2457  9.9340  9.8617  9.8036  9.3942  9.3653  9.3055  8.9771  8.9091  8.6532
  8.5698  8.4941  8.3760  8.2655  8.1420  7.9233  7.9176  7.8335  7.7825  7.6398
  7.4610  7.4425  7.2239  7.2065  7.1360  7.1262  7.0299  6.8364  6.7331  6.7156
  6.6776  6.4949  6.4530  6.3911  6.3519  6.2808  6.1686  6.1179  4.4089  4.4044
  4.3976  4.3933  4.3880  4.3739  4.3732  4.3521
 highest evec of mol 2
 -0.0000  0.0000  0.0000
  0.0001 -0.0001  0.0000
 -0.0001 -0.0002  0.0001
 -0.0000  0.0001  0.0000
  0.0003 -0.0003 -0.0001
  0.0006  0.0023  0.0007
 -0.0034 -0.0003  0.0003
 -0.0006 -0.0021 -0.0006
  0.2818  0.0016 -0.0342
  0.0147  0.0900  0.0278
 -0.0069 -0.0029 -0.0001
  0.0004 -0.0000 -0.0001
 -0.0001  0.0001 -0.0000
  0.0000  0.0001 -0.0000
  0.0000  0.0000  0.0000
 -0.0002  0.0003 -0.0000
  0.0002  0.0006 -0.0002
 -0.0020 -0.0062 -0.0020
 -0.9090 -0.0466  0.0966
 -0.0778 -0.2474 -0.0717
  0.0002 -0.0003  0.0001
 -0.0001 -0.0003  0.0001
 Enter nber and list of atoms to keep of mol #2
 keep list:          22           1           2           3           4
           5           6           7           8           9          10
          11          12          13          14          15          16
          17          18          19          20          21          22
 reordering atoms
           1  -4.78620690085274     
           2  -4.16141107622954     
           3  -2.77441297929243     
           4  -1.97966528023794     
           5 -0.514884741677434     
           6  0.393014764450239     
           7   1.73357984476173     
           8   3.30373457337894     
           9   4.08497022488046     
          10   3.20379363397623     
          11   1.85877918928040     
          12  0.290139802533025     
          13  -2.62342337924476     
          14  -4.00943355963618     
          15  -5.86715634247898     
          16  -4.75502372102341     
          17  -2.30028292099523     
          18  0.102486477068487     
          19   5.16301001494491     
          20   3.50423960560481     
          21  -2.03142797421417     
          22  -4.48551010190813     
           1           1
           2           2
           3           3
           4           4
           5           5
           6           6
           7           7
           8           8
           9           9
          10          10
          11          11
          12          12
          13          13
          14          14
          15          15
          16          16
          17          17
          18          18
          19          19
          20          20
          21          21
          22          22
 initial cartes coords mol 1
   6  -0.00034   0.33414   4.77403
   6   0.00009  -0.93043   4.16295
   6   0.00034  -1.04984   2.78903
   6   0.00022   0.11123   1.94665
   6   0.00046   0.01054   0.53920
   6   0.00061   1.07446  -0.42650
   6   0.00030   0.59493  -1.71918
  16   0.00008   1.34545  -3.32026
   6  -0.00053  -0.23761  -4.07308
   6  -0.00052  -1.28235  -3.16403
   6  -0.00005  -0.82449  -1.84317
  16   0.00001  -1.60102  -0.26604
   6  -0.00027   1.39323   2.59672
   6  -0.00056   1.48715   3.97248
   1  -0.00053   0.41932   5.85425
   1   0.00022  -1.82449   4.77678
   1   0.00073  -2.03536   2.33650
   1   0.00097   2.11636  -0.14587
   1  -0.00075  -0.30630  -5.15019
   1  -0.00081  -2.32110  -3.46494
   1  -0.00061   2.29652   1.99956
   1  -0.00100   2.46591   4.43998
 initial cartes coords mol 2
   6   0.04908  -0.30800  -4.78621
   6   0.48017   0.86020  -4.16141
   6   0.46703   0.96130  -2.77441
   6   0.01258  -0.10327  -1.97967
   6   0.00146  -0.01635  -0.51488
   6   0.16075  -1.03337   0.39301
   6   0.08685  -0.57297   1.73358
  16   0.21806  -1.32104   3.30373
   6  -0.02117   0.22622   4.08497
   6  -0.18866   1.25384   3.20379
   6  -0.12454   0.79307   1.85878
  16  -0.25140   1.53998   0.29014
   6  -0.43036  -1.27094  -2.62342
   6  -0.40436  -1.37306  -4.00943
   1   0.06239  -0.38671  -5.86716
   1   0.83776   1.69403  -4.75502
   1   0.83153   1.86547  -2.30028
   1   0.35331  -2.05666   0.10249
   1  -0.02302   0.27278   5.16301
   1  -0.34820   2.27994   3.50424
   1  -0.81855  -2.09138  -2.03143
   1  -0.75265  -2.28289  -4.48551
 loop 1 0
 mod cartes coords mol 2
   6   0.04908  -0.30800  -4.78621
   6   0.48017   0.86020  -4.16141
   6   0.46703   0.96130  -2.77441
   6   0.01258  -0.10327  -1.97967
   6   0.00146  -0.01635  -0.51488
   6   0.16075  -1.03337   0.39301
   6   0.08685  -0.57297   1.73358
  16   0.21806  -1.32104   3.30373
   6  -0.02117   0.22622   4.08497
   6  -0.18866   1.25384   3.20379
   6  -0.12454   0.79307   1.85878
  16  -0.25140   1.53998   0.29014
   6  -0.43036  -1.27094  -2.62342
   6  -0.40436  -1.37306  -4.00943
   1   0.06239  -0.38671  -5.86716
   1   0.83776   1.69403  -4.75502
   1   0.83153   1.86547  -2.30028
   1   0.35331  -2.05666   0.10249
   1  -0.02302   0.27278   5.16301
   1  -0.34820   2.27994   3.50424
   1  -0.81855  -2.09138  -2.03143
   1  -0.75265  -2.28289  -4.48551
 read in order, maxerr= 11.75 for atom  15
 loop 1 1
 mod cartes coords mol 2
   6  -0.04908  -0.30800  -4.78621
   6  -0.48017   0.86020  -4.16141
   6  -0.46703   0.96130  -2.77441
   6  -0.01258  -0.10327  -1.97967
   6  -0.00146  -0.01635  -0.51488
   6  -0.16075  -1.03337   0.39301
   6  -0.08685  -0.57297   1.73358
  16  -0.21806  -1.32104   3.30373
   6   0.02117   0.22622   4.08497
   6   0.18866   1.25384   3.20379
   6   0.12454   0.79307   1.85878
  16   0.25140   1.53998   0.29014
   6   0.43036  -1.27094  -2.62342
   6   0.40436  -1.37306  -4.00943
   1  -0.06239  -0.38671  -5.86716
   1  -0.83776   1.69403  -4.75502
   1  -0.83153   1.86547  -2.30028
   1  -0.35331  -2.05666   0.10249
   1   0.02302   0.27278   5.16301
   1   0.34820   2.27994   3.50424
   1   0.81855  -2.09138  -2.03143
   1   0.75265  -2.28289  -4.48551
 read in order, maxerr= 11.75 for atom  15
 loop 1 2
 mod cartes coords mol 2
   6   0.04908   0.30800  -4.78621
   6   0.48017  -0.86020  -4.16141
   6   0.46703  -0.96130  -2.77441
   6   0.01258   0.10327  -1.97967
   6   0.00146   0.01635  -0.51488
   6   0.16075   1.03337   0.39301
   6   0.08685   0.57297   1.73358
  16   0.21806   1.32104   3.30373
   6  -0.02117  -0.22622   4.08497
   6  -0.18866  -1.25384   3.20379
   6  -0.12454  -0.79307   1.85878
  16  -0.25140  -1.53998   0.29014
   6  -0.43036   1.27094  -2.62342
   6  -0.40436   1.37306  -4.00943
   1   0.06239   0.38671  -5.86716
   1   0.83776  -1.69403  -4.75502
   1   0.83153  -1.86547  -2.30028
   1   0.35331   2.05666   0.10249
   1  -0.02302  -0.27278   5.16301
   1  -0.34820  -2.27994   3.50424
   1  -0.81855   2.09138  -2.03143
   1  -0.75265   2.28289  -4.48551
 read in order, maxerr= 11.72 for atom  15
 loop 1 3
 mod cartes coords mol 2
   6  -0.04908   0.30800  -4.78621
   6  -0.48017  -0.86020  -4.16141
   6  -0.46703  -0.96130  -2.77441
   6  -0.01258   0.10327  -1.97967
   6  -0.00146   0.01635  -0.51488
   6  -0.16075   1.03337   0.39301
   6  -0.08685   0.57297   1.73358
  16  -0.21806   1.32104   3.30373
   6   0.02117  -0.22622   4.08497
   6   0.18866  -1.25384   3.20379
   6   0.12454  -0.79307   1.85878
  16   0.25140  -1.53998   0.29014
   6   0.43036   1.27094  -2.62342
   6   0.40436   1.37306  -4.00943
   1  -0.06239   0.38671  -5.86716
   1  -0.83776  -1.69403  -4.75502
   1  -0.83153  -1.86547  -2.30028
   1  -0.35331   2.05666   0.10249
   1   0.02302  -0.27278   5.16301
   1   0.34820  -2.27994   3.50424
   1   0.81855   2.09138  -2.03143
   1   0.75265   2.28289  -4.48551
 read in order, maxerr= 11.72 for atom  15
 loop 1 4
 mod cartes coords mol 2
   6   0.04908  -0.30800   4.78621
   6   0.48017   0.86020   4.16141
   6   0.46703   0.96130   2.77441
   6   0.01258  -0.10327   1.97967
   6   0.00146  -0.01635   0.51488
   6   0.16075  -1.03337  -0.39301
   6   0.08685  -0.57297  -1.73358
  16   0.21806  -1.32104  -3.30373
   6  -0.02117   0.22622  -4.08497
   6  -0.18866   1.25384  -3.20379
   6  -0.12454   0.79307  -1.85878
  16  -0.25140   1.53998  -0.29014
   6  -0.43036  -1.27094   2.62342
   6  -0.40436  -1.37306   4.00943
   1   0.06239  -0.38671   5.86716
   1   0.83776   1.69403   4.75502
   1   0.83153   1.86547   2.30028
   1   0.35331  -2.05666  -0.10249
   1  -0.02302   0.27278  -5.16301
   1  -0.34820   2.27994  -3.50424
   1  -0.81855  -2.09138   2.03143
   1  -0.75265  -2.28289   4.48551
 read in order, maxerr=  4.81 for atom  22
 loop 1 5
 mod cartes coords mol 2
   6  -0.04908  -0.30800   4.78621
   6  -0.48017   0.86020   4.16141
   6  -0.46703   0.96130   2.77441
   6  -0.01258  -0.10327   1.97967
   6  -0.00146  -0.01635   0.51488
   6  -0.16075  -1.03337  -0.39301
   6  -0.08685  -0.57297  -1.73358
  16  -0.21806  -1.32104  -3.30373
   6   0.02117   0.22622  -4.08497
   6   0.18866   1.25384  -3.20379
   6   0.12454   0.79307  -1.85878
  16   0.25140   1.53998  -0.29014
   6   0.43036  -1.27094   2.62342
   6   0.40436  -1.37306   4.00943
   1  -0.06239  -0.38671   5.86716
   1  -0.83776   1.69403   4.75502
   1  -0.83153   1.86547   2.30028
   1  -0.35331  -2.05666  -0.10249
   1   0.02302   0.27278  -5.16301
   1   0.34820   2.27994  -3.50424
   1   0.81855  -2.09138   2.03143
   1   0.75265  -2.28289   4.48551
 read in order, maxerr=  4.81 for atom  22
 loop 1 6
 mod cartes coords mol 2
   6   0.04908   0.30800   4.78621
   6   0.48017  -0.86020   4.16141
   6   0.46703  -0.96130   2.77441
   6   0.01258   0.10327   1.97967
   6   0.00146   0.01635   0.51488
   6   0.16075   1.03337  -0.39301
   6   0.08685   0.57297  -1.73358
  16   0.21806   1.32104  -3.30373
   6  -0.02117  -0.22622  -4.08497
   6  -0.18866  -1.25384  -3.20379
   6  -0.12454  -0.79307  -1.85878
  16  -0.25140  -1.53998  -0.29014
   6  -0.43036   1.27094   2.62342
   6  -0.40436   1.37306   4.00943
   1   0.06239   0.38671   5.86716
   1   0.83776  -1.69403   4.75502
   1   0.83153  -1.86547   2.30028
   1   0.35331   2.05666  -0.10249
   1  -0.02302  -0.27278  -5.16301
   1  -0.34820  -2.27994  -3.50424
   1  -0.81855   2.09138   2.03143
   1  -0.75265   2.28289   4.48551
 read in order, maxerr=  0.85 for atom  17
 loop 1 7
 mod cartes coords mol 2
   6  -0.04908   0.30800   4.78621
   6  -0.48017  -0.86020   4.16141
   6  -0.46703  -0.96130   2.77441
   6  -0.01258   0.10327   1.97967
   6  -0.00146   0.01635   0.51488
   6  -0.16075   1.03337  -0.39301
   6  -0.08685   0.57297  -1.73358
  16  -0.21806   1.32104  -3.30373
   6   0.02117  -0.22622  -4.08497
   6   0.18866  -1.25384  -3.20379
   6   0.12454  -0.79307  -1.85878
  16   0.25140  -1.53998  -0.29014
   6   0.43036   1.27094   2.62342
   6   0.40436   1.37306   4.00943
   1  -0.06239   0.38671   5.86716
   1  -0.83776  -1.69403   4.75502
   1  -0.83153  -1.86547   2.30028
   1  -0.35331   2.05666  -0.10249
   1   0.02302  -0.27278  -5.16301
   1   0.34820  -2.27994  -3.50424
   1   0.81855   2.09138   2.03143
   1   0.75265   2.28289   4.48551
 read in order, maxerr=  0.85 for atom  17
 loop 2 0
 mod cartes coords mol 2
   6   0.04908  -4.78621  -0.30800
   6   0.48017  -4.16141   0.86020
   6   0.46703  -2.77441   0.96130
   6   0.01258  -1.97967  -0.10327
   6   0.00146  -0.51488  -0.01635
   6   0.16075   0.39301  -1.03337
   6   0.08685   1.73358  -0.57297
  16   0.21806   3.30373  -1.32104
   6  -0.02117   4.08497   0.22622
   6  -0.18866   3.20379   1.25384
   6  -0.12454   1.85878   0.79307
  16  -0.25140   0.29014   1.53998
   6  -0.43036  -2.62342  -1.27094
   6  -0.40436  -4.00943  -1.37306
   1   0.06239  -5.86716  -0.38671
   1   0.83776  -4.75502   1.69403
   1   0.83153  -2.30028   1.86547
   1   0.35331   0.10249  -2.05666
   1  -0.02302   5.16301   0.27278
   1  -0.34820   3.50424   2.27994
   1  -0.81855  -2.03143  -2.09138
   1  -0.75265  -4.48551  -2.28289
 read in order, maxerr=  9.70 for atom  22
 loop 2 1
 mod cartes coords mol 2
   6  -0.04908  -4.78621  -0.30800
   6  -0.48017  -4.16141   0.86020
   6  -0.46703  -2.77441   0.96130
   6  -0.01258  -1.97967  -0.10327
   6  -0.00146  -0.51488  -0.01635
   6  -0.16075   0.39301  -1.03337
   6  -0.08685   1.73358  -0.57297
  16  -0.21806   3.30373  -1.32104
   6   0.02117   4.08497   0.22622
   6   0.18866   3.20379   1.25384
   6   0.12454   1.85878   0.79307
  16   0.25140   0.29014   1.53998
   6   0.43036  -2.62342  -1.27094
   6   0.40436  -4.00943  -1.37306
   1  -0.06239  -5.86716  -0.38671
   1  -0.83776  -4.75502   1.69403
   1  -0.83153  -2.30028   1.86547
   1  -0.35331   0.10249  -2.05666
   1   0.02302   5.16301   0.27278
   1   0.34820   3.50424   2.27994
   1   0.81855  -2.03143  -2.09138
   1   0.75265  -4.48551  -2.28289
 read in order, maxerr=  9.70 for atom  22
 loop 2 2
 mod cartes coords mol 2
   6   0.04908  -4.78621   0.30800
   6   0.48017  -4.16141  -0.86020
   6   0.46703  -2.77441  -0.96130
   6   0.01258  -1.97967   0.10327
   6   0.00146  -0.51488   0.01635
   6   0.16075   0.39301   1.03337
   6   0.08685   1.73358   0.57297
  16   0.21806   3.30373   1.32104
   6  -0.02117   4.08497  -0.22622
   6  -0.18866   3.20379  -1.25384
   6  -0.12454   1.85878  -0.79307
  16  -0.25140   0.29014  -1.53998
   6  -0.43036  -2.62342   1.27094
   6  -0.40436  -4.00943   1.37306
   1   0.06239  -5.86716   0.38671
   1   0.83776  -4.75502  -1.69403
   1   0.83153  -2.30028  -1.86547
   1   0.35331   0.10249   2.05666
   1  -0.02302   5.16301  -0.27278
   1  -0.34820   3.50424  -2.27994
   1  -0.81855  -2.03143   2.09138
   1  -0.75265  -4.48551   2.28289
 read in order, maxerr=  8.33 for atom  15
 loop 2 3
 mod cartes coords mol 2
   6  -0.04908  -4.78621   0.30800
   6  -0.48017  -4.16141  -0.86020
   6  -0.46703  -2.77441  -0.96130
   6  -0.01258  -1.97967   0.10327
   6  -0.00146  -0.51488   0.01635
   6  -0.16075   0.39301   1.03337
   6  -0.08685   1.73358   0.57297
  16  -0.21806   3.30373   1.32104
   6   0.02117   4.08497  -0.22622
   6   0.18866   3.20379  -1.25384
   6   0.12454   1.85878  -0.79307
  16   0.25140   0.29014  -1.53998
   6   0.43036  -2.62342   1.27094
   6   0.40436  -4.00943   1.37306
   1  -0.06239  -5.86716   0.38671
   1  -0.83776  -4.75502  -1.69403
   1  -0.83153  -2.30028  -1.86547
   1  -0.35331   0.10249   2.05666
   1   0.02302   5.16301  -0.27278
   1   0.34820   3.50424  -2.27994
   1   0.81855  -2.03143   2.09138
   1   0.75265  -4.48551   2.28289
 read in order, maxerr=  8.33 for atom  15
 loop 2 4
 mod cartes coords mol 2
   6   0.04908   4.78621  -0.30800
   6   0.48017   4.16141   0.86020
   6   0.46703   2.77441   0.96130
   6   0.01258   1.97967  -0.10327
   6   0.00146   0.51488  -0.01635
   6   0.16075  -0.39301  -1.03337
   6   0.08685  -1.73358  -0.57297
  16   0.21806  -3.30373  -1.32104
   6  -0.02117  -4.08497   0.22622
   6  -0.18866  -3.20379   1.25384
   6  -0.12454  -1.85878   0.79307
  16  -0.25140  -0.29014   1.53998
   6  -0.43036   2.62342  -1.27094
   6  -0.40436   4.00943  -1.37306
   1   0.06239   5.86716  -0.38671
   1   0.83776   4.75502   1.69403
   1   0.83153   2.30028   1.86547
   1   0.35331  -0.10249  -2.05666
   1  -0.02302  -5.16301   0.27278
   1  -0.34820  -3.50424   2.27994
   1  -0.81855   2.03143  -2.09138
   1  -0.75265   4.48551  -2.28289
 read in order, maxerr=  8.28 for atom  15
 loop 2 5
 mod cartes coords mol 2
   6  -0.04908   4.78621  -0.30800
   6  -0.48017   4.16141   0.86020
   6  -0.46703   2.77441   0.96130
   6  -0.01258   1.97967  -0.10327
   6  -0.00146   0.51488  -0.01635
   6  -0.16075  -0.39301  -1.03337
   6  -0.08685  -1.73358  -0.57297
  16  -0.21806  -3.30373  -1.32104
   6   0.02117  -4.08497   0.22622
   6   0.18866  -3.20379   1.25384
   6   0.12454  -1.85878   0.79307
  16   0.25140  -0.29014   1.53998
   6   0.43036   2.62342  -1.27094
   6   0.40436   4.00943  -1.37306
   1  -0.06239   5.86716  -0.38671
   1  -0.83776   4.75502   1.69403
   1  -0.83153   2.30028   1.86547
   1  -0.35331  -0.10249  -2.05666
   1   0.02302  -5.16301   0.27278
   1   0.34820  -3.50424   2.27994
   1   0.81855   2.03143  -2.09138
   1   0.75265   4.48551  -2.28289
 read in order, maxerr=  8.28 for atom  15
 loop 2 6
 mod cartes coords mol 2
   6   0.04908   4.78621   0.30800
   6   0.48017   4.16141  -0.86020
   6   0.46703   2.77441  -0.96130
   6   0.01258   1.97967   0.10327
   6   0.00146   0.51488   0.01635
   6   0.16075  -0.39301   1.03337
   6   0.08685  -1.73358   0.57297
  16   0.21806  -3.30373   1.32104
   6  -0.02117  -4.08497  -0.22622
   6  -0.18866  -3.20379  -1.25384
   6  -0.12454  -1.85878  -0.79307
  16  -0.25140  -0.29014  -1.53998
   6  -0.43036   2.62342   1.27094
   6  -0.40436   4.00943   1.37306
   1   0.06239   5.86716   0.38671
   1   0.83776   4.75502  -1.69403
   1   0.83153   2.30028  -1.86547
   1   0.35331  -0.10249   2.05666
   1  -0.02302  -5.16301  -0.27278
   1  -0.34820  -3.50424  -2.27994
   1  -0.81855   2.03143   2.09138
   1  -0.75265   4.48551   2.28289
 read in order, maxerr=  9.27 for atom  16
 loop 2 7
 mod cartes coords mol 2
   6  -0.04908   4.78621   0.30800
   6  -0.48017   4.16141  -0.86020
   6  -0.46703   2.77441  -0.96130
   6  -0.01258   1.97967   0.10327
   6  -0.00146   0.51488   0.01635
   6  -0.16075  -0.39301   1.03337
   6  -0.08685  -1.73358   0.57297
  16  -0.21806  -3.30373   1.32104
   6   0.02117  -4.08497  -0.22622
   6   0.18866  -3.20379  -1.25384
   6   0.12454  -1.85878  -0.79307
  16   0.25140  -0.29014  -1.53998
   6   0.43036   2.62342   1.27094
   6   0.40436   4.00943   1.37306
   1  -0.06239   5.86716   0.38671
   1  -0.83776   4.75502  -1.69403
   1  -0.83153   2.30028  -1.86547
   1  -0.35331  -0.10249   2.05666
   1   0.02302  -5.16301  -0.27278
   1   0.34820  -3.50424  -2.27994
   1   0.81855   2.03143   2.09138
   1   0.75265   4.48551   2.28289
 read in order, maxerr=  9.27 for atom  16
 loop 3 0
 mod cartes coords mol 2
   6  -0.30800   0.04908  -4.78621
   6   0.86020   0.48017  -4.16141
   6   0.96130   0.46703  -2.77441
   6  -0.10327   0.01258  -1.97967
   6  -0.01635   0.00146  -0.51488
   6  -1.03337   0.16075   0.39301
   6  -0.57297   0.08685   1.73358
  16  -1.32104   0.21806   3.30373
   6   0.22622  -0.02117   4.08497
   6   1.25384  -0.18866   3.20379
   6   0.79307  -0.12454   1.85878
  16   1.53998  -0.25140   0.29014
   6  -1.27094  -0.43036  -2.62342
   6  -1.37306  -0.40436  -4.00943
   1  -0.38671   0.06239  -5.86716
   1   1.69403   0.83776  -4.75502
   1   1.86547   0.83153  -2.30028
   1  -2.05666   0.35331   0.10249
   1   0.27278  -0.02302   5.16301
   1   2.27994  -0.34820   3.50424
   1  -2.09138  -0.81855  -2.03143
   1  -2.28289  -0.75265  -4.48551
 read in order, maxerr= 11.73 for atom  15
 loop 3 1
 mod cartes coords mol 2
   6  -0.30800  -0.04908  -4.78621
   6   0.86020  -0.48017  -4.16141
   6   0.96130  -0.46703  -2.77441
   6  -0.10327  -0.01258  -1.97967
   6  -0.01635  -0.00146  -0.51488
   6  -1.03337  -0.16075   0.39301
   6  -0.57297  -0.08685   1.73358
  16  -1.32104  -0.21806   3.30373
   6   0.22622   0.02117   4.08497
   6   1.25384   0.18866   3.20379
   6   0.79307   0.12454   1.85878
  16   1.53998   0.25140   0.29014
   6  -1.27094   0.43036  -2.62342
   6  -1.37306   0.40436  -4.00943
   1  -0.38671  -0.06239  -5.86716
   1   1.69403  -0.83776  -4.75502
   1   1.86547  -0.83153  -2.30028
   1  -2.05666  -0.35331   0.10249
   1   0.27278   0.02302   5.16301
   1   2.27994   0.34820   3.50424
   1  -2.09138   0.81855  -2.03143
   1  -2.28289   0.75265  -4.48551
 read in order, maxerr= 11.74 for atom  15
 loop 3 2
 mod cartes coords mol 2
   6   0.30800   0.04908  -4.78621
   6  -0.86020   0.48017  -4.16141
   6  -0.96130   0.46703  -2.77441
   6   0.10327   0.01258  -1.97967
   6   0.01635   0.00146  -0.51488
   6   1.03337   0.16075   0.39301
   6   0.57297   0.08685   1.73358
  16   1.32104   0.21806   3.30373
   6  -0.22622  -0.02117   4.08497
   6  -1.25384  -0.18866   3.20379
   6  -0.79307  -0.12454   1.85878
  16  -1.53998  -0.25140   0.29014
   6   1.27094  -0.43036  -2.62342
   6   1.37306  -0.40436  -4.00943
   1   0.38671   0.06239  -5.86716
   1  -1.69403   0.83776  -4.75502
   1  -1.86547   0.83153  -2.30028
   1   2.05666   0.35331   0.10249
   1  -0.27278  -0.02302   5.16301
   1  -2.27994  -0.34820   3.50424
   1   2.09138  -0.81855  -2.03143
   1   2.28289  -0.75265  -4.48551
 read in order, maxerr= 11.73 for atom  15
 loop 3 3
 mod cartes coords mol 2
   6   0.30800  -0.04908  -4.78621
   6  -0.86020  -0.48017  -4.16141
   6  -0.96130  -0.46703  -2.77441
   6   0.10327  -0.01258  -1.97967
   6   0.01635  -0.00146  -0.51488
   6   1.03337  -0.16075   0.39301
   6   0.57297  -0.08685   1.73358
  16   1.32104  -0.21806   3.30373
   6  -0.22622   0.02117   4.08497
   6  -1.25384   0.18866   3.20379
   6  -0.79307   0.12454   1.85878
  16  -1.53998   0.25140   0.29014
   6   1.27094   0.43036  -2.62342
   6   1.37306   0.40436  -4.00943
   1   0.38671  -0.06239  -5.86716
   1  -1.69403  -0.83776  -4.75502
   1  -1.86547  -0.83153  -2.30028
   1   2.05666  -0.35331   0.10249
   1  -0.27278   0.02302   5.16301
   1  -2.27994   0.34820   3.50424
   1   2.09138   0.81855  -2.03143
   1   2.28289   0.75265  -4.48551
 read in order, maxerr= 11.74 for atom  15
 loop 3 4
 mod cartes coords mol 2
   6  -0.30800   0.04908   4.78621
   6   0.86020   0.48017   4.16141
   6   0.96130   0.46703   2.77441
   6  -0.10327   0.01258   1.97967
   6  -0.01635   0.00146   0.51488
   6  -1.03337   0.16075  -0.39301
   6  -0.57297   0.08685  -1.73358
  16  -1.32104   0.21806  -3.30373
   6   0.22622  -0.02117  -4.08497
   6   1.25384  -0.18866  -3.20379
   6   0.79307  -0.12454  -1.85878
  16   1.53998  -0.25140  -0.29014
   6  -1.27094  -0.43036   2.62342
   6  -1.37306  -0.40436   4.00943
   1  -0.38671   0.06239   5.86716
   1   1.69403   0.83776   4.75502
   1   1.86547   0.83153   2.30028
   1  -2.05666   0.35331  -0.10249
   1   0.27278  -0.02302  -5.16301
   1   2.27994  -0.34820  -3.50424
   1  -2.09138  -0.81855   2.03143
   1  -2.28289  -0.75265   4.48551
 read in order, maxerr=  3.95 for atom  22
 loop 3 5
 mod cartes coords mol 2
   6  -0.30800  -0.04908   4.78621
   6   0.86020  -0.48017   4.16141
   6   0.96130  -0.46703   2.77441
   6  -0.10327  -0.01258   1.97967
   6  -0.01635  -0.00146   0.51488
   6  -1.03337  -0.16075  -0.39301
   6  -0.57297  -0.08685  -1.73358
  16  -1.32104  -0.21806  -3.30373
   6   0.22622   0.02117  -4.08497
   6   1.25384   0.18866  -3.20379
   6   0.79307   0.12454  -1.85878
  16   1.53998   0.25140  -0.29014
   6  -1.27094   0.43036   2.62342
   6  -1.37306   0.40436   4.00943
   1  -0.38671  -0.06239   5.86716
   1   1.69403  -0.83776   4.75502
   1   1.86547  -0.83153   2.30028
   1  -2.05666  -0.35331  -0.10249
   1   0.27278   0.02302  -5.16301
   1   2.27994   0.34820  -3.50424
   1  -2.09138   0.81855   2.03143
   1  -2.28289   0.75265   4.48551
 read in order, maxerr=  3.51 for atom  20
 loop 3 6
 mod cartes coords mol 2
   6   0.30800   0.04908   4.78621
   6  -0.86020   0.48017   4.16141
   6  -0.96130   0.46703   2.77441
   6   0.10327   0.01258   1.97967
   6   0.01635   0.00146   0.51488
   6   1.03337   0.16075  -0.39301
   6   0.57297   0.08685  -1.73358
  16   1.32104   0.21806  -3.30373
   6  -0.22622  -0.02117  -4.08497
   6  -1.25384  -0.18866  -3.20379
   6  -0.79307  -0.12454  -1.85878
  16  -1.53998  -0.25140  -0.29014
   6   1.27094  -0.43036   2.62342
   6   1.37306  -0.40436   4.00943
   1   0.38671   0.06239   5.86716
   1  -1.69403   0.83776   4.75502
   1  -1.86547   0.83153   2.30028
   1   2.05666   0.35331  -0.10249
   1  -0.27278  -0.02302  -5.16301
   1  -2.27994  -0.34820  -3.50424
   1   2.09138  -0.81855   2.03143
   1   2.28289  -0.75265   4.48551
 read in order, maxerr=  3.95 for atom  22
 loop 3 7
 mod cartes coords mol 2
   6   0.30800  -0.04908   4.78621
   6  -0.86020  -0.48017   4.16141
   6  -0.96130  -0.46703   2.77441
   6   0.10327  -0.01258   1.97967
   6   0.01635  -0.00146   0.51488
   6   1.03337  -0.16075  -0.39301
   6   0.57297  -0.08685  -1.73358
  16   1.32104  -0.21806  -3.30373
   6  -0.22622   0.02117  -4.08497
   6  -1.25384   0.18866  -3.20379
   6  -0.79307   0.12454  -1.85878
  16  -1.53998   0.25140  -0.29014
   6   1.27094   0.43036   2.62342
   6   1.37306   0.40436   4.00943
   1   0.38671  -0.06239   5.86716
   1  -1.69403  -0.83776   4.75502
   1  -1.86547  -0.83153   2.30028
   1   2.05666  -0.35331  -0.10249
   1  -0.27278   0.02302  -5.16301
   1  -2.27994   0.34820  -3.50424
   1   2.09138   0.81855   2.03143
   1   2.28289   0.75265   4.48551
 read in order, maxerr=  3.51 for atom  20
 loop 4 0
 mod cartes coords mol 2
   6  -4.78621   0.04908  -0.30800
   6  -4.16141   0.48017   0.86020
   6  -2.77441   0.46703   0.96130
   6  -1.97967   0.01258  -0.10327
   6  -0.51488   0.00146  -0.01635
   6   0.39301   0.16075  -1.03337
   6   1.73358   0.08685  -0.57297
  16   3.30373   0.21806  -1.32104
   6   4.08497  -0.02117   0.22622
   6   3.20379  -0.18866   1.25384
   6   1.85878  -0.12454   0.79307
  16   0.29014  -0.25140   1.53998
   6  -2.62342  -0.43036  -1.27094
   6  -4.00943  -0.40436  -1.37306
   1  -5.86716   0.06239  -0.38671
   1  -4.75502   0.83776   1.69403
   1  -2.30028   0.83153   1.86547
   1   0.10249   0.35331  -2.05666
   1   5.16301  -0.02302   0.27278
   1   3.50424  -0.34820   2.27994
   1  -2.03143  -0.81855  -2.09138
   1  -4.48551  -0.75265  -2.28289
 read in order, maxerr=  8.70 for atom  22
 loop 4 1
 mod cartes coords mol 2
   6  -4.78621  -0.04908  -0.30800
   6  -4.16141  -0.48017   0.86020
   6  -2.77441  -0.46703   0.96130
   6  -1.97967  -0.01258  -0.10327
   6  -0.51488  -0.00146  -0.01635
   6   0.39301  -0.16075  -1.03337
   6   1.73358  -0.08685  -0.57297
  16   3.30373  -0.21806  -1.32104
   6   4.08497   0.02117   0.22622
   6   3.20379   0.18866   1.25384
   6   1.85878   0.12454   0.79307
  16   0.29014   0.25140   1.53998
   6  -2.62342   0.43036  -1.27094
   6  -4.00943   0.40436  -1.37306
   1  -5.86716  -0.06239  -0.38671
   1  -4.75502  -0.83776   1.69403
   1  -2.30028  -0.83153   1.86547
   1   0.10249  -0.35331  -2.05666
   1   5.16301   0.02302   0.27278
   1   3.50424   0.34820   2.27994
   1  -2.03143   0.81855  -2.09138
   1  -4.48551   0.75265  -2.28289
 read in order, maxerr=  8.58 for atom  15
 loop 4 2
 mod cartes coords mol 2
   6  -4.78621   0.04908   0.30800
   6  -4.16141   0.48017  -0.86020
   6  -2.77441   0.46703  -0.96130
   6  -1.97967   0.01258   0.10327
   6  -0.51488   0.00146   0.01635
   6   0.39301   0.16075   1.03337
   6   1.73358   0.08685   0.57297
  16   3.30373   0.21806   1.32104
   6   4.08497  -0.02117  -0.22622
   6   3.20379  -0.18866  -1.25384
   6   1.85878  -0.12454  -0.79307
  16   0.29014  -0.25140  -1.53998
   6  -2.62342  -0.43036   1.27094
   6  -4.00943  -0.40436   1.37306
   1  -5.86716   0.06239   0.38671
   1  -4.75502   0.83776  -1.69403
   1  -2.30028   0.83153  -1.86547
   1   0.10249   0.35331   2.05666
   1   5.16301  -0.02302  -0.27278
   1   3.50424  -0.34820  -2.27994
   1  -2.03143  -0.81855   2.09138
   1  -4.48551  -0.75265   2.28289
 read in order, maxerr=  8.46 for atom  16
 loop 4 3
 mod cartes coords mol 2
   6  -4.78621  -0.04908   0.30800
   6  -4.16141  -0.48017  -0.86020
   6  -2.77441  -0.46703  -0.96130
   6  -1.97967  -0.01258   0.10327
   6  -0.51488  -0.00146   0.01635
   6   0.39301  -0.16075   1.03337
   6   1.73358  -0.08685   0.57297
  16   3.30373  -0.21806   1.32104
   6   4.08497   0.02117  -0.22622
   6   3.20379   0.18866  -1.25384
   6   1.85878   0.12454  -0.79307
  16   0.29014   0.25140  -1.53998
   6  -2.62342   0.43036   1.27094
   6  -4.00943   0.40436   1.37306
   1  -5.86716  -0.06239   0.38671
   1  -4.75502  -0.83776  -1.69403
   1  -2.30028  -0.83153  -1.86547
   1   0.10249  -0.35331   2.05666
   1   5.16301   0.02302  -0.27278
   1   3.50424   0.34820  -2.27994
   1  -2.03143   0.81855   2.09138
   1  -4.48551   0.75265   2.28289
 read in order, maxerr=  8.09 for atom  16
 loop 4 4
 mod cartes coords mol 2
   6   4.78621   0.04908  -0.30800
   6   4.16141   0.48017   0.86020
   6   2.77441   0.46703   0.96130
   6   1.97967   0.01258  -0.10327
   6   0.51488   0.00146  -0.01635
   6  -0.39301   0.16075  -1.03337
   6  -1.73358   0.08685  -0.57297
  16  -3.30373   0.21806  -1.32104
   6  -4.08497  -0.02117   0.22622
   6  -3.20379  -0.18866   1.25384
   6  -1.85878  -0.12454   0.79307
  16  -0.29014  -0.25140   1.53998
   6   2.62342  -0.43036  -1.27094
   6   4.00943  -0.40436  -1.37306
   1   5.86716   0.06239  -0.38671
   1   4.75502   0.83776   1.69403
   1   2.30028   0.83153   1.86547
   1  -0.10249   0.35331  -2.05666
   1  -5.16301  -0.02302   0.27278
   1  -3.50424  -0.34820   2.27994
   1   2.03143  -0.81855  -2.09138
   1   4.48551  -0.75265  -2.28289
 read in order, maxerr=  8.70 for atom  22
 loop 4 5
 mod cartes coords mol 2
   6   4.78621  -0.04908  -0.30800
   6   4.16141  -0.48017   0.86020
   6   2.77441  -0.46703   0.96130
   6   1.97967  -0.01258  -0.10327
   6   0.51488  -0.00146  -0.01635
   6  -0.39301  -0.16075  -1.03337
   6  -1.73358  -0.08685  -0.57297
  16  -3.30373  -0.21806  -1.32104
   6  -4.08497   0.02117   0.22622
   6  -3.20379   0.18866   1.25384
   6  -1.85878   0.12454   0.79307
  16  -0.29014   0.25140   1.53998
   6   2.62342   0.43036  -1.27094
   6   4.00943   0.40436  -1.37306
   1   5.86716  -0.06239  -0.38671
   1   4.75502  -0.83776   1.69403
   1   2.30028  -0.83153   1.86547
   1  -0.10249  -0.35331  -2.05666
   1  -5.16301   0.02302   0.27278
   1  -3.50424   0.34820   2.27994
   1   2.03143   0.81855  -2.09138
   1   4.48551   0.75265  -2.28289
 read in order, maxerr=  8.58 for atom  15
 loop 4 6
 mod cartes coords mol 2
   6   4.78621   0.04908   0.30800
   6   4.16141   0.48017  -0.86020
   6   2.77441   0.46703  -0.96130
   6   1.97967   0.01258   0.10327
   6   0.51488   0.00146   0.01635
   6  -0.39301   0.16075   1.03337
   6  -1.73358   0.08685   0.57297
  16  -3.30373   0.21806   1.32104
   6  -4.08497  -0.02117  -0.22622
   6  -3.20379  -0.18866  -1.25384
   6  -1.85878  -0.12454  -0.79307
  16  -0.29014  -0.25140  -1.53998
   6   2.62342  -0.43036   1.27094
   6   4.00943  -0.40436   1.37306
   1   5.86716   0.06239   0.38671
   1   4.75502   0.83776  -1.69403
   1   2.30028   0.83153  -1.86547
   1  -0.10249   0.35331   2.05666
   1  -5.16301  -0.02302  -0.27278
   1  -3.50424  -0.34820  -2.27994
   1   2.03143  -0.81855   2.09138
   1   4.48551  -0.75265   2.28289
 read in order, maxerr=  8.46 for atom  16
 loop 4 7
 mod cartes coords mol 2
   6   4.78621  -0.04908   0.30800
   6   4.16141  -0.48017  -0.86020
   6   2.77441  -0.46703  -0.96130
   6   1.97967  -0.01258   0.10327
   6   0.51488  -0.00146   0.01635
   6  -0.39301  -0.16075   1.03337
   6  -1.73358  -0.08685   0.57297
  16  -3.30373  -0.21806   1.32104
   6  -4.08497   0.02117  -0.22622
   6  -3.20379   0.18866  -1.25384
   6  -1.85878   0.12454  -0.79307
  16  -0.29014   0.25140  -1.53998
   6   2.62342   0.43036   1.27094
   6   4.00943   0.40436   1.37306
   1   5.86716  -0.06239   0.38671
   1   4.75502  -0.83776  -1.69403
   1   2.30028  -0.83153  -1.86547
   1  -0.10249  -0.35331   2.05666
   1  -5.16301   0.02302  -0.27278
   1  -3.50424   0.34820  -2.27994
   1   2.03143   0.81855   2.09138
   1   4.48551   0.75265   2.28289
 read in order, maxerr=  8.09 for atom  16
 loop 5 0
 mod cartes coords mol 2
   6  -0.30800  -4.78621   0.04908
   6   0.86020  -4.16141   0.48017
   6   0.96130  -2.77441   0.46703
   6  -0.10327  -1.97967   0.01258
   6  -0.01635  -0.51488   0.00146
   6  -1.03337   0.39301   0.16075
   6  -0.57297   1.73358   0.08685
  16  -1.32104   3.30373   0.21806
   6   0.22622   4.08497  -0.02117
   6   1.25384   3.20379  -0.18866
   6   0.79307   1.85878  -0.12454
  16   1.53998   0.29014  -0.25140
   6  -1.27094  -2.62342  -0.43036
   6  -1.37306  -4.00943  -0.40436
   1  -0.38671  -5.86716   0.06239
   1   1.69403  -4.75502   0.83776
   1   1.86547  -2.30028   0.83153
   1  -2.05666   0.10249   0.35331
   1   0.27278   5.16301  -0.02302
   1   2.27994   3.50424  -0.34820
   1  -2.09138  -2.03143  -0.81855
   1  -2.28289  -4.48551  -0.75265
 read in order, maxerr=  8.97 for atom  22
 loop 5 1
 mod cartes coords mol 2
   6  -0.30800  -4.78621  -0.04908
   6   0.86020  -4.16141  -0.48017
   6   0.96130  -2.77441  -0.46703
   6  -0.10327  -1.97967  -0.01258
   6  -0.01635  -0.51488  -0.00146
   6  -1.03337   0.39301  -0.16075
   6  -0.57297   1.73358  -0.08685
  16  -1.32104   3.30373  -0.21806
   6   0.22622   4.08497   0.02117
   6   1.25384   3.20379   0.18866
   6   0.79307   1.85878   0.12454
  16   1.53998   0.29014   0.25140
   6  -1.27094  -2.62342   0.43036
   6  -1.37306  -4.00943   0.40436
   1  -0.38671  -5.86716  -0.06239
   1   1.69403  -4.75502  -0.83776
   1   1.86547  -2.30028  -0.83153
   1  -2.05666   0.10249  -0.35331
   1   0.27278   5.16301   0.02302
   1   2.27994   3.50424   0.34820
   1  -2.09138  -2.03143   0.81855
   1  -2.28289  -4.48551   0.75265
 read in order, maxerr=  8.64 for atom  15
 loop 5 2
 mod cartes coords mol 2
   6   0.30800  -4.78621   0.04908
   6  -0.86020  -4.16141   0.48017
   6  -0.96130  -2.77441   0.46703
   6   0.10327  -1.97967   0.01258
   6   0.01635  -0.51488   0.00146
   6   1.03337   0.39301   0.16075
   6   0.57297   1.73358   0.08685
  16   1.32104   3.30373   0.21806
   6  -0.22622   4.08497  -0.02117
   6  -1.25384   3.20379  -0.18866
   6  -0.79307   1.85878  -0.12454
  16  -1.53998   0.29014  -0.25140
   6   1.27094  -2.62342  -0.43036
   6   1.37306  -4.00943  -0.40436
   1   0.38671  -5.86716   0.06239
   1  -1.69403  -4.75502   0.83776
   1  -1.86547  -2.30028   0.83153
   1   2.05666   0.10249   0.35331
   1  -0.27278   5.16301  -0.02302
   1  -2.27994   3.50424  -0.34820
   1   2.09138  -2.03143  -0.81855
   1   2.28289  -4.48551  -0.75265
 read in order, maxerr=  8.97 for atom  22
 loop 5 3
 mod cartes coords mol 2
   6   0.30800  -4.78621  -0.04908
   6  -0.86020  -4.16141  -0.48017
   6  -0.96130  -2.77441  -0.46703
   6   0.10327  -1.97967  -0.01258
   6   0.01635  -0.51488  -0.00146
   6   1.03337   0.39301  -0.16075
   6   0.57297   1.73358  -0.08685
  16   1.32104   3.30373  -0.21806
   6  -0.22622   4.08497   0.02117
   6  -1.25384   3.20379   0.18866
   6  -0.79307   1.85878   0.12454
  16  -1.53998   0.29014   0.25140
   6   1.27094  -2.62342   0.43036
   6   1.37306  -4.00943   0.40436
   1   0.38671  -5.86716  -0.06239
   1  -1.69403  -4.75502  -0.83776
   1  -1.86547  -2.30028  -0.83153
   1   2.05666   0.10249  -0.35331
   1  -0.27278   5.16301   0.02302
   1  -2.27994   3.50424   0.34820
   1   2.09138  -2.03143   0.81855
   1   2.28289  -4.48551   0.75265
 read in order, maxerr=  8.64 for atom  15
 loop 5 4
 mod cartes coords mol 2
   6  -0.30800   4.78621   0.04908
   6   0.86020   4.16141   0.48017
   6   0.96130   2.77441   0.46703
   6  -0.10327   1.97967   0.01258
   6  -0.01635   0.51488   0.00146
   6  -1.03337  -0.39301   0.16075
   6  -0.57297  -1.73358   0.08685
  16  -1.32104  -3.30373   0.21806
   6   0.22622  -4.08497  -0.02117
   6   1.25384  -3.20379  -0.18866
   6   0.79307  -1.85878  -0.12454
  16   1.53998  -0.29014  -0.25140
   6  -1.27094   2.62342  -0.43036
   6  -1.37306   4.00943  -0.40436
   1  -0.38671   5.86716   0.06239
   1   1.69403   4.75502   0.83776
   1   1.86547   2.30028   0.83153
   1  -2.05666  -0.10249   0.35331
   1   0.27278  -5.16301  -0.02302
   1   2.27994  -3.50424  -0.34820
   1  -2.09138   2.03143  -0.81855
   1  -2.28289   4.48551  -0.75265
 read in order, maxerr=  7.96 for atom  15
 loop 5 5
 mod cartes coords mol 2
   6  -0.30800   4.78621  -0.04908
   6   0.86020   4.16141  -0.48017
   6   0.96130   2.77441  -0.46703
   6  -0.10327   1.97967  -0.01258
   6  -0.01635   0.51488  -0.00146
   6  -1.03337  -0.39301  -0.16075
   6  -0.57297  -1.73358  -0.08685
  16  -1.32104  -3.30373  -0.21806
   6   0.22622  -4.08497   0.02117
   6   1.25384  -3.20379   0.18866
   6   0.79307  -1.85878   0.12454
  16   1.53998  -0.29014   0.25140
   6  -1.27094   2.62342   0.43036
   6  -1.37306   4.00943   0.40436
   1  -0.38671   5.86716  -0.06239
   1   1.69403   4.75502  -0.83776
   1   1.86547   2.30028  -0.83153
   1  -2.05666  -0.10249  -0.35331
   1   0.27278  -5.16301   0.02302
   1   2.27994  -3.50424   0.34820
   1  -2.09138   2.03143   0.81855
   1  -2.28289   4.48551   0.75265
 read in order, maxerr=  8.81 for atom  16
 loop 5 6
 mod cartes coords mol 2
   6   0.30800   4.78621   0.04908
   6  -0.86020   4.16141   0.48017
   6  -0.96130   2.77441   0.46703
   6   0.10327   1.97967   0.01258
   6   0.01635   0.51488   0.00146
   6   1.03337  -0.39301   0.16075
   6   0.57297  -1.73358   0.08685
  16   1.32104  -3.30373   0.21806
   6  -0.22622  -4.08497  -0.02117
   6  -1.25384  -3.20379  -0.18866
   6  -0.79307  -1.85878  -0.12454
  16  -1.53998  -0.29014  -0.25140
   6   1.27094   2.62342  -0.43036
   6   1.37306   4.00943  -0.40436
   1   0.38671   5.86716   0.06239
   1  -1.69403   4.75502   0.83776
   1  -1.86547   2.30028   0.83153
   1   2.05666  -0.10249   0.35331
   1  -0.27278  -5.16301  -0.02302
   1  -2.27994  -3.50424  -0.34820
   1   2.09138   2.03143  -0.81855
   1   2.28289   4.48551  -0.75265
 read in order, maxerr=  7.96 for atom  15
 loop 5 7
 mod cartes coords mol 2
   6   0.30800   4.78621  -0.04908
   6  -0.86020   4.16141  -0.48017
   6  -0.96130   2.77441  -0.46703
   6   0.10327   1.97967  -0.01258
   6   0.01635   0.51488  -0.00146
   6   1.03337  -0.39301  -0.16075
   6   0.57297  -1.73358  -0.08685
  16   1.32104  -3.30373  -0.21806
   6  -0.22622  -4.08497   0.02117
   6  -1.25384  -3.20379   0.18866
   6  -0.79307  -1.85878   0.12454
  16  -1.53998  -0.29014   0.25140
   6   1.27094   2.62342   0.43036
   6   1.37306   4.00943   0.40436
   1   0.38671   5.86716  -0.06239
   1  -1.69403   4.75502  -0.83776
   1  -1.86547   2.30028  -0.83153
   1   2.05666  -0.10249  -0.35331
   1  -0.27278  -5.16301   0.02302
   1  -2.27994  -3.50424   0.34820
   1   2.09138   2.03143   0.81855
   1   2.28289   4.48551   0.75265
 read in order, maxerr=  8.81 for atom  16
 loop 6 0
 mod cartes coords mol 2
   6  -4.78621  -0.30800   0.04908
   6  -4.16141   0.86020   0.48017
   6  -2.77441   0.96130   0.46703
   6  -1.97967  -0.10327   0.01258
   6  -0.51488  -0.01635   0.00146
   6   0.39301  -1.03337   0.16075
   6   1.73358  -0.57297   0.08685
  16   3.30373  -1.32104   0.21806
   6   4.08497   0.22622  -0.02117
   6   3.20379   1.25384  -0.18866
   6   1.85878   0.79307  -0.12454
  16   0.29014   1.53998  -0.25140
   6  -2.62342  -1.27094  -0.43036
   6  -4.00943  -1.37306  -0.40436
   1  -5.86716  -0.38671   0.06239
   1  -4.75502   1.69403   0.83776
   1  -2.30028   1.86547   0.83153
   1   0.10249  -2.05666   0.35331
   1   5.16301   0.27278  -0.02302
   1   3.50424   2.27994  -0.34820
   1  -2.03143  -2.09138  -0.81855
   1  -4.48551  -2.28289  -0.75265
 read in order, maxerr=  8.34 for atom  22
 loop 6 1
 mod cartes coords mol 2
   6  -4.78621  -0.30800  -0.04908
   6  -4.16141   0.86020  -0.48017
   6  -2.77441   0.96130  -0.46703
   6  -1.97967  -0.10327  -0.01258
   6  -0.51488  -0.01635  -0.00146
   6   0.39301  -1.03337  -0.16075
   6   1.73358  -0.57297  -0.08685
  16   3.30373  -1.32104  -0.21806
   6   4.08497   0.22622   0.02117
   6   3.20379   1.25384   0.18866
   6   1.85878   0.79307   0.12454
  16   0.29014   1.53998   0.25140
   6  -2.62342  -1.27094   0.43036
   6  -4.00943  -1.37306   0.40436
   1  -5.86716  -0.38671  -0.06239
   1  -4.75502   1.69403  -0.83776
   1  -2.30028   1.86547  -0.83153
   1   0.10249  -2.05666  -0.35331
   1   5.16301   0.27278   0.02302
   1   3.50424   2.27994   0.34820
   1  -2.03143  -2.09138   0.81855
   1  -4.48551  -2.28289   0.75265
 read in order, maxerr=  8.37 for atom  15
 loop 6 2
 mod cartes coords mol 2
   6  -4.78621   0.30800   0.04908
   6  -4.16141  -0.86020   0.48017
   6  -2.77441  -0.96130   0.46703
   6  -1.97967   0.10327   0.01258
   6  -0.51488   0.01635   0.00146
   6   0.39301   1.03337   0.16075
   6   1.73358   0.57297   0.08685
  16   3.30373   1.32104   0.21806
   6   4.08497  -0.22622  -0.02117
   6   3.20379  -1.25384  -0.18866
   6   1.85878  -0.79307  -0.12454
  16   0.29014  -1.53998  -0.25140
   6  -2.62342   1.27094  -0.43036
   6  -4.00943   1.37306  -0.40436
   1  -5.86716   0.38671   0.06239
   1  -4.75502  -1.69403   0.83776
   1  -2.30028  -1.86547   0.83153
   1   0.10249   2.05666   0.35331
   1   5.16301  -0.27278  -0.02302
   1   3.50424  -2.27994  -0.34820
   1  -2.03143   2.09138  -0.81855
   1  -4.48551   2.28289  -0.75265
 read in order, maxerr=  8.24 for atom  15
 loop 6 3
 mod cartes coords mol 2
   6  -4.78621   0.30800  -0.04908
   6  -4.16141  -0.86020  -0.48017
   6  -2.77441  -0.96130  -0.46703
   6  -1.97967   0.10327  -0.01258
   6  -0.51488   0.01635  -0.00146
   6   0.39301   1.03337  -0.16075
   6   1.73358   0.57297  -0.08685
  16   3.30373   1.32104  -0.21806
   6   4.08497  -0.22622   0.02117
   6   3.20379  -1.25384   0.18866
   6   1.85878  -0.79307   0.12454
  16   0.29014  -1.53998   0.25140
   6  -2.62342   1.27094   0.43036
   6  -4.00943   1.37306   0.40436
   1  -5.86716   0.38671  -0.06239
   1  -4.75502  -1.69403  -0.83776
   1  -2.30028  -1.86547  -0.83153
   1   0.10249   2.05666  -0.35331
   1   5.16301  -0.27278   0.02302
   1   3.50424  -2.27994   0.34820
   1  -2.03143   2.09138   0.81855
   1  -4.48551   2.28289   0.75265
 read in order, maxerr=  8.33 for atom  15
 loop 6 4
 mod cartes coords mol 2
   6   4.78621  -0.30800   0.04908
   6   4.16141   0.86020   0.48017
   6   2.77441   0.96130   0.46703
   6   1.97967  -0.10327   0.01258
   6   0.51488  -0.01635   0.00146
   6  -0.39301  -1.03337   0.16075
   6  -1.73358  -0.57297   0.08685
  16  -3.30373  -1.32104   0.21806
   6  -4.08497   0.22622  -0.02117
   6  -3.20379   1.25384  -0.18866
   6  -1.85878   0.79307  -0.12454
  16  -0.29014   1.53998  -0.25140
   6   2.62342  -1.27094  -0.43036
   6   4.00943  -1.37306  -0.40436
   1   5.86716  -0.38671   0.06239
   1   4.75502   1.69403   0.83776
   1   2.30028   1.86547   0.83153
   1  -0.10249  -2.05666   0.35331
   1  -5.16301   0.27278  -0.02302
   1  -3.50424   2.27994  -0.34820
   1   2.03143  -2.09138  -0.81855
   1   4.48551  -2.28289  -0.75265
 read in order, maxerr=  8.35 for atom  22
 loop 6 5
 mod cartes coords mol 2
   6   4.78621  -0.30800  -0.04908
   6   4.16141   0.86020  -0.48017
   6   2.77441   0.96130  -0.46703
   6   1.97967  -0.10327  -0.01258
   6   0.51488  -0.01635  -0.00146
   6  -0.39301  -1.03337  -0.16075
   6  -1.73358  -0.57297  -0.08685
  16  -3.30373  -1.32104  -0.21806
   6  -4.08497   0.22622   0.02117
   6  -3.20379   1.25384   0.18866
   6  -1.85878   0.79307   0.12454
  16  -0.29014   1.53998   0.25140
   6   2.62342  -1.27094   0.43036
   6   4.00943  -1.37306   0.40436
   1   5.86716  -0.38671  -0.06239
   1   4.75502   1.69403  -0.83776
   1   2.30028   1.86547  -0.83153
   1  -0.10249  -2.05666  -0.35331
   1  -5.16301   0.27278   0.02302
   1  -3.50424   2.27994   0.34820
   1   2.03143  -2.09138   0.81855
   1   4.48551  -2.28289   0.75265
 read in order, maxerr=  8.37 for atom  15
 loop 6 6
 mod cartes coords mol 2
   6   4.78621   0.30800   0.04908
   6   4.16141  -0.86020   0.48017
   6   2.77441  -0.96130   0.46703
   6   1.97967   0.10327   0.01258
   6   0.51488   0.01635   0.00146
   6  -0.39301   1.03337   0.16075
   6  -1.73358   0.57297   0.08685
  16  -3.30373   1.32104   0.21806
   6  -4.08497  -0.22622  -0.02117
[...]
  62      3184. -0.4316    18.6   100.0  61      3175.
                 0.8522    72.6          62      3186.
  63      3192.  0.9472    89.7   100.0  63      3193.
  64      3212. -0.9987    99.7   100.0  64      3209.
  65      3214.  0.9985    99.7   100.0  65      3233.
  66      3245. -0.9988    99.8   100.0  66      3242.
 nber times 1st assigned=           1           0
 nber times 1st assigned=           2           0
 nber times 1st assigned=           3           0
 nber times 1st assigned=           4           0
 nber times 1st assigned=           5           0
 nber times 1st assigned=           6           0
 nber times 1st assigned=           7           5
 nber times 1st assigned=           9           0
 nber times 1st assigned=          10           0
 nber times 1st assigned=          11           0
 nber times 1st assigned=          12           0
 nber times 1st assigned=          13           0
 nber times 1st assigned=          14           0
 nber times 1st assigned=          15           0
 nber times 1st assigned=          16           0
 nber times 1st assigned=          17           0
 nber times 1st assigned=          18           0
 nber times 1st assigned=          19           0
 nber times 1st assigned=          20           0
 nber times 1st assigned=          21           0
 nber times 1st assigned=          22           0
 nber times 1st assigned=          23           0
 nber times 1st assigned=          24           0
 nber times 1st assigned=          25           0
 nber times 1st assigned=          26           0
 nber times 1st assigned=          27           0
 nber times 1st assigned=          28           0
 nber times 1st assigned=          29           0
 nber times 1st assigned=          30           0
 nber times 1st assigned=          31           0
 nber times 1st assigned=          32           0
 nber times 1st assigned=          33           0
 nber times 1st assigned=          34           0
 nber times 1st assigned=          35           0
 nber times 1st assigned=          36           0
 nber times 1st assigned=          37           0
 nber times 1st assigned=          38           0
 nber times 1st assigned=          39           0
 nber times 1st assigned=          40           0
 nber times 1st assigned=          41           0
 nber times 1st assigned=          42           0
 nber times 1st assigned=          43           0
 nber times 1st assigned=          44           0
 nber times 1st assigned=          45           0
 nber times 1st assigned=          46           0
 nber times 1st assigned=          47           0
 nber times 1st assigned=          48           0
 nber times 1st assigned=          49           0
 nber times 1st assigned=          50           0
 nber times 1st assigned=          51           0
 nber times 1st assigned=          52           0
 nber times 1st assigned=          53           0
 nber times 1st assigned=          54           0
 nber times 1st assigned=          55           0
 nber times 1st assigned=          56           0
 nber times 1st assigned=          57           0
 nber times 1st assigned=          58           0
 nber times 1st assigned=          59           0
 nber times 1st assigned=          60           0
 nber times 1st assigned=          61           0
 nber times 1st assigned=          62           0
 nber times 1st assigned=          63           0
 nber times 1st assigned=          64           0
 nber times 1st assigned=          65           0
 nber times 1st assigned=          66           0
 Dushinsky matrix written to .out file
 modes represented=   65.7739724646349     

 Dushinsky matrix, ncs 1 in terms of ncs 2

   mode   freq    coeff     %      %tot     of    at

   7        43.  0.6357    40.4   247.0   7        43.
                -0.7605    57.8           8        65.
                 0.4776    22.8          48      1315.
                -0.3753    14.1          57      1615.
   8        48. -0.7627    58.2   133.8   7        43.
                -0.6368    40.6           8        65.
   9       107. -0.9650    93.1   442.1   9        93.
                -0.5085    25.9          10       178.
                -0.4381    19.2          13       272.
                -0.3565    12.7          14       326.
                 0.3965    15.7          19       498.
                 0.7571    57.3          20       574.
                 0.6060    36.7          29       774.
                 0.3608    13.0          31       837.
                 0.3385    11.5          35       927.
  10       113. -0.7334    53.8   118.0  10       178.
                -0.4563    20.8          11       204.
  11       174. -0.7243    52.5   101.9  11       204.
                 0.3813    14.5          13       272.
                 0.3182    10.1          14       326.
  12       212. -0.3378    11.4   101.3  10       178.
                 0.4992    24.9          11       204.
                 0.4494    20.2          13       272.
                 0.4257    18.1          14       326.
  13       260.  0.9048    81.9   103.9  12       259.
                -0.3711    13.8          13       272.
  14       305.  0.4745    22.5   112.6  13       272.
                -0.6743    45.5          14       326.
  15       367.  0.4240    18.0   109.4  15       408.
                -0.7051    49.7          18       466.
                 0.3644    13.3          19       498.
  16       404. -0.9881    97.6    98.9  16       415.
  17       408.  0.7555    57.1   103.4  15       408.
                 0.3397    11.5          17       460.
                 0.3459    12.0          18       466.
  18       432. -0.9158    83.9   100.0  17       460.
  19       435. -0.4412    19.5    99.9  18       466.
                -0.7215    52.0          19       498.
  20       507. -0.5858    34.3    95.9  20       574.
  21       557. -0.9360    87.6   101.0  21       585.
  22       588.  0.9128    83.3   100.6  22       623.
  23       610. -0.7716    59.5   100.3  23       632.
                -0.5260    27.7          24       639.
  24       617.  0.4976    24.8   100.6  23       632.
                -0.8271    68.4          24       639.
  25       631. -0.3361    11.3   100.6  22       623.
                 0.8316    69.2          26       701.
  26       645. -0.8526    72.7    98.9  25       696.
  27       645.  0.8719    76.0   100.1  27       710.
  28       689. -0.8104    65.7    99.6  31       837.
  29       733. -0.9613    92.4   100.5  28       763.
  30       738.  0.6936    48.1   100.6  29       774.
  31       767. -0.9675    93.6   100.4  32       852.
  32       783.  0.9170    84.1   100.5  30       821.
  33       836. -0.9045    81.8   100.2  35       927.
  34       856. -0.9736    94.8   101.1  33       876.
  35       870.  0.9561    91.4   101.1  34       900.
  36       943. -0.7041    49.6   100.8  36       979.
                 0.5981    35.8          37       980.
  37       954.  0.6235    38.9   100.3  36       979.
                 0.7204    51.9          37       980.
  38       970.  0.9863    97.3   100.4  38      1002.
  39       992.  0.9320    86.9   100.6  39      1015.
  40      1025.  0.9772    95.5   100.2  40      1053.
  41      1068.  0.6721    45.2   100.0  41      1104.
                 0.3865    14.9          43      1178.
                 0.3637    13.2          47      1244.
  42      1089. -0.9261    85.8   100.4  42      1110.
  43      1129.  0.6457    41.7    99.8  41      1104.
                -0.5763    33.2          43      1178.
  44      1165. -0.5245    27.5   100.9  43      1178.
                -0.4616    21.3          44      1183.
                 0.4479    20.1          46      1210.
                 0.3757    14.1          47      1244.
  45      1179.  0.8359    69.9    99.6  44      1183.
  46      1210. -0.9505    90.3    99.9  45      1207.
  47      1230. -0.8047    64.8    99.8  46      1210.
                 0.3913    15.3          47      1244.
  48      1306. -0.7006    49.1    98.6  48      1315.
  49      1333. -0.6756    45.6    99.4  50      1363.
                 0.3542    12.5          52      1457.
  50      1371. -0.9046    81.8   100.0  49      1356.
  51      1402.  0.5479    30.0    99.8  54      1505.
                 0.5575    31.1          55      1523.
  52      1418.  0.3407    11.6   100.3  47      1244.
                -0.3936    15.5          50      1363.
                -0.4278    18.3          52      1457.
                 0.5629    31.7          54      1505.
  53      1432.  0.8075    65.2   100.5  51      1378.
  54      1459. -0.5286    27.9    99.8  53      1476.
                -0.4020    16.2          55      1523.
                -0.3908    15.3          57      1615.
  55      1496.  0.3984    15.9   100.7  52      1457.
                 0.4554    20.7          53      1476.
                -0.5646    31.9          55      1523.
  56      1532. -0.4264    18.2   100.4  53      1476.
                 0.3457    11.9          56      1558.
                 0.6325    40.0          57      1615.
  57      1539. -0.5093    25.9   100.7  52      1457.
                 0.6217    38.7          56      1558.
                -0.4066    16.5          57      1615.
  58      1635.  0.9677    93.7   100.3  58      1642.
  59      3159. -0.9070    82.3   100.0  59      3162.
                -0.3752    14.1          60      3168.
  60      3163.  0.3832    14.7   100.0  59      3162.
                -0.9091    82.6          60      3168.
  61      3175. -0.8759    76.7   100.0  61      3178.
                -0.4316    18.6          62      3184.
  62      3186. -0.4389    19.3   100.0  61      3178.
                 0.8522    72.6          62      3184.
  63      3193.  0.9472    89.7   100.0  63      3192.
  64      3209. -0.9987    99.7   100.0  64      3212.
  65      3233.  0.9985    99.7   100.0  65      3214.
  66      3242. -0.9988    99.8   100.0  66      3245.
 nber times 1st assigned=           1           0
 nber times 1st assigned=           2           0
 nber times 1st assigned=           3           0
 nber times 1st assigned=           4           0
 nber times 1st assigned=           5           0
 nber times 1st assigned=           6           0
 nber times 1st assigned=           7           0
 nber times 1st assigned=           8           0
 nber times 1st assigned=           9           0
 nber times 1st assigned=          10           0
 nber times 1st assigned=          11           0
 nber times 1st assigned=          12           0
 nber times 1st assigned=          13           0
 nber times 1st assigned=          14           0
 nber times 1st assigned=          15           0
 nber times 1st assigned=          16           0
 nber times 1st assigned=          17           0
 nber times 1st assigned=          18           0
 nber times 1st assigned=          19           0
 nber times 1st assigned=          20           0
 nber times 1st assigned=          21           0
 nber times 1st assigned=          22           0
 nber times 1st assigned=          23           0
 nber times 1st assigned=          24           0
 nber times 1st assigned=          25           0
 nber times 1st assigned=          26           0
 nber times 1st assigned=          27           0
 nber times 1st assigned=          28           0
 nber times 1st assigned=          29           0
 nber times 1st assigned=          30           0
 nber times 1st assigned=          31           0
 nber times 1st assigned=          32           0
 nber times 1st assigned=          33           0
 nber times 1st assigned=          34           0
 nber times 1st assigned=          35           0
 nber times 1st assigned=          36           0
 nber times 1st assigned=          37           0
 nber times 1st assigned=          38           0
 nber times 1st assigned=          39           0
 nber times 1st assigned=          40           0
 nber times 1st assigned=          41           0
 nber times 1st assigned=          42           0
 nber times 1st assigned=          43           0
 nber times 1st assigned=          44           0
 nber times 1st assigned=          45           0
 nber times 1st assigned=          46           0
 nber times 1st assigned=          47           0
 nber times 1st assigned=          48           0
 nber times 1st assigned=          49           0
 nber times 1st assigned=          50           0
 nber times 1st assigned=          51           0
 nber times 1st assigned=          52           0
 nber times 1st assigned=          53           0
 nber times 1st assigned=          54           0
 nber times 1st assigned=          55           0
 nber times 1st assigned=          56           0
 nber times 1st assigned=          57           0
 nber times 1st assigned=          58           0
 nber times 1st assigned=          59           0
 nber times 1st assigned=          60           0
 nber times 1st assigned=          61           0
 nber times 1st assigned=          62           0
 nber times 1st assigned=          63           0
 nber times 1st assigned=          64           0
 nber times 1st assigned=          65           0
 nber times 1st assigned=          66           0
 modes represented=   65.7739724646349     
 p1=
    0.   -0.    0.    0.   -0.    0.  102. -150.   -3.  -15.    2.   -9.    5.   -2.   -1.    3.    3.   10.   -2.    1.
    5.    3.   -3.    0.    1.    6.    0.   -4.    0.    0.    3.   -1.    0.   -0.   -1.   -2.    1.   -0.   -2.   -0.
   -3.    0.    1.   -1.   -1.   -2.    1.   -0.    3.    1.   -0.    2.   -0.    1.    2.   -3.   -5.   -5.   -0.    0.
    0.   -0.   -0.   -0.   -0.    0.
 p2=
   -0.    0.    0.   -0.    0.   -0. -178.  -19.   -3.   -1.    5.   -8.    3.   -3.   -4.    3.   10.   -3.    2.   -1.
    3.    1.   -2.   -1.    6.    2.   -1.   -1.   -1.   -1.    1.   -1.   -0.    1.   -0.   -1.    2.    0.    3.   -0.
    1.   -1.    1.    0.   -2.    2.    0.    1.    1.    3.   -1.   -4.   -2.   -2.    0.    5.    0.    3.   -0.   -0.
   -0.    0.    0.   -0.    0.    0.

 Displacement: in terms of nc of 1 THEN of nc of 2

   1     freq=    -0. Q=  0.000 lam=    -0.0     freq=    -0. Q=  0.000 lam=    -0.0
   2     freq=    -0. Q= -0.000 lam=    -0.0     freq=    -0. Q= -0.000 lam=    -0.0
   3     freq=    -0. Q=  0.000 lam=    -0.0     freq=    -0. Q=  0.000 lam=    -0.0
   4     freq=    -0. Q=  0.000 lam=    -0.0     freq=     0. Q=  0.000 lam=     0.0
   5     freq=     0. Q= -0.000 lam=     0.0     freq=     0. Q= -0.000 lam=     0.0
   6     freq=     0. Q=  0.000 lam=     0.0     freq=     0. Q=  0.000 lam=     0.0
   7     freq=    43. Q=  2.693 lam=   155.8     freq=    43. Q=  4.684 lam=   467.1
   8     freq=    48. Q= -4.176 lam=   416.8     freq=    65. Q= -0.614 lam=    12.2
   9     freq=   107. Q= -0.118 lam=     0.7     freq=    93. Q= -0.100 lam=     0.5
  10     freq=   113. Q= -0.657 lam=    24.3     freq=   178. Q= -0.034 lam=     0.1
  11     freq=   174. Q=  0.088 lam=     0.7     freq=   204. Q=  0.287 lam=     8.4
  12     freq=   212. Q= -0.503 lam=    26.8     freq=   259. Q= -0.535 lam=    37.0
  13     freq=   260. Q=  0.338 lam=    14.8     freq=   272. Q=  0.222 lam=     6.7
  14     freq=   305. Q= -0.154 lam=     3.6     freq=   326. Q= -0.252 lam=    10.3
  15     freq=   367. Q= -0.072 lam=     0.9     freq=   408. Q= -0.318 lam=    20.6
  16     freq=   404. Q=  0.253 lam=    12.9     freq=   415. Q=  0.224 lam=    10.4
  17     freq=   408. Q=  0.222 lam=    10.0     freq=   460. Q=  0.834 lam=   159.9
  18     freq=   432. Q=  0.865 lam=   161.8     freq=   466. Q=  0.287 lam=    19.2
  19     freq=   435. Q= -0.180 lam=     7.1     freq=   498. Q= -0.205 lam=    10.4
  20     freq=   507. Q=  0.120 lam=     3.7     freq=   574. Q=  0.144 lam=     6.0
  21     freq=   557. Q=  0.458 lam=    58.5     freq=   585. Q=  0.291 lam=    24.8
  22     freq=   588. Q=  0.249 lam=    18.3     freq=   623. Q=  0.079 lam=     2.0
  23     freq=   610. Q= -0.271 lam=    22.4     freq=   632. Q= -0.218 lam=    15.0
  24     freq=   617. Q=  0.014 lam=     0.1     freq=   639. Q=  0.141 lam=     6.3
  25     freq=   631. Q=  0.150 lam=     7.1     freq=   696. Q=  0.635 lam=   140.5
  26     freq=   645. Q=  0.574 lam=   106.1     freq=   701. Q=  0.217 lam=    16.6
  27     freq=   645. Q=  0.036 lam=     0.4     freq=   710. Q=  0.124 lam=     5.5
  28     freq=   689. Q= -0.383 lam=    50.5     freq=   763. Q= -0.131 lam=     6.6
  29     freq=   733. Q=  0.042 lam=     0.6     freq=   774. Q=  0.142 lam=     7.8
  30     freq=   738. Q=  0.039 lam=     0.6     freq=   821. Q=  0.060 lam=     1.5
  31     freq=   767. Q=  0.318 lam=    38.8     freq=   837. Q=  0.105 lam=     4.6
  32     freq=   783. Q= -0.125 lam=     6.2     freq=   852. Q= -0.134 lam=     7.7
  33     freq=   836. Q=  0.023 lam=     0.2     freq=   876. Q=  0.006 lam=     0.0
  34     freq=   856. Q= -0.010 lam=     0.0     freq=   900. Q= -0.107 lam=     5.1
  35     freq=   870. Q= -0.173 lam=    13.0     freq=   927. Q= -0.024 lam=     0.3
  36     freq=   943. Q= -0.283 lam=    37.7     freq=   979. Q= -0.138 lam=     9.4
  37     freq=   954. Q=  0.096 lam=     4.4     freq=   980. Q=  0.193 lam=    18.2
  38     freq=   970. Q= -0.011 lam=     0.1     freq=  1002. Q= -0.015 lam=     0.1
  39     freq=   992. Q= -0.239 lam=    28.3     freq=  1015. Q= -0.377 lam=    72.0
  40     freq=  1025. Q= -0.001 lam=     0.0     freq=  1053. Q= -0.008 lam=     0.0
  41     freq=  1068. Q= -0.404 lam=    87.2     freq=  1104. Q= -0.118 lam=     7.7
  42     freq=  1089. Q=  0.002 lam=     0.0     freq=  1110. Q=  0.143 lam=    11.3
  43     freq=  1129. Q=  0.140 lam=    11.0     freq=  1178. Q=  0.147 lam=    12.7
  44     freq=  1165. Q= -0.179 lam=    18.6     freq=  1183. Q= -0.003 lam=     0.0
  45     freq=  1179. Q= -0.141 lam=    11.7     freq=  1207. Q= -0.224 lam=    30.3
  46     freq=  1210. Q= -0.321 lam=    62.4     freq=  1210. Q= -0.214 lam=    27.8
  47     freq=  1230. Q=  0.130 lam=    10.5     freq=  1244. Q=  0.049 lam=     1.5
  48     freq=  1306. Q= -0.016 lam=     0.2     freq=  1315. Q= -0.085 lam=     4.8
  49     freq=  1333. Q=  0.371 lam=    91.7     freq=  1356. Q=  0.217 lam=    31.9
  50     freq=  1371. Q=  0.132 lam=    11.9     freq=  1363. Q=  0.390 lam=   103.8
  51     freq=  1402. Q= -0.070 lam=     3.4     freq=  1378. Q= -0.165 lam=    18.7
  52     freq=  1418. Q=  0.324 lam=    74.3     freq=  1457. Q=  0.641 lam=   299.2
  53     freq=  1432. Q= -0.047 lam=     1.6     freq=  1476. Q= -0.291 lam=    62.7
  54     freq=  1459. Q=  0.226 lam=    37.1     freq=  1505. Q=  0.241 lam=    43.9
  55     freq=  1496. Q=  0.244 lam=    44.7     freq=  1523. Q=  0.051 lam=     2.0
  56     freq=  1532. Q= -0.540 lam=   223.2     freq=  1558. Q= -0.864 lam=   581.2
  57     freq=  1539. Q= -0.780 lam=   468.2     freq=  1615. Q= -0.066 lam=     3.5
  58     freq=  1635. Q= -0.737 lam=   444.6     freq=  1642. Q= -0.444 lam=   162.0
  59     freq=  3159. Q= -0.006 lam=     0.1     freq=  3162. Q= -0.007 lam=     0.1
  60     freq=  3163. Q=  0.006 lam=     0.1     freq=  3168. Q=  0.000 lam=     0.0
  61     freq=  3175. Q=  0.000 lam=     0.0     freq=  3178. Q=  0.004 lam=     0.0
  62     freq=  3186. Q= -0.001 lam=     0.0     freq=  3184. Q= -0.000 lam=     0.0
  63     freq=  3193. Q= -0.015 lam=     0.3     freq=  3192. Q= -0.009 lam=     0.1
  64     freq=  3209. Q= -0.004 lam=     0.0     freq=  3212. Q= -0.003 lam=     0.0
  65     freq=  3233. Q= -0.027 lam=     1.2     freq=  3214. Q= -0.030 lam=     1.4
  66     freq=  3242. Q=  0.010 lam=     0.2     freq=  3245. Q=  0.008 lam=     0.1

 total reorg energy (cm**-1, kcal/mol)=     2837.     2519.      8.11      7.20
 Nber of molecules processed=           2
