 Enter ifcurve (0=recti, 1=orth curvi, 2=apprx curvi, -1 = skip
 And atom ordering flag, 0= never changes, 1= use the first order thenceforth,
  2= deduce it (does read on fail), 3= always read it
 Reading file: 
 ./Phenyls_0_C0S0.log                                                           
                                          
  Entering Gaussian System, Link 0=g16                                          
  
 Gaussian format, type: g94, g98, g03= F F F
  #P Geom=AllCheck Guess=TCheck SCRF=Check GenChk RB3LYP/6-311G(d,p) Fre    
 energy type= B3LYP   
 Original G94 input coords:
  6 -1.483552 -1.196984  0.000000
  6 -2.874166 -1.198774  0.000000
  6 -3.581826  0.000000  0.000000
  6 -2.874166  1.198774  0.000000
  6 -1.483552  1.196984  0.000000
  6 -0.746979  0.000000  0.000000
  6  0.746979  0.000000  0.000000
  6  1.483552 -1.196984  0.000000
  6  2.874166 -1.198774  0.000000
  6  3.581826  0.000000  0.000000
  6  2.874166  1.198774  0.000000
  6  1.483552  1.196984  0.000000
  1 -0.975039 -2.151634  0.000000
  1 -3.405267 -2.144203  0.000000
  1 -4.665481  0.000000  0.000000
  1 -3.405267  2.144203  0.000000
  1 -0.975039  2.151634  0.000000
  1  0.975039 -2.151634  0.000000
  1  3.405267 -2.144203  0.000000
  1  4.665481  0.000000  0.000000
  1  3.405267  2.144203  0.000000
  1  0.975039  2.151634  0.000000
 nber atoms=          22
 Original standard coords:
  6  0.000000  1.196984  1.483552
  6  0.000000  1.198774  2.874166
  6  0.000000  0.000000  3.581826
  6  0.000000 -1.198774  2.874166
  6  0.000000 -1.196984  1.483552
  6  0.000000  0.000000  0.746979
  6  0.000000  0.000000 -0.746979
  6  0.000000  1.196984 -1.483552
  6  0.000000  1.198774 -2.874166
  6  0.000000  0.000000 -3.581826
  6  0.000000 -1.198774 -2.874166
  6  0.000000 -1.196984 -1.483552
  1  0.000000  2.151634  0.975039
  1  0.000000  2.144203  3.405267
  1  0.000000  0.000000  4.665481
  1  0.000000 -2.144203  3.405267
  1  0.000000 -2.151634  0.975039
  1  0.000000  2.151634 -0.975039
  1  0.000000  2.144203 -3.405267
  1  0.000000  0.000000 -4.665481
  1  0.000000 -2.144203 -3.405267
  1  0.000000 -2.151634 -0.975039
  SCF Done:  E(RB3LYP) =  -463.414537481     A.U. after    1 cycles             
  
          23          40 "  -463.414537481"
After scan for Atom:   Atom  AN      X      Y      Z        X      Y      Z        X      Y      Z   
After scan for Atom:   Atom  AN      X      Y      Z        X      Y      Z        X      Y      Z   
After scan for Atom:   Atom  AN      X      Y      Z        X      Y      Z        X      Y      Z   
After scan for Atom:   Atom  AN      X      Y      Z        X      Y      Z        X      Y      Z   
After scan for Atom:   Atom  AN      X      Y      Z        X      Y      Z        X      Y      Z   
After scan for Atom:   Atom  AN      X      Y      Z        X      Y      Z        X      Y      Z   
After scan for Atom:   Atom  AN      X      Y      Z        X      Y      Z        X      Y      Z   
After scan for Atom:   Atom  AN      X      Y      Z        X      Y      Z        X      Y      Z   
After scan for Atom:   Atom  AN      X      Y      Z        X      Y      Z        X      Y      Z   
After scan for Atom:   Atom  AN      X      Y      Z        X      Y      Z        X      Y      Z   
After scan for Atom:   Atom  AN      X      Y      Z        X      Y      Z        X      Y      Z   
After scan for Atom:   Atom  AN      X      Y      Z        X      Y      Z        X      Y      Z   
After scan for Atom:   Atom  AN      X      Y      Z        X      Y      Z        X      Y      Z   
After scan for Atom:   Atom  AN      X      Y      Z        X      Y      Z        X      Y      Z   
After scan for Atom:   Atom  AN      X      Y      Z        X      Y      Z        X      Y      Z   
After scan for Atom:   Atom  AN      X      Y      Z        X      Y      Z        X      Y      Z   
After scan for Atom:   Atom  AN      X      Y      Z        X      Y      Z        X      Y      Z   
After scan for Atom:   Atom  AN      X      Y      Z        X      Y      Z        X      Y      Z   
After scan for Atom:   Atom  AN      X      Y      Z        X      Y      Z        X      Y      Z   
After scan for Atom:   Atom  AN      X      Y      Z        X      Y      Z        X      Y      Z   
 g94    frequencies=
     0.0    0.0    0.0    0.0    0.0    0.0  -84.4   95.4  189.9  224.4
   335.6  392.6  413.3  415.2  447.8  555.2  624.3  626.9  644.9  679.5
   714.1  747.5  753.5  802.1  820.8  851.0  919.4  919.7  962.5  976.7
   995.0  999.2 1009.8 1019.0 1024.1 1063.8 1064.4 1106.0 1118.9 1181.5
  1190.3 1204.9 1238.5 1283.4 1300.1 1323.8 1356.3 1379.2 1460.1 1494.3
  1517.8 1550.8 1614.5 1628.4 1640.6 1649.4 3161.5 3162.5 3168.7 3170.6
  3184.6 3188.1 3192.6 3196.4 3209.1 3211.1
 g94    symmetries=
                                                AU     B3     B2     B2
      AG     AU     B3     B1     B3     B2     B1     B3     B2     B2
      B3     B3     AG     B2     AU     B1     B3     B2     AU     B1
      B2     B3     B1     AG     B1     B1     AG     B3     B2     B3
      B2     B1     AG     AG     B2     B3     B3     B2     B2     B3
      B1     AG     B2     B3     AG     B1     B1     AG     B3     B2
      B1     AG     B3     B1     B2     AG
 atomic masses:
 12.0000 12.0000 12.0000 12.0000 12.0000 12.0000 12.0000 12.0000 12.0000 12.0000
 12.0000 12.0000  1.0078  1.0078  1.0078  1.0078  1.0078  1.0078  1.0078  1.0078
  1.0078  1.0078
 looking for force constants in 
 ./Phenyls_0_C0S0.fchk                                                          
  
 Cartesian Force Constants                  R   N=        2211                  
  
 n3=          66        2211
 g94-fc frequencies=
   -84.4   -5.0   -4.3   -4.2   -0.0   -0.0    0.0   95.4  189.9  224.5
   335.6  392.6  413.3  415.2  447.8  555.2  624.3  626.9  644.9  679.5
   714.1  747.5  753.5  802.1  820.8  851.0  919.5  919.7  962.5  976.8
   995.1  999.2 1009.8 1019.0 1024.2 1063.8 1064.5 1106.1 1119.0 1181.5
  1190.3 1204.9 1238.5 1283.4 1300.1 1323.8 1356.4 1379.3 1460.2 1494.3
  1517.8 1550.9 1614.5 1628.4 1640.6 1649.4 3161.5 3162.6 3168.8 3170.7
  3184.7 3188.1 3192.6 3196.4 3209.2 3211.1
 at 99999: n3=          66
 symm operator            1 :  T  nop=           1
 symm operator            2 :  T  nop=           2
 symm operator            3 :  T  nop=           3
 symm operator            4 :  T  nop=           4
 symm operator            5 :  T  nop=           5
 symm operator            6 :  T  nop=           6
 symm operator            7 :  T  nop=           7
 The point group of the molecule is D2H
 enforcing symm op           1  jsymt=          -1          -1           1
 enforcing symm op           2  jsymt=          -1           1          -1
 enforcing symm op           3  jsymt=           1          -1          -1
 enforcing symm op           4  jsymt=          -1          -1          -1
 enforcing symm op           5  jsymt=           1           1          -1
 enforcing symm op           6  jsymt=           1          -1           1
 enforcing symm op           7  jsymt=          -1           1           1
 cartesian coord symmetries:
 Ag :   11 Au :    4 B1g:    4 B1u:   11 B2g:    7 B2u:   11 B3g:   11 B3u:    7
 Symmetry rotation matrix:
   1.00000   0.00000   0.00000
   0.00000   1.00000   0.00000
   0.00000   0.00000   1.00000

 Projecting out zero-frequency components
 generating redundant internal coords
         300        3600          22
 search for int coords
   1 str   2   1   1.391
   2 str   3   2   1.392
   3 str   4   3   1.392
   4 str   5   4   1.391
   5 str   6   1   1.405
   6 str   6   5   1.405
   7 str   7   6   1.494
   8 str   8   7   1.405
   9 str   9   8   1.391
  10 str  10   9   1.392
  11 str  11  10   1.392
  12 str  12   7   1.405
  13 str  12  11   1.391
  14 str  13   1   1.082
  15 str  14   2   1.084
  16 str  15   3   1.084
  17 str  16   4   1.084
  18 str  17   5   1.082
  19 str  18   8   1.082
  20 str  19   9   1.084
  21 str  20  10   1.084
  22 str  21  11   1.084
  23 str  22  12   1.082
 nber stretches=          23
  24 ben   1   2   3
  25 prop tor   1   2   3   4
  26 prop tor   1   2   3  15
  27 ben   1   2  14
  28 ben   1   6   5
  29 ben   1   6   7
  30 prop tor   1   6   7   8
  31 prop tor   1   6   7  12
  32 ben   2   1   6
  33 prop tor   2   1   6   5
  34 prop tor   2   1   6   7
  35 ben   2   1  13
  36 ben   2   3   4
  37 prop tor   2   3   4   5
  38 prop tor   2   3   4  16
  39 ben   2   3  15
  40 ben   3   2  14
  41 ben   3   4   5
  42 prop tor   3   4   5   6
  43 prop tor   3   4   5  17
  44 ben   3   4  16
  45 ben   4   3  15
  46 ben   4   5   6
  47 prop tor   4   5   6   1
  48 prop tor   4   5   6   7
  49 ben   4   5  17
  50 ben   5   4  16
  51 ben   5   6   7
  52 prop tor   5   6   7   8
  53 prop tor   5   6   7  12
  54 prop tor   6   1   2   3
  55 prop tor   6   1   2  14
  56 ben   6   1  13
  57 ben   6   5  17
  58 ben   6   7   8
  59 prop tor   6   7   8   9
  60 prop tor   6   7   8  18
  61 ben   6   7  12
  62 prop tor   6   7  12  11
  63 prop tor   6   7  12  22
  64 ben   7   8   9
  65 prop tor   7   8   9  10
  66 prop tor   7   8   9  19
  67 ben   7   8  18
  68 ben   7  12  11
  69 ben   7  12  22
  70 ben   8   7  12
  71 prop tor   8   7  12  11
  72 prop tor   8   7  12  22
  73 ben   8   9  10
  74 prop tor   8   9  10  11
  75 prop tor   8   9  10  20
  76 ben   8   9  19
  77 ben   9   8  18
  78 ben   9  10  11
  79 prop tor   9  10  11  12
  80 prop tor   9  10  11  21
  81 ben   9  10  20
  82 ben  10   9  19
  83 ben  10  11  12
  84 prop tor  10  11  12   7
  85 prop tor  10  11  12  22
  86 ben  10  11  21
  87 ben  11  10  20
  88 ben  11  12  22
  89 prop tor  12   7   8   9
  90 prop tor  12   7   8  18
  91 ben  12  11  21
  92 prop tor  13   1   2   3
  93 prop tor  13   1   2  14
  94 prop tor  13   1   6   5
  95 prop tor  13   1   6   7
  96 prop tor  14   2   3   4
  97 prop tor  14   2   3  15
  98 prop tor  15   3   4   5
  99 prop tor  15   3   4  16
 100 prop tor  16   4   5   6
 101 prop tor  16   4   5  17
 102 prop tor  17   5   6   1
 103 prop tor  17   5   6   7
 104 prop tor  18   8   9  10
 105 prop tor  18   8   9  19
 106 prop tor  19   9  10  11
 107 prop tor  19   9  10  20
 108 prop tor  20  10  11  12
 109 prop tor  20  10  11  21
 110 prop tor  21  11  12   7
 111 prop tor  21  11  12  22
 nber bend=              36
 nber lin bend=           0
 nber prop tor=          52
 nber impr tor=           0
 nber tot redund int=         111
 Eigenvalues of G in red int coords
    Gval -0.00000000 -0.00000000 -0.00000000 -0.00000000 -0.00000000 -0.00000000 -0.00000000 -0.00000000
    Gval -0.00000000 -0.00000000 -0.00000000 -0.00000000 -0.00000000 -0.00000000 -0.00000000 -0.00000000
    Gval -0.00000000 -0.00000000 -0.00000000 -0.00000000 -0.00000000 -0.00000000 -0.00000000 -0.00000000
    Gval  0.00000000  0.00000000  0.00000000  0.00000000  0.00000000  0.00000000  0.00000000  0.00000000
    Gval  0.00000000  0.00000000  0.00000000  0.00000000  0.00000000  0.00000000  0.00000000  0.00000000
    Gval  0.00000000  0.00000000  0.00000000  0.00000000  0.00000000  0.00000000  0.00000000  0.00000000
    Gval  0.00000000  0.00000000  0.00000000  0.00000532  0.00000768  0.00002373  0.00003668  0.00004250
    Gval  0.00004496  0.00004919  0.00005754  0.00005758  0.00006679  0.00006709  0.00009792  0.00011445
    Gval  0.00011700  0.00011718  0.00012817  0.00019226  0.00020048  0.00025793  0.00027687  0.00027741
    Gval  0.00035457  0.00037854  0.00041377  0.00052155  0.00057640  0.00058168  0.00059307  0.00059308
    Gval  0.00059312  0.00059389  0.00060385  0.00060428  0.00062000  0.00063005  0.00066002  0.00066198
    Gval  0.00088772  0.00104026  0.00104311  0.00111018  0.00111208  0.00113844  0.00114003  0.00116956
    Gval  0.00117058  0.00117332  0.00117333  0.00141602  0.00143644  0.00163995  0.00201632  0.00234534
    Gval  0.00235968  0.00302916  0.00323554  0.00370024  0.00371371  0.00406380  0.00407187
  5.322266402832551E-006  5.322266402832551E-006
  7.683763339459627E-006  5.322266402832551E-006
  2.372792668672354E-005  5.322266402832551E-006
  3.668414215374891E-005  5.322266402832551E-006
  4.250296716327768E-005  5.322266402832551E-006
  4.495726142759069E-005  5.322266402832551E-006
  4.919015804123424E-005  5.322266402832551E-006
  5.754090860579417E-005  5.322266402832551E-006
  5.757954554855313E-005  5.322266402832551E-006
  6.679456130855756E-005  5.322266402832551E-006
  6.709387625738571E-005  5.322266402832551E-006
  9.792191414165662E-005  5.322266402832551E-006
  1.144528277576116E-004  5.322266402832551E-006
  1.170004488183275E-004  5.322266402832551E-006
  1.171798537675073E-004  5.322266402832551E-006
  1.281684700471759E-004  5.322266402832551E-006
  1.922621541397580E-004  5.322266402832551E-006
  2.004780243318978E-004  5.322266402832551E-006
  2.579265111821138E-004  5.322266402832551E-006
  2.768668602616753E-004  5.322266402832551E-006
  2.774065254664240E-004  5.322266402832551E-006
  3.545684583522049E-004  5.322266402832551E-006
  3.785429070860316E-004  5.322266402832551E-006
  4.137730492448435E-004  5.322266402832551E-006
  5.215464423358882E-004  5.322266402832551E-006
  5.764001300541822E-004  5.322266402832551E-006
  5.816769274114355E-004  5.322266402832551E-006
  5.930724156458141E-004  5.322266402832551E-006
  5.930814178418265E-004  5.322266402832551E-006
  5.931189396939563E-004  5.322266402832551E-006
  5.938927867461781E-004  5.322266402832551E-006
  6.038532324682895E-004  5.322266402832551E-006
  6.042758443079490E-004  5.322266402832551E-006
  6.200016962736423E-004  5.322266402832551E-006
  6.300472015298337E-004  5.322266402832551E-006
  6.600217256213872E-004  5.322266402832551E-006
  6.619803119674984E-004  5.322266402832551E-006
  8.877239485617670E-004  5.322266402832551E-006
  1.040263813498708E-003  5.322266402832551E-006
  1.043107066275153E-003  5.322266402832551E-006
  1.110183663393455E-003  5.322266402832551E-006
  1.112084351935949E-003  5.322266402832551E-006
  1.138440487831875E-003  5.322266402832551E-006
  1.140031274481161E-003  5.322266402832551E-006
  1.169557093576042E-003  5.322266402832551E-006
  1.170579403646204E-003  5.322266402832551E-006
  1.173322142589803E-003  5.322266402832551E-006
  1.173328090879020E-003  5.322266402832551E-006
  1.416024291513456E-003  5.322266402832551E-006
  1.436439261051637E-003  5.322266402832551E-006
  1.639947704030103E-003  5.322266402832551E-006
  2.016321816519426E-003  5.322266402832551E-006
  2.345337334246751E-003  5.322266402832551E-006
  2.359684800580871E-003  5.322266402832551E-006
  3.029157874099304E-003  5.322266402832551E-006
  3.235544325883333E-003  5.322266402832551E-006
  3.700241317112754E-003  5.322266402832551E-006
  3.713712768582969E-003  5.322266402832551E-006
  4.063804481981751E-003  5.322266402832551E-006
  4.071874717061007E-003  5.322266402832551E-006
 cut=1d-8, nber non-redundant internal coords=          60
 Check on Eigenvals of non-red overlap matrix:
  0.00000532  0.00000768  0.00002373  0.00003668  0.00004250  0.00004496  0.00004919  0.00005754
  0.00005758  0.00006679  0.00006709  0.00009792  0.00011445  0.00011700  0.00011718  0.00012817
  0.00019226  0.00020048  0.00025793  0.00027687  0.00027741  0.00035457  0.00037854  0.00041377
  0.00052155  0.00057640  0.00058168  0.00059307  0.00059308  0.00059312  0.00059389  0.00060385
  0.00060428  0.00062000  0.00063005  0.00066002  0.00066198  0.00088772  0.00104026  0.00104311
  0.00111018  0.00111208  0.00113844  0.00114003  0.00116956  0.00117058  0.00117332  0.00117333
  0.00141602  0.00143644  0.00163995  0.00201632  0.00234534  0.00235968  0.00302916  0.00323554
  0.00370024  0.00371371  0.00406380  0.00407187
 Checking for correct frequencies
 recalc frequencies=
   -84.4   -0.0   -0.0   -0.0   -0.0    0.0    0.0   95.4  189.9  224.5
   335.6  392.6  413.3  415.2  447.8  555.2  624.3  626.9  644.9  679.5
   714.1  747.5  753.5  802.1  820.8  851.0  919.5  919.7  962.5  976.8
   995.1  999.2 1009.8 1019.0 1024.2 1063.8 1064.5 1106.1 1119.0 1181.5
  1190.3 1204.9 1238.5 1283.4 1300.1 1323.8 1356.4 1379.3 1460.2 1494.3
  1517.8 1550.9 1614.5 1628.4 1640.6 1649.4 3161.5 3162.6 3168.8 3170.7
  3184.7 3188.1 3192.6 3196.4 3209.2 3211.1
 recalc symmetries=
     Au     B2u    B2g    B3u    B1g    B3g    B1u    B3u    B2u    B2g
     Ag     Au     B3g    B1g    B3u    B2g    B1u    B3g    B2u    B2g
     B3u    B3u    Ag     B2g    Au     B1g    B3u    B2g    Au     B1g
     B2g    B3u    B1u    Ag     B1u    B1u    Ag     B3g    B2u    B3g
     B2u    B1u    Ag     Ag     B2u    B3g    B3g    B2u    B2u    B3g
     B1u    Ag     B2u    B3g    Ag     B1u    B1u    Ag     B3g    B2u
     B1u    Ag     B3g    B1u    B2u    Ag 
 recalc freqs check OK
 Zero-point lengths:
 26.9842 10.0000 10.0000 10.0000 10.0000 10.0000 10.0000 25.3829 17.9917 16.5476
 13.5333 12.5120 12.1941 12.1668 11.7154 10.5216  9.9222  9.9016  9.7623  9.5102
  9.2769  9.0674  9.0313  8.7534  8.6530  8.4983  8.1758  8.1747  7.9908  7.9324
  7.8591  7.8428  7.8014  7.7662  7.7466  7.6010  7.5986  7.4543  7.4112  7.2123
  7.1857  7.1419  7.0443  6.9200  6.8756  6.8136  6.7315  6.6753  6.4878  6.4131
  6.3634  6.2952  6.1699  6.1435  6.1205  6.1042  4.4091  4.4084  4.4040  4.4027
  4.3930  4.3906  4.3875  4.3849  4.3762  4.3749
 highest evec of mol 1
  0.0000  0.1203 -0.0645
  0.0000  0.0350  0.0227
  0.0000  0.0000  0.0241
  0.0000 -0.0350  0.0227
  0.0000 -0.1203 -0.0645
  0.0000  0.0000 -0.0052
  0.0000  0.0000  0.0052
  0.0000  0.1203  0.0645
  0.0000  0.0350 -0.0227
  0.0000  0.0000 -0.0241
  0.0000 -0.0350 -0.0227
  0.0000 -0.1203  0.0645
  0.0000 -0.4017  0.2220
  0.0000 -0.1099 -0.0629
  0.0000  0.0000 -0.0727
  0.0000  0.1099 -0.0629
  0.0000  0.4017  0.2220
  0.0000 -0.4017 -0.2220
  0.0000 -0.1099  0.0629
  0.0000  0.0000  0.0727
  0.0000  0.1099  0.0629
  0.0000  0.4017 -0.2220
 generating redundant internal coords
         300        3600          22
 Adding extra bonds for z output only
           6           6           6           6           6           6
           6           6           6           6           6           6
           1           1           1           1           1           1
           1           1           1           1
 search for int coords
   1 str   2   1   1.391
   2 str   3   2   1.392
   3 str   4   3   1.392
   4 str   5   4   1.391
   5 str   6   1   1.405
   6 str   6   5   1.405
   7 str   7   6   1.494
   8 str   8   7   1.405
   9 str   9   8   1.391
  10 str  10   9   1.392
  11 str  11  10   1.392
  12 str  12   7   1.405
  13 str  12  11   1.391
  14 str  13   1   1.082
  15 str  14   2   1.084
  16 str  15   3   1.084
  17 str  16   4   1.084
  18 str  17   5   1.082
  19 str  18   8   1.082
  20 str  19   9   1.084
  21 str  20  10   1.084
  22 str  21  11   1.084
  23 str  22  12   1.082
 nber stretches=          23
  24 ben   1   2   3
  25 prop tor   1   2   3   4
  26 prop tor   1   2   3  15
  27 ben   1   2  14
  28 ben   1   6   5
  29 ben   1   6   7
  30 prop tor   1   6   7   8
  31 prop tor   1   6   7  12
  32 ben   2   1   6
  33 prop tor   2   1   6   5
  34 prop tor   2   1   6   7
  35 ben   2   1  13
  36 ben   2   3   4
  37 prop tor   2   3   4   5
  38 prop tor   2   3   4  16
  39 ben   2   3  15
  40 ben   3   2  14
  41 ben   3   4   5
  42 prop tor   3   4   5   6
  43 prop tor   3   4   5  17
  44 ben   3   4  16
  45 ben   4   3  15
  46 ben   4   5   6
  47 prop tor   4   5   6   1
  48 prop tor   4   5   6   7
  49 ben   4   5  17
  50 ben   5   4  16
  51 ben   5   6   7
  52 prop tor   5   6   7   8
  53 prop tor   5   6   7  12
  54 prop tor   6   1   2   3
  55 prop tor   6   1   2  14
  56 ben   6   1  13
  57 ben   6   5  17
  58 ben   6   7   8
  59 prop tor   6   7   8   9
  60 prop tor   6   7   8  18
  61 ben   6   7  12
  62 prop tor   6   7  12  11
  63 prop tor   6   7  12  22
  64 ben   7   8   9
  65 prop tor   7   8   9  10
  66 prop tor   7   8   9  19
  67 ben   7   8  18
  68 ben   7  12  11
  69 ben   7  12  22
  70 ben   8   7  12
  71 prop tor   8   7  12  11
  72 prop tor   8   7  12  22
  73 ben   8   9  10
  74 prop tor   8   9  10  11
  75 prop tor   8   9  10  20
  76 ben   8   9  19
  77 ben   9   8  18
  78 ben   9  10  11
  79 prop tor   9  10  11  12
  80 prop tor   9  10  11  21
  81 ben   9  10  20
  82 ben  10   9  19
  83 ben  10  11  12
  84 prop tor  10  11  12   7
  85 prop tor  10  11  12  22
  86 ben  10  11  21
  87 ben  11  10  20
  88 ben  11  12  22
  89 prop tor  12   7   8   9
  90 prop tor  12   7   8  18
  91 ben  12  11  21
  92 prop tor  13   1   2   3
  93 prop tor  13   1   2  14
  94 prop tor  13   1   6   5
  95 prop tor  13   1   6   7
  96 prop tor  14   2   3   4
  97 prop tor  14   2   3  15
  98 prop tor  15   3   4   5
  99 prop tor  15   3   4  16
 100 prop tor  16   4   5   6
 101 prop tor  16   4   5  17
 102 prop tor  17   5   6   1
 103 prop tor  17   5   6   7
 104 prop tor  18   8   9  10
 105 prop tor  18   8   9  19
 106 prop tor  19   9  10  11
 107 prop tor  19   9  10  20
 108 prop tor  20  10  11  12
 109 prop tor  20  10  11  21
 110 prop tor  21  11  12   7
 111 prop tor  21  11  12  22
 nber bend=              36
 nber lin bend=           0
 nber prop tor=          52
 nber impr tor=           0
 nber tot redund int=         111
 Reading file: 
 ./Phenyls_0_C1S0.log                                                           
                                          
  Entering Gaussian System, Link 0=g16                                          
  
 Gaussian format, type: g94, g98, g03= F F F
  #P Geom=AllCheck Guess=TCheck SCRF=Check GenChk UB3LYP/6-311G(d,p) Fre    
 energy type= B3LYP   
 Original G94 input coords:
  6 -1.468779 -1.222199  0.000000
  6 -2.844307 -1.217955  0.000000
  6 -3.544906  0.000000  0.000000
  6 -2.844307  1.217955  0.000000
  6 -1.468779  1.222199  0.000000
  6 -0.722240  0.000000  0.000000
  6  0.722240  0.000000  0.000000
  6  1.468779 -1.222199  0.000000
  6  2.844307 -1.217955  0.000000
  6  3.544906  0.000000  0.000000
  6  2.844307  1.217955  0.000000
  6  1.468779  1.222199  0.000000
  1 -0.959411 -2.174144  0.000000
  1 -3.388778 -2.154051  0.000000
  1 -4.628705  0.000000  0.000000
  1 -3.388778  2.154051  0.000000
  1 -0.959411  2.174144  0.000000
  1  0.959411 -2.174144  0.000000
  1  3.388778 -2.154051  0.000000
  1  4.628705  0.000000  0.000000
  1  3.388778  2.154051  0.000000
  1  0.959411  2.174144  0.000000
 nber atoms=          22
 Original standard coords:
  6  0.000000  1.222199  1.468779
  6  0.000000  1.217955  2.844307
  6  0.000000  0.000000  3.544906
  6  0.000000 -1.217955  2.844307
  6  0.000000 -1.222199  1.468779
  6  0.000000  0.000000  0.722240
  6  0.000000  0.000000 -0.722240
  6  0.000000  1.222199 -1.468779
  6  0.000000  1.217955 -2.844307
  6  0.000000  0.000000 -3.544906
  6  0.000000 -1.217955 -2.844307
  6  0.000000 -1.222199 -1.468779
  1  0.000000  2.174144  0.959411
  1  0.000000  2.154051  3.388778
  1  0.000000  0.000000  4.628705
  1  0.000000 -2.154051  3.388778
  1  0.000000 -2.174144  0.959411
  1  0.000000  2.174144 -0.959411
  1  0.000000  2.154051 -3.388778
  1  0.000000  0.000000 -4.628705
  1  0.000000 -2.154051 -3.388778
  1  0.000000 -2.174144 -0.959411
  SCF Done:  E(UB3LYP) =  -463.129832539     A.U. after    1 cycles             
  
          23          40 "  -463.129832539"
After scan for Atom:   Atom  AN      X      Y      Z        X      Y      Z        X      Y      Z   
After scan for Atom:   Atom  AN      X      Y      Z        X      Y      Z        X      Y      Z   
After scan for Atom:   Atom  AN      X      Y      Z        X      Y      Z        X      Y      Z   
After scan for Atom:   Atom  AN      X      Y      Z        X      Y      Z        X      Y      Z   
After scan for Atom:   Atom  AN      X      Y      Z        X      Y      Z        X      Y      Z   
After scan for Atom:   Atom  AN      X      Y      Z        X      Y      Z        X      Y      Z   
After scan for Atom:   Atom  AN      X      Y      Z        X      Y      Z        X      Y      Z   
After scan for Atom:   Atom  AN      X      Y      Z        X      Y      Z        X      Y      Z   
After scan for Atom:   Atom  AN      X      Y      Z        X      Y      Z        X      Y      Z   
After scan for Atom:   Atom  AN      X      Y      Z        X      Y      Z        X      Y      Z   
After scan for Atom:   Atom  AN      X      Y      Z        X      Y      Z        X      Y      Z   
After scan for Atom:   Atom  AN      X      Y      Z        X      Y      Z        X      Y      Z   
After scan for Atom:   Atom  AN      X      Y      Z        X      Y      Z        X      Y      Z   
After scan for Atom:   Atom  AN      X      Y      Z        X      Y      Z        X      Y      Z   
After scan for Atom:   Atom  AN      X      Y      Z        X      Y      Z        X      Y      Z   
After scan for Atom:   Atom  AN      X      Y      Z        X      Y      Z        X      Y      Z   
After scan for Atom:   Atom  AN      X      Y      Z        X      Y      Z        X      Y      Z   
After scan for Atom:   Atom  AN      X      Y      Z        X      Y      Z        X      Y      Z   
After scan for Atom:   Atom  AN      X      Y      Z        X      Y      Z        X      Y      Z   
After scan for Atom:   Atom  AN      X      Y      Z        X      Y      Z        X      Y      Z   
 g94    frequencies=
     0.0    0.0    0.0    0.0    0.0    0.0  -52.1   79.8  186.7  195.5
   341.6  371.7  373.8  408.1  415.5  498.9  588.1  610.2  613.1  640.8
   646.3  746.9  770.6  810.4  813.9  825.6  953.2  964.1  971.3 1000.4
  1004.9 1009.6 1014.8 1026.5 1029.1 1029.4 1039.0 1120.0 1126.7 1185.4
  1189.3 1213.3 1256.1 1295.1 1348.8 1349.0 1376.4 1388.3 1453.0 1476.9
  1486.1 1530.9 1542.6 1556.7 1613.1 1655.5 3190.3 3190.7 3199.6 3200.7
  3206.1 3207.3 3223.2 3223.8 3242.8 3243.7
 g94    symmetries=
                                                AU     B3     B2     B2
      AG     AU     B1     B3     B3     B2     B3     B2     B1     B2
      B3     AG     B3     AU     B1     B2     B2     B3     B1     AU
      AG     B1     B1     B2     B3     B1     AG     B3     B2     B2
      B3     B1     AG     B2     AG     B3     B3     B2     B2     B3
      B1     AG     B3     B2     B1     AG     B1     AG     B3     B2
      B1     AG     B3     B1     B2     AG
 atomic masses:
 12.0000 12.0000 12.0000 12.0000 12.0000 12.0000 12.0000 12.0000 12.0000 12.0000
 12.0000 12.0000  1.0078  1.0078  1.0078  1.0078  1.0078  1.0078  1.0078  1.0078
  1.0078  1.0078
 looking for force constants in 
 ./Phenyls_0_C1S0.fchk                                                          
  
 Cartesian Force Constants                  R   N=        2211                  
  
 n3=          66        2211
 g94-fc frequencies=
   -52.1   -3.4   -0.0    0.0    0.0    1.0    8.2   79.8  186.7  195.5
   341.6  371.7  373.8  408.1  415.5  498.9  588.1  610.2  613.1  640.8
   646.3  746.9  770.7  810.4  813.9  825.6  953.2  964.1  971.3 1000.5
  1004.9 1009.6 1014.8 1026.5 1029.1 1029.4 1039.0 1120.0 1126.8 1185.4
  1189.3 1213.3 1256.1 1295.2 1348.8 1349.0 1376.5 1388.3 1453.0 1477.0
  1486.1 1531.0 1542.7 1556.8 1613.1 1655.5 3190.3 3190.8 3199.6 3200.7
  3206.1 3207.4 3223.3 3223.9 3242.8 3243.8
 at 99999: n3=          66
 symm operator            1 :  T  nop=           1
 symm operator            2 :  T  nop=           2
 symm operator            3 :  T  nop=           3
 symm operator            4 :  T  nop=           4
 symm operator            5 :  T  nop=           5
 symm operator            6 :  T  nop=           6
 symm operator            7 :  T  nop=           7
 The point group of the molecule is D2H
 enforcing symm op           1  jsymt=          -1          -1           1
 enforcing symm op           2  jsymt=          -1           1          -1
 enforcing symm op           3  jsymt=           1          -1          -1
 enforcing symm op           4  jsymt=          -1          -1          -1
 enforcing symm op           5  jsymt=           1           1          -1
 enforcing symm op           6  jsymt=           1          -1           1
 enforcing symm op           7  jsymt=          -1           1           1
 cartesian coord symmetries:
 Ag :   11 Au :    4 B1g:    4 B1u:   11 B2g:    7 B2u:   11 B3g:   11 B3u:    7
 Symmetry rotation matrix:
   1.00000   0.00000   0.00000
   0.00000   1.00000   0.00000
   0.00000   0.00000   1.00000

 Projecting out zero-frequency components
 generating redundant internal coords
         300        3600          22
 search for int coords
   1 str   2   1   1.376
   2 str   3   2   1.405
   3 str   4   3   1.405
   4 str   5   4   1.376
   5 str   6   1   1.432
   6 str   6   5   1.432
   7 str   7   6   1.444
   8 str   8   7   1.432
   9 str   9   8   1.376
  10 str  10   9   1.405
  11 str  11  10   1.405
  12 str  12   7   1.432
  13 str  12  11   1.376
  14 str  13   1   1.080
  15 str  14   2   1.083
  16 str  15   3   1.084
  17 str  16   4   1.083
  18 str  17   5   1.080
  19 str  18   8   1.080
  20 str  19   9   1.083
  21 str  20  10   1.084
  22 str  21  11   1.083
  23 str  22  12   1.080
 nber stretches=          23
  24 ben   1   2   3
  25 prop tor   1   2   3   4
  26 prop tor   1   2   3  15
  27 ben   1   2  14
  28 ben   1   6   5
  29 ben   1   6   7
  30 prop tor   1   6   7   8
  31 prop tor   1   6   7  12
  32 ben   2   1   6
  33 prop tor   2   1   6   5
  34 prop tor   2   1   6   7
  35 ben   2   1  13
  36 ben   2   3   4
  37 prop tor   2   3   4   5
  38 prop tor   2   3   4  16
  39 ben   2   3  15
  40 ben   3   2  14
  41 ben   3   4   5
  42 prop tor   3   4   5   6
  43 prop tor   3   4   5  17
  44 ben   3   4  16
  45 ben   4   3  15
  46 ben   4   5   6
  47 prop tor   4   5   6   1
  48 prop tor   4   5   6   7
  49 ben   4   5  17
  50 ben   5   4  16
  51 ben   5   6   7
  52 prop tor   5   6   7   8
  53 prop tor   5   6   7  12
  54 prop tor   6   1   2   3
  55 prop tor   6   1   2  14
  56 ben   6   1  13
  57 ben   6   5  17
  58 ben   6   7   8
  59 prop tor   6   7   8   9
  60 prop tor   6   7   8  18
  61 ben   6   7  12
  62 prop tor   6   7  12  11
  63 prop tor   6   7  12  22
  64 ben   7   8   9
  65 prop tor   7   8   9  10
  66 prop tor   7   8   9  19
  67 ben   7   8  18
  68 ben   7  12  11
  69 ben   7  12  22
  70 ben   8   7  12
  71 prop tor   8   7  12  11
  72 prop tor   8   7  12  22
  73 ben   8   9  10
  74 prop tor   8   9  10  11
  75 prop tor   8   9  10  20
  76 ben   8   9  19
  77 ben   9   8  18
  78 ben   9  10  11
  79 prop tor   9  10  11  12
  80 prop tor   9  10  11  21
  81 ben   9  10  20
  82 ben  10   9  19
  83 ben  10  11  12
  84 prop tor  10  11  12   7
  85 prop tor  10  11  12  22
  86 ben  10  11  21
  87 ben  11  10  20
  88 ben  11  12  22
  89 prop tor  12   7   8   9
  90 prop tor  12   7   8  18
  91 ben  12  11  21
  92 prop tor  13   1   2   3
  93 prop tor  13   1   2  14
  94 prop tor  13   1   6   5
  95 prop tor  13   1   6   7
  96 prop tor  14   2   3   4
  97 prop tor  14   2   3  15
  98 prop tor  15   3   4   5
  99 prop tor  15   3   4  16
 100 prop tor  16   4   5   6
 101 prop tor  16   4   5  17
 102 prop tor  17   5   6   1
 103 prop tor  17   5   6   7
 104 prop tor  18   8   9  10
 105 prop tor  18   8   9  19
 106 prop tor  19   9  10  11
 107 prop tor  19   9  10  20
 108 prop tor  20  10  11  12
 109 prop tor  20  10  11  21
 110 prop tor  21  11  12   7
 111 prop tor  21  11  12  22
 nber bend=              36
 nber lin bend=           0
 nber prop tor=          52
 nber impr tor=           0
 nber tot redund int=         111
 Eigenvalues of G in red int coords
    Gval -0.00000000 -0.00000000 -0.00000000 -0.00000000 -0.00000000 -0.00000000 -0.00000000 -0.00000000
    Gval -0.00000000 -0.00000000 -0.00000000 -0.00000000 -0.00000000 -0.00000000 -0.00000000 -0.00000000
    Gval -0.00000000 -0.00000000 -0.00000000 -0.00000000 -0.00000000 -0.00000000 -0.00000000 -0.00000000
    Gval -0.00000000 -0.00000000  0.00000000  0.00000000  0.00000000  0.00000000  0.00000000  0.00000000
    Gval  0.00000000  0.00000000  0.00000000  0.00000000  0.00000000  0.00000000  0.00000000  0.00000000
    Gval  0.00000000  0.00000000  0.00000000  0.00000000  0.00000000  0.00000000  0.00000000  0.00000000
    Gval  0.00000000  0.00000000  0.00000000  0.00000530  0.00000765  0.00002378  0.00003696  0.00004249
    Gval  0.00004369  0.00004880  0.00005708  0.00005779  0.00006664  0.00006781  0.00009794  0.00011332
    Gval  0.00011690  0.00011737  0.00012806  0.00019568  0.00020310  0.00025399  0.00027465  0.00027597
    Gval  0.00035093  0.00037380  0.00042062  0.00051433  0.00056668  0.00057860  0.00059303  0.00059304
    Gval  0.00059316  0.00059399  0.00060350  0.00060390  0.00061966  0.00063013  0.00065880  0.00066061
    Gval  0.00090603  0.00104189  0.00104470  0.00111086  0.00111265  0.00114170  0.00114322  0.00117274
    Gval  0.00117276  0.00117506  0.00117601  0.00139895  0.00143057  0.00163361  0.00201308  0.00234732
    Gval  0.00236074  0.00303193  0.00323856  0.00373476  0.00374771  0.00405274  0.00406323
  5.295451496388743E-006  5.295451496388743E-006
  7.650969619156677E-006  5.295451496388743E-006
  2.378138732217213E-005  5.295451496388743E-006
  3.696032895671031E-005  5.295451496388743E-006
  4.249008081294609E-005  5.295451496388743E-006
  4.369385648199721E-005  5.295451496388743E-006
  4.879646274111281E-005  5.295451496388743E-006
  5.708245160704239E-005  5.295451496388743E-006
  5.778818446052065E-005  5.295451496388743E-006
  6.663796372792871E-005  5.295451496388743E-006
  6.780544283882466E-005  5.295451496388743E-006
  9.793625832465083E-005  5.295451496388743E-006
  1.133189170227019E-004  5.295451496388743E-006
  1.168994682202794E-004  5.295451496388743E-006
  1.173707648323412E-004  5.295451496388743E-006
  1.280570520669981E-004  5.295451496388743E-006
  1.956794152647849E-004  5.295451496388743E-006
  2.031011011292162E-004  5.295451496388743E-006
  2.539903953201561E-004  5.295451496388743E-006
  2.746528558471029E-004  5.295451496388743E-006
  2.759666980547871E-004  5.295451496388743E-006
  3.509341665627265E-004  5.295451496388743E-006
  3.738023916519932E-004  5.295451496388743E-006
  4.206244132735170E-004  5.295451496388743E-006
  5.143309517399203E-004  5.295451496388743E-006
  5.666784559280053E-004  5.295451496388743E-006
  5.786035569418462E-004  5.295451496388743E-006
  5.930326559412883E-004  5.295451496388743E-006
  5.930419749605368E-004  5.295451496388743E-006
  5.931564411780936E-004  5.295451496388743E-006
  5.939855136750038E-004  5.295451496388743E-006
  6.035029773748216E-004  5.295451496388743E-006
  6.038985572652417E-004  5.295451496388743E-006
  6.196597396251385E-004  5.295451496388743E-006
  6.301328768789167E-004  5.295451496388743E-006
  6.587977424509214E-004  5.295451496388743E-006
  6.606069597509403E-004  5.295451496388743E-006
  9.060284667117401E-004  5.295451496388743E-006
  1.041887852217447E-003  5.295451496388743E-006
  1.044701715489039E-003  5.295451496388743E-006
  1.110860607874464E-003  5.295451496388743E-006
  1.112654605712720E-003  5.295451496388743E-006
  1.141701371532521E-003  5.295451496388743E-006
  1.143216336000042E-003  5.295451496388743E-006
  1.172736886577707E-003  5.295451496388743E-006
  1.172755967197153E-003  5.295451496388743E-006
  1.175064519262131E-003  5.295451496388743E-006
  1.176010516088741E-003  5.295451496388743E-006
  1.398952661647834E-003  5.295451496388743E-006
  1.430568331225306E-003  5.295451496388743E-006
  1.633612175037009E-003  5.295451496388743E-006
  2.013076128805955E-003  5.295451496388743E-006
  2.347316704334865E-003  5.295451496388743E-006
  2.360743693945300E-003  5.295451496388743E-006
  3.031934824259923E-003  5.295451496388743E-006
  3.238556128637141E-003  5.295451496388743E-006
  3.734764751375042E-003  5.295451496388743E-006
  3.747714366982624E-003  5.295451496388743E-006
  4.052742527822810E-003  5.295451496388743E-006
  4.063230936156304E-003  5.295451496388743E-006
 cut=1d-8, nber non-redundant internal coords=          60
 Check on Eigenvals of non-red overlap matrix:
  0.00000530  0.00000765  0.00002378  0.00003696  0.00004249  0.00004369  0.00004880  0.00005708
  0.00005779  0.00006664  0.00006781  0.00009794  0.00011332  0.00011690  0.00011737  0.00012806
  0.00019568  0.00020310  0.00025399  0.00027465  0.00027597  0.00035093  0.00037380  0.00042062
  0.00051433  0.00056668  0.00057860  0.00059303  0.00059304  0.00059316  0.00059399  0.00060350
  0.00060390  0.00061966  0.00063013  0.00065880  0.00066061  0.00090603  0.00104189  0.00104470
  0.00111086  0.00111265  0.00114170  0.00114322  0.00117274  0.00117276  0.00117506  0.00117601
  0.00139895  0.00143057  0.00163361  0.00201308  0.00234732  0.00236074  0.00303193  0.00323856
  0.00373476  0.00374771  0.00405274  0.00406323
 Checking for correct frequencies
 recalc frequencies=
   -52.1   -0.0   -0.0   -0.0   -0.0    0.0    0.0   79.8  186.7  195.5
   341.6  371.7  373.8  408.1  415.5  498.9  588.1  610.2  613.1  640.8
   646.3  746.9  770.7  810.4  813.9  825.6  953.2  964.1  971.3 1000.5
  1004.9 1009.6 1014.8 1026.5 1029.1 1029.4 1039.0 1120.0 1126.8 1185.4
  1189.3 1213.3 1256.1 1295.2 1348.8 1349.0 1376.5 1388.3 1453.0 1477.0
  1486.1 1531.0 1542.7 1556.8 1613.1 1655.5 3190.3 3190.8 3199.6 3200.7
  3206.1 3207.4 3223.3 3223.9 3242.8 3243.8
 recalc symmetries=
     Au     B3g    B1u    B2u    B1g    B3u    B2g    B3u    B2g    B2u
     Ag     Au     B1g    B3u    B3g    B2g    B3g    B2u    B1u    B2g
     B3u    Ag     B3u    Au     B1g    B2g    B2g    B3u    B1u    Au 
     Ag     B1g    B1u    B2g    B3u    B1u    Ag     B3g    B2u    B2u
     B3g    B1u    Ag     B2u    Ag     B3g    B3g    B2u    B2u    B3g
     B1u    Ag     B3g    B2u    B1u    Ag     B1u    Ag     B3g    B2u
     B1u    Ag     B3g    B1u    B2u    Ag 
 recalc freqs check OK
 Zero-point lengths:
 34.3335 10.0000 10.0000 10.0000 10.0000 10.0000 10.0000 27.7464 18.1424 17.7298
 13.4133 12.8590 12.8219 12.2721 12.1625 11.0991 10.2227 10.0358 10.0122  9.7934
  9.7513  9.0712  8.9303  8.7085  8.6899  8.6279  8.0298  7.9841  7.9546  7.8379
  7.8204  7.8024  7.7823  7.7378  7.7278  7.7268  7.6911  7.4076  7.3855  7.2004
  7.1887  7.1173  6.9948  6.8887  6.7503  6.7497  6.6821  6.6535  6.5037  6.4507
  6.4308  6.3360  6.3119  6.2832  6.1725  6.0930  4.3891  4.3888  4.3827  4.3820
  4.3783  4.3775  4.3666  4.3662  4.3535  4.3528
 highest evec of mol 2
  0.0000  0.1239 -0.0678
  0.0000  0.0216  0.0171
  0.0000  0.0000  0.0070
  0.0000 -0.0216  0.0171
  0.0000 -0.1239 -0.0678
  0.0000  0.0000 -0.0039
  0.0000  0.0000  0.0039
  0.0000  0.1239  0.0678
  0.0000  0.0216 -0.0171
  0.0000  0.0000 -0.0070
  0.0000 -0.0216 -0.0171
  0.0000 -0.1239  0.0678
  0.0000 -0.4115  0.2312
  0.0000 -0.0680 -0.0410
  0.0000  0.0000 -0.0170
  0.0000  0.0680 -0.0410
  0.0000  0.4115  0.2312
  0.0000 -0.4115 -0.2312
  0.0000 -0.0680  0.0410
  0.0000  0.0000  0.0170
  0.0000  0.0680  0.0410
  0.0000  0.4115 -0.2312
 Enter nber and list of atoms to keep of mol #2
 keep list:          22           1           2           3           4
           5           6           7           8           9          10
          11          12          13          14          15          16
          17          18          19          20          21          22
 reordering atoms
           1   1.46877900000000     
           2   2.84430700000000     
           3   3.54490600000000     
           4   2.84430700000000     
           5   1.46877900000000     
           6  0.722240000000000     
           7 -0.722240000000000     
           8  -1.46877900000000     
           9  -2.84430700000000     
          10  -3.54490600000000     
          11  -2.84430700000000     
          12  -1.46877900000000     
          13  0.959411000000000     
          14   3.38877800000000     
          15   4.62870500000000     
          16   3.38877800000000     
          17  0.959411000000000     
          18 -0.959411000000000     
          19  -3.38877800000000     
          20  -4.62870500000000     
          21  -3.38877800000000     
          22 -0.959411000000000     
           1           1
           2           2
           3           3
           4           4
           5           5
           6           6
           7           7
           8           8
           9           9
          10          10
          11          11
          12          12
          13          13
          14          14
          15          15
          16          16
          17          17
          18          18
          19          19
          20          20
          21          21
          22          22
 initial cartes coords mol 1
   6   0.00000  -1.19698   1.48355
   6   0.00000  -1.19877   2.87417
   6   0.00000   0.00000   3.58183
   6   0.00000   1.19877   2.87417
   6   0.00000   1.19698   1.48355
   6   0.00000   0.00000   0.74698
   6   0.00000   0.00000  -0.74698
   6   0.00000  -1.19698  -1.48355
   6   0.00000  -1.19877  -2.87417
   6   0.00000   0.00000  -3.58183
   6   0.00000   1.19877  -2.87417
   6   0.00000   1.19698  -1.48355
   1   0.00000  -2.15163   0.97504
   1   0.00000  -2.14420   3.40527
   1   0.00000   0.00000   4.66548
   1   0.00000   2.14420   3.40527
   1   0.00000   2.15163   0.97504
   1   0.00000  -2.15163  -0.97504
   1   0.00000  -2.14420  -3.40527
   1   0.00000   0.00000  -4.66548
   1   0.00000   2.14420  -3.40527
   1   0.00000   2.15163  -0.97504
 initial cartes coords mol 2
   6   0.00000  -1.22220   1.46878
   6   0.00000  -1.21795   2.84431
   6   0.00000   0.00000   3.54491
   6   0.00000   1.21795   2.84431
   6   0.00000   1.22220   1.46878
   6   0.00000   0.00000   0.72224
   6   0.00000   0.00000  -0.72224
   6   0.00000  -1.22220  -1.46878
   6   0.00000  -1.21795  -2.84431
   6   0.00000   0.00000  -3.54491
   6   0.00000   1.21795  -2.84431
   6   0.00000   1.22220  -1.46878
   1   0.00000  -2.17414   0.95941
   1   0.00000  -2.15405   3.38878
   1   0.00000   0.00000   4.62871
   1   0.00000   2.15405   3.38878
   1   0.00000   2.17414   0.95941
   1   0.00000  -2.17414  -0.95941
   1   0.00000  -2.15405  -3.38878
   1   0.00000   0.00000  -4.62871
   1   0.00000   2.15405  -3.38878
   1   0.00000   2.17414  -0.95941
 loop 1 0
 mod cartes coords mol 2
   6   0.00000  -1.22220   1.46878
   6   0.00000  -1.21795   2.84431
   6   0.00000   0.00000   3.54491
   6   0.00000   1.21795   2.84431
   6   0.00000   1.22220   1.46878
   6   0.00000   0.00000   0.72224
   6   0.00000   0.00000  -0.72224
   6   0.00000  -1.22220  -1.46878
   6   0.00000  -1.21795  -2.84431
   6   0.00000   0.00000  -3.54491
   6   0.00000   1.21795  -2.84431
   6   0.00000   1.22220  -1.46878
   1   0.00000  -2.17414   0.95941
   1   0.00000  -2.15405   3.38878
   1   0.00000   0.00000   4.62871
   1   0.00000   2.15405   3.38878
   1   0.00000   2.17414   0.95941
   1   0.00000  -2.17414  -0.95941
   1   0.00000  -2.15405  -3.38878
   1   0.00000   0.00000  -4.62871
   1   0.00000   2.15405  -3.38878
   1   0.00000   2.17414  -0.95941
 read in order, maxerr=  0.04 for atom   3
 final axis swaps:           1           1           1
 final xyz swap pattern=           1
 reorder list:
   1   2   3   4   5   6   7   8   9  10  11  12  13  14  15  16  17  18  19  20
  21  22
 axis signs=           1           1           1
  6     0.000000 -1.222199  1.468779     0.000000 -1.196984  1.483552
  6     0.000000 -1.217955  2.844307     0.000000 -1.198774  2.874166
  6     0.000000  0.000000  3.544906     0.000000  0.000000  3.581826
  6     0.000000  1.217955  2.844307     0.000000  1.198774  2.874166
  6     0.000000  1.222199  1.468779     0.000000  1.196984  1.483552
  6     0.000000  0.000000  0.722240     0.000000  0.000000  0.746979
  6     0.000000  0.000000 -0.722240     0.000000  0.000000 -0.746979
  6     0.000000 -1.222199 -1.468779     0.000000 -1.196984 -1.483552
  6     0.000000 -1.217955 -2.844307     0.000000 -1.198774 -2.874166
  6     0.000000  0.000000 -3.544906     0.000000  0.000000 -3.581826
  6     0.000000  1.217955 -2.844307     0.000000  1.198774 -2.874166
  6     0.000000  1.222199 -1.468779     0.000000  1.196984 -1.483552
  1     0.000000 -2.174144  0.959411     0.000000 -2.151634  0.975039
  1     0.000000 -2.154051  3.388778     0.000000 -2.144203  3.405267
  1     0.000000  0.000000  4.628705     0.000000  0.000000  4.665481
  1     0.000000  2.154051  3.388778     0.000000  2.144203  3.405267
  1     0.000000  2.174144  0.959411     0.000000  2.151634  0.975039
  1     0.000000 -2.174144 -0.959411     0.000000 -2.151634 -0.975039
  1     0.000000 -2.154051 -3.388778     0.000000 -2.144203 -3.405267
  1     0.000000  0.000000 -4.628705     0.000000  0.000000 -4.665481
  1     0.000000  2.154051 -3.388778     0.000000  2.144203 -3.405267
  1     0.000000  2.174144 -0.959411     0.000000  2.151634 -0.975039
 generating redundant internal coords
         300        3600          22
 Adding extra bonds for z output only
           6           6           6           6           6           6
           6           6           6           6           6           6
           1           1           1           1           1           1
           1           1           1           1
 search for int coords
   1 str   2   1   1.376
   2 str   3   2   1.405
   3 str   4   3   1.405
   4 str   5   4   1.376
   5 str   6   1   1.432
   6 str   6   5   1.432
   7 str   7   6   1.444
   8 str   8   7   1.432
   9 str   9   8   1.376
  10 str  10   9   1.405
  11 str  11  10   1.405
  12 str  12   7   1.432
  13 str  12  11   1.376
  14 str  13   1   1.080
  15 str  14   2   1.083
  16 str  15   3   1.084
  17 str  16   4   1.083
  18 str  17   5   1.080
  19 str  18   8   1.080
  20 str  19   9   1.083
  21 str  20  10   1.084
  22 str  21  11   1.083
  23 str  22  12   1.080
 nber stretches=          23
  24 ben   1   2   3
  25 prop tor   1   2   3   4
  26 prop tor   1   2   3  15
  27 ben   1   2  14
  28 ben   1   6   5
  29 ben   1   6   7
  30 prop tor   1   6   7   8
  31 prop tor   1   6   7  12
  32 ben   2   1   6
  33 prop tor   2   1   6   5
  34 prop tor   2   1   6   7
  35 ben   2   1  13
  36 ben   2   3   4
  37 prop tor   2   3   4   5
  38 prop tor   2   3   4  16
  39 ben   2   3  15
  40 ben   3   2  14
  41 ben   3   4   5
  42 prop tor   3   4   5   6
  43 prop tor   3   4   5  17
  44 ben   3   4  16
  45 ben   4   3  15
  46 ben   4   5   6
  47 prop tor   4   5   6   1
  48 prop tor   4   5   6   7
  49 ben   4   5  17
  50 ben   5   4  16
  51 ben   5   6   7
  52 prop tor   5   6   7   8
  53 prop tor   5   6   7  12
  54 prop tor   6   1   2   3
  55 prop tor   6   1   2  14
  56 ben   6   1  13
  57 ben   6   5  17
  58 ben   6   7   8
  59 prop tor   6   7   8   9
  60 prop tor   6   7   8  18
  61 ben   6   7  12
  62 prop tor   6   7  12  11
  63 prop tor   6   7  12  22
  64 ben   7   8   9
  65 prop tor   7   8   9  10
  66 prop tor   7   8   9  19
  67 ben   7   8  18
  68 ben   7  12  11
  69 ben   7  12  22
  70 ben   8   7  12
  71 prop tor   8   7  12  11
  72 prop tor   8   7  12  22
  73 ben   8   9  10
  74 prop tor   8   9  10  11
  75 prop tor   8   9  10  20
  76 ben   8   9  19
  77 ben   9   8  18
  78 ben   9  10  11
  79 prop tor   9  10  11  12
  80 prop tor   9  10  11  21
  81 ben   9  10  20
  82 ben  10   9  19
  83 ben  10  11  12
  84 prop tor  10  11  12   7
  85 prop tor  10  11  12  22
  86 ben  10  11  21
  87 ben  11  10  20
  88 ben  11  12  22
  89 prop tor  12   7   8   9
  90 prop tor  12   7   8  18
  91 ben  12  11  21
  92 prop tor  13   1   2   3
  93 prop tor  13   1   2  14
  94 prop tor  13   1   6   5
  95 prop tor  13   1   6   7
  96 prop tor  14   2   3   4
  97 prop tor  14   2   3  15
  98 prop tor  15   3   4   5
  99 prop tor  15   3   4  16
 100 prop tor  16   4   5   6
 101 prop tor  16   4   5  17
 102 prop tor  17   5   6   1
 103 prop tor  17   5   6   7
 104 prop tor  18   8   9  10
 105 prop tor  18   8   9  19
 106 prop tor  19   9  10  11
 107 prop tor  19   9  10  20
 108 prop tor  20  10  11  12
 109 prop tor  20  10  11  21
 110 prop tor  21  11  12   7
 111 prop tor  21  11  12  22
 nber bend=              36
 nber lin bend=           0
 nber prop tor=          52
 nber impr tor=           0
 nber tot redund int=         111
 generating redundant internal coords
         300        3600          22
 search for int coords
   1 str   2   1   1.391
   2 str   3   2   1.392
   3 str   4   3   1.392
   4 str   5   4   1.391
   5 str   6   1   1.405
   6 str   6   5   1.405
   7 str   7   6   1.494
   8 str   8   7   1.405
   9 str   9   8   1.391
  10 str  10   9   1.392
  11 str  11  10   1.392
  12 str  12   7   1.405
  13 str  12  11   1.391
  14 str  13   1   1.082
  15 str  14   2   1.084
  16 str  15   3   1.084
  17 str  16   4   1.084
  18 str  17   5   1.082
  19 str  18   8   1.082
  20 str  19   9   1.084
  21 str  20  10   1.084
  22 str  21  11   1.084
  23 str  22  12   1.082
 nber stretches=          23
  24 ben   1   2   3
  25 prop tor   1   2   3   4
  26 prop tor   1   2   3  15
  27 ben   1   2  14
  28 ben   1   6   5
  29 ben   1   6   7
  30 prop tor   1   6   7   8
  31 prop tor   1   6   7  12
  32 ben   2   1   6
  33 prop tor   2   1   6   5
  34 prop tor   2   1   6   7
  35 ben   2   1  13
  36 ben   2   3   4
  37 prop tor   2   3   4   5
  38 prop tor   2   3   4  16
  39 ben   2   3  15
  40 ben   3   2  14
  41 ben   3   4   5
  42 prop tor   3   4   5   6
  43 prop tor   3   4   5  17
  44 ben   3   4  16
  45 ben   4   3  15
  46 ben   4   5   6
  47 prop tor   4   5   6   1
  48 prop tor   4   5   6   7
  49 ben   4   5  17
  50 ben   5   4  16
  51 ben   5   6   7
  52 prop tor   5   6   7   8
  53 prop tor   5   6   7  12
  54 prop tor   6   1   2   3
  55 prop tor   6   1   2  14
  56 ben   6   1  13
  57 ben   6   5  17
  58 ben   6   7   8
  59 prop tor   6   7   8   9
  60 prop tor   6   7   8  18
  61 ben   6   7  12
  62 prop tor   6   7  12  11
  63 prop tor   6   7  12  22
  64 ben   7   8   9
  65 prop tor   7   8   9  10
  66 prop tor   7   8   9  19
  67 ben   7   8  18
  68 ben   7  12  11
  69 ben   7  12  22
  70 ben   8   7  12
  71 prop tor   8   7  12  11
  72 prop tor   8   7  12  22
  73 ben   8   9  10
  74 prop tor   8   9  10  11
  75 prop tor   8   9  10  20
  76 ben   8   9  19
  77 ben   9   8  18
  78 ben   9  10  11
  79 prop tor   9  10  11  12
  80 prop tor   9  10  11  21
  81 ben   9  10  20
  82 ben  10   9  19
  83 ben  10  11  12
  84 prop tor  10  11  12   7
  85 prop tor  10  11  12  22
  86 ben  10  11  21
  87 ben  11  10  20
  88 ben  11  12  22
  89 prop tor  12   7   8   9
  90 prop tor  12   7   8  18
  91 ben  12  11  21
  92 prop tor  13   1   2   3
  93 prop tor  13   1   2  14
  94 prop tor  13   1   6   5
  95 prop tor  13   1   6   7
  96 prop tor  14   2   3   4
  97 prop tor  14   2   3  15
  98 prop tor  15   3   4   5
  99 prop tor  15   3   4  16
 100 prop tor  16   4   5   6
 101 prop tor  16   4   5  17
 102 prop tor  17   5   6   1
 103 prop tor  17   5   6   7
 104 prop tor  18   8   9  10
 105 prop tor  18   8   9  19
 106 prop tor  19   9  10  11
 107 prop tor  19   9  10  20
 108 prop tor  20  10  11  12
 109 prop tor  20  10  11  21
 110 prop tor  21  11  12   7
 111 prop tor  21  11  12  22
 nber bend=              36
 nber lin bend=           0
 nber prop tor=          52
 nber impr tor=           0
 nber tot redund int=         111
 Eigenvalues of G in red int coords
    Gval -0.00000000 -0.00000000 -0.00000000 -0.00000000 -0.00000000 -0.00000000 -0.00000000 -0.00000000
    Gval -0.00000000 -0.00000000 -0.00000000 -0.00000000 -0.00000000 -0.00000000 -0.00000000 -0.00000000
    Gval -0.00000000 -0.00000000 -0.00000000 -0.00000000 -0.00000000 -0.00000000 -0.00000000 -0.00000000
    Gval  0.00000000  0.00000000  0.00000000  0.00000000  0.00000000  0.00000000  0.00000000  0.00000000
    Gval  0.00000000  0.00000000  0.00000000  0.00000000  0.00000000  0.00000000  0.00000000  0.00000000
    Gval  0.00000000  0.00000000  0.00000000  0.00000000  0.00000000  0.00000000  0.00000000  0.00000000
    Gval  0.00000000  0.00000000  0.00000000  0.00000532  0.00000768  0.00002373  0.00003668  0.00004250
    Gval  0.00004496  0.00004919  0.00005754  0.00005758  0.00006679  0.00006709  0.00009792  0.00011445
    Gval  0.00011700  0.00011718  0.00012817  0.00019226  0.00020048  0.00025793  0.00027687  0.00027741
    Gval  0.00035457  0.00037854  0.00041377  0.00052155  0.00057640  0.00058168  0.00059307  0.00059308
    Gval  0.00059312  0.00059389  0.00060385  0.00060428  0.00062000  0.00063005  0.00066002  0.00066198
    Gval  0.00088772  0.00104026  0.00104311  0.00111018  0.00111208  0.00113844  0.00114003  0.00116956
    Gval  0.00117058  0.00117332  0.00117333  0.00141602  0.00143644  0.00163995  0.00201632  0.00234534
    Gval  0.00235968  0.00302916  0.00323554  0.00370024  0.00371371  0.00406380  0.00407187
  5.322266402832551E-006  5.322266402832551E-006
  7.683763339459627E-006  5.322266402832551E-006
  2.372792668672354E-005  5.322266402832551E-006
  3.668414215374891E-005  5.322266402832551E-006
  4.250296716327768E-005  5.322266402832551E-006
  4.495726142759069E-005  5.322266402832551E-006
  4.919015804123424E-005  5.322266402832551E-006
  5.754090860579417E-005  5.322266402832551E-006
  5.757954554855313E-005  5.322266402832551E-006
  6.679456130855756E-005  5.322266402832551E-006
  6.709387625738571E-005  5.322266402832551E-006
  9.792191414165662E-005  5.322266402832551E-006
  1.144528277576116E-004  5.322266402832551E-006
  1.170004488183275E-004  5.322266402832551E-006
  1.171798537675073E-004  5.322266402832551E-006
  1.281684700471759E-004  5.322266402832551E-006
  1.922621541397580E-004  5.322266402832551E-006
  2.004780243318978E-004  5.322266402832551E-006
  2.579265111821138E-004  5.322266402832551E-006
  2.768668602616753E-004  5.322266402832551E-006
  2.774065254664240E-004  5.322266402832551E-006
  3.545684583522049E-004  5.322266402832551E-006
  3.785429070860316E-004  5.322266402832551E-006
  4.137730492448435E-004  5.322266402832551E-006
  5.215464423358882E-004  5.322266402832551E-006
  5.764001300541822E-004  5.322266402832551E-006
  5.816769274114355E-004  5.322266402832551E-006
  5.930724156458141E-004  5.322266402832551E-006
  5.930814178418265E-004  5.322266402832551E-006
  5.931189396939563E-004  5.322266402832551E-006
  5.938927867461781E-004  5.322266402832551E-006
  6.038532324682895E-004  5.322266402832551E-006
  6.042758443079490E-004  5.322266402832551E-006
  6.200016962736423E-004  5.322266402832551E-006
  6.300472015298337E-004  5.322266402832551E-006
  6.600217256213872E-004  5.322266402832551E-006
  6.619803119674984E-004  5.322266402832551E-006
  8.877239485617670E-004  5.322266402832551E-006
  1.040263813498708E-003  5.322266402832551E-006
  1.043107066275153E-003  5.322266402832551E-006
  1.110183663393455E-003  5.322266402832551E-006
  1.112084351935949E-003  5.322266402832551E-006
  1.138440487831875E-003  5.322266402832551E-006
  1.140031274481161E-003  5.322266402832551E-006
  1.169557093576042E-003  5.322266402832551E-006
  1.170579403646204E-003  5.322266402832551E-006
  1.173322142589803E-003  5.322266402832551E-006
  1.173328090879020E-003  5.322266402832551E-006
  1.416024291513456E-003  5.322266402832551E-006
  1.436439261051637E-003  5.322266402832551E-006
  1.639947704030103E-003  5.322266402832551E-006
  2.016321816519426E-003  5.322266402832551E-006
  2.345337334246751E-003  5.322266402832551E-006
  2.359684800580871E-003  5.322266402832551E-006
  3.029157874099304E-003  5.322266402832551E-006
  3.235544325883333E-003  5.322266402832551E-006
  3.700241317112754E-003  5.322266402832551E-006
  3.713712768582969E-003  5.322266402832551E-006
  4.063804481981751E-003  5.322266402832551E-006
  4.071874717061007E-003  5.322266402832551E-006
 cut=1d-8, nber non-redundant internal coords=          60
 Check on Eigenvals of non-red overlap matrix:
  0.00000532  0.00000768  0.00002373  0.00003668  0.00004250  0.00004496  0.00004919  0.00005754
  0.00005758  0.00006679  0.00006709  0.00009792  0.00011445  0.00011700  0.00011718  0.00012817
  0.00019226  0.00020048  0.00025793  0.00027687  0.00027741  0.00035457  0.00037854  0.00041377
  0.00052155  0.00057640  0.00058168  0.00059307  0.00059308  0.00059312  0.00059389  0.00060385
  0.00060428  0.00062000  0.00063005  0.00066002  0.00066198  0.00088772  0.00104026  0.00104311
  0.00111018  0.00111208  0.00113844  0.00114003  0.00116956  0.00117058  0.00117332  0.00117333
  0.00141602  0.00143644  0.00163995  0.00201632  0.00234534  0.00235968  0.00302916  0.00323554
  0.00370024  0.00371371  0.00406380  0.00407187
 generating redundant internal coords
         300        3600          22
 search for int coords
   1 str   2   1   1.376
   2 str   3   2   1.405
   3 str   4   3   1.405
   4 str   5   4   1.376
   5 str   6   1   1.432
   6 str   6   5   1.432
   7 str   7   6   1.444
   8 str   8   7   1.432
   9 str   9   8   1.376
  10 str  10   9   1.405
  11 str  11  10   1.405
  12 str  12   7   1.432
  13 str  12  11   1.376
  14 str  13   1   1.080
  15 str  14   2   1.083
  16 str  15   3   1.084
  17 str  16   4   1.083
  18 str  17   5   1.080
  19 str  18   8   1.080
  20 str  19   9   1.083
  21 str  20  10   1.084
  22 str  21  11   1.083
  23 str  22  12   1.080
 nber stretches=          23
  24 ben   1   2   3
  25 prop tor   1   2   3   4
  26 prop tor   1   2   3  15
  27 ben   1   2  14
  28 ben   1   6   5
  29 ben   1   6   7
  30 prop tor   1   6   7   8
  31 prop tor   1   6   7  12
  32 ben   2   1   6
  33 prop tor   2   1   6   5
  34 prop tor   2   1   6   7
  35 ben   2   1  13
  36 ben   2   3   4
  37 prop tor   2   3   4   5
  38 prop tor   2   3   4  16
  39 ben   2   3  15
  40 ben   3   2  14
  41 ben   3   4   5
  42 prop tor   3   4   5   6
  43 prop tor   3   4   5  17
  44 ben   3   4  16
  45 ben   4   3  15
  46 ben   4   5   6
  47 prop tor   4   5   6   1
  48 prop tor   4   5   6   7
  49 ben   4   5  17
  50 ben   5   4  16
  51 ben   5   6   7
  52 prop tor   5   6   7   8
  53 prop tor   5   6   7  12
  54 prop tor   6   1   2   3
  55 prop tor   6   1   2  14
  56 ben   6   1  13
  57 ben   6   5  17
  58 ben   6   7   8
  59 prop tor   6   7   8   9
  60 prop tor   6   7   8  18
  61 ben   6   7  12
  62 prop tor   6   7  12  11
  63 prop tor   6   7  12  22
  64 ben   7   8   9
  65 prop tor   7   8   9  10
  66 prop tor   7   8   9  19
  67 ben   7   8  18
  68 ben   7  12  11
  69 ben   7  12  22
  70 ben   8   7  12
  71 prop tor   8   7  12  11
  72 prop tor   8   7  12  22
  73 ben   8   9  10
  74 prop tor   8   9  10  11
  75 prop tor   8   9  10  20
  76 ben   8   9  19
  77 ben   9   8  18
  78 ben   9  10  11
  79 prop tor   9  10  11  12
  80 prop tor   9  10  11  21
  81 ben   9  10  20
  82 ben  10   9  19
  83 ben  10  11  12
  84 prop tor  10  11  12   7
  85 prop tor  10  11  12  22
  86 ben  10  11  21
  87 ben  11  10  20
  88 ben  11  12  22
  89 prop tor  12   7   8   9
  90 prop tor  12   7   8  18
  91 ben  12  11  21
  92 prop tor  13   1   2   3
  93 prop tor  13   1   2  14
  94 prop tor  13   1   6   5
  95 prop tor  13   1   6   7
  96 prop tor  14   2   3   4
  97 prop tor  14   2   3  15
  98 prop tor  15   3   4   5
  99 prop tor  15   3   4  16
 100 prop tor  16   4   5   6
 101 prop tor  16   4   5  17
 102 prop tor  17   5   6   1
 103 prop tor  17   5   6   7
 104 prop tor  18   8   9  10
 105 prop tor  18   8   9  19
 106 prop tor  19   9  10  11
 107 prop tor  19   9  10  20
 108 prop tor  20  10  11  12
 109 prop tor  20  10  11  21
 110 prop tor  21  11  12   7
 111 prop tor  21  11  12  22
 nber bend=              36
 nber lin bend=           0
 nber prop tor=          52
 nber impr tor=           0
 nber tot redund int=         111
 Eigenvalues of G in red int coords
    Gval -0.00000000 -0.00000000 -0.00000000 -0.00000000 -0.00000000 -0.00000000 -0.00000000 -0.00000000
    Gval -0.00000000 -0.00000000 -0.00000000 -0.00000000 -0.00000000 -0.00000000 -0.00000000 -0.00000000
    Gval -0.00000000 -0.00000000 -0.00000000 -0.00000000 -0.00000000 -0.00000000 -0.00000000 -0.00000000
    Gval -0.00000000 -0.00000000  0.00000000  0.00000000  0.00000000  0.00000000  0.00000000  0.00000000
    Gval  0.00000000  0.00000000  0.00000000  0.00000000  0.00000000  0.00000000  0.00000000  0.00000000
    Gval  0.00000000  0.00000000  0.00000000  0.00000000  0.00000000  0.00000000  0.00000000  0.00000000
    Gval  0.00000000  0.00000000  0.00000000  0.00000530  0.00000765  0.00002378  0.00003696  0.00004249
    Gval  0.00004369  0.00004880  0.00005708  0.00005779  0.00006664  0.00006781  0.00009794  0.00011332
    Gval  0.00011690  0.00011737  0.00012806  0.00019568  0.00020310  0.00025399  0.00027465  0.00027597
    Gval  0.00035093  0.00037380  0.00042062  0.00051433  0.00056668  0.00057860  0.00059303  0.00059304
    Gval  0.00059316  0.00059399  0.00060350  0.00060390  0.00061966  0.00063013  0.00065880  0.00066061
    Gval  0.00090603  0.00104189  0.00104470  0.00111086  0.00111265  0.00114170  0.00114322  0.00117274
    Gval  0.00117276  0.00117506  0.00117601  0.00139895  0.00143057  0.00163361  0.00201308  0.00234732
    Gval  0.00236074  0.00303193  0.00323856  0.00373476  0.00374771  0.00405274  0.00406323
  5.295451496388743E-006  5.295451496388743E-006
  7.650969619156677E-006  5.295451496388743E-006
  2.378138732217213E-005  5.295451496388743E-006
  3.696032895671031E-005  5.295451496388743E-006
  4.249008081294609E-005  5.295451496388743E-006
  4.369385648199721E-005  5.295451496388743E-006
  4.879646274111281E-005  5.295451496388743E-006
  5.708245160704239E-005  5.295451496388743E-006
  5.778818446052065E-005  5.295451496388743E-006
  6.663796372792871E-005  5.295451496388743E-006
  6.780544283882466E-005  5.295451496388743E-006
  9.793625832465083E-005  5.295451496388743E-006
  1.133189170227019E-004  5.295451496388743E-006
  1.168994682202794E-004  5.295451496388743E-006
  1.173707648323412E-004  5.295451496388743E-006
  1.280570520669981E-004  5.295451496388743E-006
  1.956794152647849E-004  5.295451496388743E-006
  2.031011011292162E-004  5.295451496388743E-006
  2.539903953201561E-004  5.295451496388743E-006
  2.746528558471029E-004  5.295451496388743E-006
  2.759666980547871E-004  5.295451496388743E-006
  3.509341665627265E-004  5.295451496388743E-006
  3.738023916519932E-004  5.295451496388743E-006
  4.206244132735170E-004  5.295451496388743E-006
  5.143309517399203E-004  5.295451496388743E-006
  5.666784559280053E-004  5.295451496388743E-006
  5.786035569418462E-004  5.295451496388743E-006
  5.930326559412883E-004  5.295451496388743E-006
  5.930419749605368E-004  5.295451496388743E-006
  5.931564411780936E-004  5.295451496388743E-006
  5.939855136750038E-004  5.295451496388743E-006
  6.035029773748216E-004  5.295451496388743E-006
  6.038985572652417E-004  5.295451496388743E-006
  6.196597396251385E-004  5.295451496388743E-006
  6.301328768789167E-004  5.295451496388743E-006
  6.587977424509214E-004  5.295451496388743E-006
  6.606069597509403E-004  5.295451496388743E-006
  9.060284667117401E-004  5.295451496388743E-006
  1.041887852217447E-003  5.295451496388743E-006
  1.044701715489039E-003  5.295451496388743E-006
  1.110860607874464E-003  5.295451496388743E-006
  1.112654605712720E-003  5.295451496388743E-006
  1.141701371532521E-003  5.295451496388743E-006
  1.143216336000042E-003  5.295451496388743E-006
  1.172736886577707E-003  5.295451496388743E-006
  1.172755967197153E-003  5.295451496388743E-006
  1.175064519262131E-003  5.295451496388743E-006
  1.176010516088741E-003  5.295451496388743E-006
  1.398952661647834E-003  5.295451496388743E-006
  1.430568331225306E-003  5.295451496388743E-006
  1.633612175037009E-003  5.295451496388743E-006
  2.013076128805955E-003  5.295451496388743E-006
  2.347316704334865E-003  5.295451496388743E-006
  2.360743693945300E-003  5.295451496388743E-006
  3.031934824259923E-003  5.295451496388743E-006
  3.238556128637141E-003  5.295451496388743E-006
  3.734764751375042E-003  5.295451496388743E-006
  3.747714366982624E-003  5.295451496388743E-006
  4.052742527822810E-003  5.295451496388743E-006
  4.063230936156304E-003  5.295451496388743E-006
 cut=1d-8, nber non-redundant internal coords=          60
 Check on Eigenvals of non-red overlap matrix:
  0.00000530  0.00000765  0.00002378  0.00003696  0.00004249  0.00004369  0.00004880  0.00005708
  0.00005779  0.00006664  0.00006781  0.00009794  0.00011332  0.00011690  0.00011737  0.00012806
  0.00019568  0.00020310  0.00025399  0.00027465  0.00027597  0.00035093  0.00037380  0.00042062
  0.00051433  0.00056668  0.00057860  0.00059303  0.00059304  0.00059316  0.00059399  0.00060350
  0.00060390  0.00061966  0.00063013  0.00065880  0.00066061  0.00090603  0.00104189  0.00104470
  0.00111086  0.00111265  0.00114170  0.00114322  0.00117274  0.00117276  0.00117506  0.00117601
  0.00139895  0.00143057  0.00163361  0.00201308  0.00234732  0.00236074  0.00303193  0.00323856
  0.00373476  0.00374771  0.00405274  0.00406323
 d1=
   0.0  12.5  -0.0   0.0  -0.0  -0.0   9.6   0.0  -0.0   4.5  -0.0   0.0   0.0   3.6   0.0  -0.0   0.0   0.0  -0.0  -0.0
   0.2  -0.0   1.0   0.0   0.0   0.0   0.0   0.0  -0.1  -0.0   0.0   0.0  -0.5   0.0   0.0   0.0  -0.4  -0.0   0.0   0.0
   0.0   0.6  -0.0   0.0   0.0   0.1  -0.0  -0.0   0.0  -0.0   0.0   0.0   0.0   0.0  -0.0  -0.0   0.0   0.0   0.0   0.0
 d2=
  -0.0  12.7   0.0  -0.0   0.0  -0.0   9.5   0.0   0.0  -4.4   0.0  -0.0  -0.0   0.0   3.7  -0.0   0.0   0.0   0.0   0.1
  -0.0  -0.0  -1.0  -0.0   0.0  -0.0  -0.0   0.0   0.1  -0.0   0.0   0.0   0.5  -0.0   0.0  -0.0   0.4   0.0   0.0   0.0
   0.0  -0.6   0.0  -0.0   0.0  -0.0  -0.0   0.1  -0.0   0.0   0.0   0.0   0.0  -0.0   0.0   0.0   0.0  -0.0  -0.0   0.0
 curvilinear- renormalizn of Dush matrix done
  mol 1 sym            1  -> mol 2 sym            1
  mol 1 sym            2  -> mol 2 sym            2
  mol 1 sym            3  -> mol 2 sym            3
  mol 1 sym            4  -> mol 2 sym            4
  mol 1 sym            5  -> mol 2 sym            5
  mol 1 sym            6  -> mol 2 sym            6
  mol 1 sym            7  -> mol 2 sym            7
  mol 1 sym            8  -> mol 2 sym            8

 Dushinsky matrix, ncs 2 in terms of ncs 1

   mode   freq    coeff     %      %tot     of    at

   1 Au    -52. -0.9988    99.8    97.0   1 Au    -84.
   2 B3g    -0.  0.0000     0.0     0.0  40 B3g  1182.
   3 B1u    -0. -0.0000     0.0     0.0  56 B1u  1649.
   4 B2u    -0.  0.0000     0.0     0.0   9 B2u   190.
   5 B1g    -0. -0.0000     0.0     0.0  14 B1g   415.
   6 B3u     0.  0.0000     0.0     0.0  21 B3u   714.
   7 B2g     0.  0.0000     0.0     0.0  10 B2g   224.
   8 B3u    80.  0.9996    99.9   100.8   8 B3u    95.
   9 B2g   187.  0.9997    99.9   101.9  10 B2g   224.
  10 B2u   196. -0.9997    99.9    99.5   9 B2u   190.
  11 Ag    342.  0.9996    99.9    97.9  11 Ag    336.
  12 Au    372.  0.9982    99.6    98.9  12 Au    393.
  13 B1g   374. -0.9990    99.8    98.7  14 B1g   415.
  14 B3u   408.  0.9861    97.2    99.7  15 B3u   448.
  15 B3g   415. -0.9998   100.0   103.8  13 B3g   413.
  16 B2g   499.  0.9156    83.8   102.0  16 B2g   555.
                 0.3922    15.4          20 B2g   680.
  17 B3g   588. -0.9975    99.5    99.7  18 B3g   627.
  18 B2u   610.  0.9973    99.5    99.7  19 B2u   645.
  19 B1u   613.  0.9993    99.9    98.0  17 B1u   624.
  20 B2g   641.  0.4039    16.3   100.1  16 B2g   555.
                -0.9128    83.3          20 B2g   680.
  21 B3u   646.  0.9854    97.1    99.0  21 B3u   714.
  22 Ag    747. -0.9953    99.1    99.8  23 Ag    753.
  23 B3u   771.  0.9932    98.6    99.0  22 B3u   748.
  24 Au    810.  0.9989    99.8   100.0  25 Au    821.
  25 B1g   814.  0.9940    98.8   100.1  26 B1g   851.
  26 B2g   826.  0.9711    94.3    99.5  24 B2g   802.
  27 B2g   953.  0.9697    94.0   100.1  28 B2g   920.
  28 B3u   964.  0.9919    98.4   100.0  27 B3u   919.
  29 B1u   971. -0.9011    81.2   100.0  33 B1u  1010.
                 0.3487    12.2          35 B1u  1024.
  30 Au   1000.  1.0000   100.0   100.7  29 Au    962.
  31 Ag   1005.  0.9897    98.0    99.9  34 Ag   1019.
  32 B1g  1010.  0.9950    99.0   100.8  30 B1g   977.
  33 B1u  1015. -0.3200    10.2    99.8  33 B1u  1010.
                -0.9237    85.3          35 B1u  1024.
  34 B2g  1026.  0.9958    99.2    99.8  31 B2g   995.
  35 B3u  1029.  0.9956    99.1   100.0  32 B3u   999.
  36 B1u  1029.  0.9548    91.2    98.8  36 B1u  1064.
  37 Ag   1039. -0.9892    97.8    99.5  37 Ag   1064.
  38 B3g  1120.  0.9879    97.6   100.0  38 B3g  1106.
  39 B2u  1127. -0.9891    97.8    99.5  39 B2u  1119.
  40 B2u  1185. -0.9351    87.4   100.2  41 B2u  1190.
  41 B3g  1189.  0.9815    96.3   100.3  40 B3g  1182.
  42 B1u  1213. -0.9933    98.7   100.3  42 B1u  1205.
  43 Ag   1256. -0.9932    98.7   100.2  43 Ag   1239.
  44 B2u  1295. -0.3385    11.5   100.1  41 B2u  1190.
                -0.8401    70.6          45 B2u  1300.
  45 Ag   1349. -0.9893    97.9    99.9  44 Ag   1283.
  46 B3g  1349. -0.4816    23.2   100.6  46 B3g  1324.
                 0.8468    71.7          47 B3g  1356.
  47 B3g  1376.  0.8432    71.1   100.1  46 B3g  1324.
                 0.5071    25.7          47 B3g  1356.
  48 B2u  1388. -0.3361    11.3   100.0  45 B2u  1300.
                -0.9248    85.5          48 B2u  1379.
  49 B2u  1453.  0.8636    74.6   100.2  49 B2u  1460.
                 0.3774    14.2          53 B2u  1614.
  50 B3g  1477. -0.7343    53.9   100.3  50 B3g  1494.
                -0.6315    39.9          54 B3g  1628.
  51 B1u  1486. -0.9940    98.8   100.5  51 B1u  1518.
  52 Ag   1531. -0.9947    98.9   100.3  52 Ag   1551.
  53 B3g  1543.  0.6449    41.6    99.8  50 B3g  1494.
                -0.7541    56.9          54 B3g  1628.
  54 B2u  1557.  0.4285    18.4    99.9  49 B2u  1460.
                -0.8817    77.7          53 B2u  1614.
  55 B1u  1613.  0.9926    98.5    99.5  56 B1u  1649.
  56 Ag   1655.  0.9983    99.7    99.5  55 Ag   1641.
  57 B1u  3190. -0.9532    90.9   100.0  57 B1u  3161.
  58 Ag   3191.  0.9584    91.9   100.0  58 Ag   3162.
  59 B3g  3200.  0.9954    99.1   100.0  59 B3g  3169.
  60 B2u  3201.  0.9983    99.7   100.0  60 B2u  3171.
  61 B1u  3206. -0.8827    77.9   100.0  61 B1u  3185.
                 0.3605    13.0          64 B1u  3196.
  62 Ag   3207. -0.9502    90.3   100.0  62 Ag   3188.
  63 B3g  3223.  0.9954    99.1   100.0  63 B3g  3193.
  64 B1u  3224. -0.3719    13.8   100.0  61 B1u  3185.
                -0.9280    86.1          64 B1u  3196.
  65 B2u  3243.  0.9982    99.6   100.0  65 B2u  3209.
  66 Ag   3244.  0.9913    98.3   100.0  66 Ag   3211.
 nber times 1st assigned=           1           0
 nber times 1st assigned=           2           0
 nber times 1st assigned=           3           0
 nber times 1st assigned=           4           0
 nber times 1st assigned=           5           0
 nber times 1st assigned=           6           0
 nber times 1st assigned=           7           0
 nber times 1st assigned=           8           0
 nber times 1st assigned=          11           0
 nber times 1st assigned=          12           0
 nber times 1st assigned=          13           0
 nber times 1st assigned=          15           0
 nber times 1st assigned=          16           0
 nber times 1st assigned=          17           0
 nber times 1st assigned=          18           0
 nber times 1st assigned=          19           0
 nber times 1st assigned=          20           0
 nber times 1st assigned=          22           0
 nber times 1st assigned=          23           0
 nber times 1st assigned=          24           0
 nber times 1st assigned=          25           0
 nber times 1st assigned=          26           0
 nber times 1st assigned=          27           0
 nber times 1st assigned=          28           0
 nber times 1st assigned=          29           0
 nber times 1st assigned=          30           0
 nber times 1st assigned=          31           0
 nber times 1st assigned=          32           0
 nber times 1st assigned=          33           0
 nber times 1st assigned=          34           0
 nber times 1st assigned=          35           0
 nber times 1st assigned=          36           0
 nber times 1st assigned=          37           0
 nber times 1st assigned=          38           0
 nber times 1st assigned=          39           0
 nber times 1st assigned=          41           0
 nber times 1st assigned=          42           0
 nber times 1st assigned=          43           0
 nber times 1st assigned=          44           0
 nber times 1st assigned=          45           0
 nber times 1st assigned=          46           0
 nber times 1st assigned=          47           0
 nber times 1st assigned=          48           0
 nber times 1st assigned=          49           0
 nber times 1st assigned=          50           0
 nber times 1st assigned=          51           0
 nber times 1st assigned=          52           0
 nber times 1st assigned=          53           0
 nber times 1st assigned=          54           0
 nber times 1st assigned=          55           0
 nber times 1st assigned=          57           0
 nber times 1st assigned=          58           0
 nber times 1st assigned=          59           0
 nber times 1st assigned=          60           0
 nber times 1st assigned=          61           0
 nber times 1st assigned=          62           0
 nber times 1st assigned=          63           0
 nber times 1st assigned=          64           0
 nber times 1st assigned=          65           0
 nber times 1st assigned=          66           0
 Dushinsky matrix written to .out file
 modes represented=   59.9577909142139     

 Dushinsky matrix, ncs 1 in terms of ncs 2

   mode   freq    coeff     %      %tot     of    at

   1 Au    -84. -0.9988    99.8    96.8   1 Au    -52.
   8 B3u    95.  0.9996    99.9   100.8   8 B3u    80.
   9 B2u   190. -0.9997    99.9    99.6  10 B2u   196.
  10 B2g   224.  0.9997    99.9   102.0   9 B2g   187.
  11 Ag    336.  0.9996    99.9    98.3  11 Ag    342.
  12 Au    393.  0.9982    99.6    99.0  12 Au    372.
  13 B3g   413. -0.9998   100.0   104.1  15 B3g   415.
  14 B1g   415. -0.9990    99.8    98.7  13 B1g   374.
  15 B3u   448.  0.9861    97.2    99.4  14 B3u   408.
  16 B2g   555.  0.9156    83.8   102.3  16 B2g   499.
                 0.4039    16.3          20 B2g   641.
  17 B1u   624.  0.9993    99.9    98.0  19 B1u   613.
  18 B3g   627. -0.9975    99.5    99.7  17 B3g   588.
  19 B2u   645.  0.9973    99.5    99.7  18 B2u   610.
  20 B2g   680.  0.3922    15.4    99.8  16 B2g   499.
                -0.9128    83.3          20 B2g   641.
  21 B3u   714.  0.9854    97.1    99.5  21 B3u   646.
  22 B3u   748.  0.9932    98.6    99.0  23 B3u   771.
  23 Ag    753. -0.9953    99.1    99.7  22 Ag    747.
  24 B2g   802.  0.9711    94.3    99.6  26 B2g   826.
  25 Au    821.  0.9989    99.8   100.0  24 Au    810.
  26 B1g   851.  0.9940    98.8   100.1  25 B1g   814.
  27 B3u   919.  0.9919    98.4    99.9  28 B3u   964.
  28 B2g   920.  0.9697    94.0    99.9  27 B2g   953.
  29 Au    962.  1.0000   100.0   100.7  30 Au   1000.
  30 B1g   977.  0.9950    99.0   100.8  32 B1g  1010.
  31 B2g   995.  0.9958    99.2    99.8  34 B2g  1026.
  32 B3u   999.  0.9956    99.1    99.9  35 B3u  1029.
  33 B1u  1010. -0.9011    81.2    99.9  29 B1u   971.
                -0.3200    10.2          33 B1u  1015.
  34 Ag   1019.  0.9897    98.0    99.6  31 Ag   1005.
  35 B1u  1024.  0.3487    12.2    99.6  29 B1u   971.
                -0.9237    85.3          33 B1u  1015.
  36 B1u  1064.  0.9548    91.2    99.5  36 B1u  1029.
  37 Ag   1064. -0.9892    97.8    99.8  37 Ag   1039.
  38 B3g  1106.  0.9879    97.6   100.0  38 B3g  1120.
  39 B2u  1119. -0.9891    97.8    99.5  39 B2u  1127.
  40 B3g  1182.  0.9815    96.3   100.2  41 B3g  1189.
  41 B2u  1190. -0.9351    87.4   100.2  40 B2u  1185.
                -0.3385    11.5          44 B2u  1295.
  42 B1u  1205. -0.9933    98.7   100.2  42 B1u  1213.
  43 Ag   1239. -0.9932    98.7   100.2  43 Ag   1256.
  44 Ag   1283. -0.9893    97.9    99.7  45 Ag   1349.
  45 B2u  1300. -0.8401    70.6    99.9  44 B2u  1295.
                -0.3361    11.3          48 B2u  1388.
  46 B3g  1324. -0.4816    23.2   100.3  46 B3g  1349.
                 0.8432    71.1          47 B3g  1376.
  47 B3g  1356.  0.8468    71.7   100.3  46 B3g  1349.
                 0.5071    25.7          47 B3g  1376.
  48 B2u  1379. -0.9248    85.5   100.2  48 B2u  1388.
  49 B2u  1460.  0.8636    74.6    99.5  49 B2u  1453.
                 0.4285    18.4          54 B2u  1557.
  50 B3g  1494. -0.7343    53.9    99.4  50 B3g  1477.
                 0.6449    41.6          53 B3g  1543.
  51 B1u  1518. -0.9940    98.8   100.4  51 B1u  1486.
  52 Ag   1551. -0.9947    98.9   100.3  52 Ag   1531.
  53 B2u  1614.  0.3774    14.2   100.4  49 B2u  1453.
                -0.8817    77.7          54 B2u  1557.
  54 B3g  1628. -0.6315    39.9   100.7  50 B3g  1477.
                -0.7541    56.9          53 B3g  1543.
  55 Ag   1641.  0.9983    99.7    99.4  56 Ag   1655.
  56 B1u  1649.  0.9926    98.5    99.4  55 B1u  1613.
  57 B1u  3161. -0.9532    90.9   100.0  57 B1u  3190.
  58 Ag   3162.  0.9584    91.9   100.0  58 Ag   3191.
  59 B3g  3169.  0.9954    99.1   100.0  59 B3g  3200.
  60 B2u  3171.  0.9983    99.7   100.0  60 B2u  3201.
  61 B1u  3185. -0.8827    77.9   100.0  61 B1u  3206.
                -0.3719    13.8          64 B1u  3224.
  62 Ag   3188. -0.9502    90.3   100.0  62 Ag   3207.
  63 B3g  3193.  0.9954    99.1   100.0  63 B3g  3223.
  64 B1u  3196.  0.3605    13.0   100.0  61 B1u  3206.
                -0.9280    86.1          64 B1u  3224.
  65 B2u  3209.  0.9982    99.6   100.0  65 B2u  3243.
  66 Ag   3211.  0.9913    98.3   100.0  66 Ag   3244.
 nber times 1st assigned=           1           0
 nber times 1st assigned=           2           0
 nber times 1st assigned=           3           0
 nber times 1st assigned=           4           0
 nber times 1st assigned=           5           0
 nber times 1st assigned=           6           0
 nber times 1st assigned=           7           0
 nber times 1st assigned=           8           0
 nber times 1st assigned=           9           0
 nber times 1st assigned=          10           0
 nber times 1st assigned=          11           0
 nber times 1st assigned=          12           0
 nber times 1st assigned=          13           0
 nber times 1st assigned=          14           0
 nber times 1st assigned=          15           0
 nber times 1st assigned=          16           0
 nber times 1st assigned=          17           0
 nber times 1st assigned=          18           0
 nber times 1st assigned=          19           0
 nber times 1st assigned=          20           0
 nber times 1st assigned=          21           0
 nber times 1st assigned=          22           0
 nber times 1st assigned=          23           0
 nber times 1st assigned=          24           0
 nber times 1st assigned=          25           0
 nber times 1st assigned=          26           0
 nber times 1st assigned=          27           0
 nber times 1st assigned=          28           0
 nber times 1st assigned=          29           0
 nber times 1st assigned=          30           0
 nber times 1st assigned=          31           0
 nber times 1st assigned=          32           0
 nber times 1st assigned=          33           0
 nber times 1st assigned=          34           0
 nber times 1st assigned=          35           0
 nber times 1st assigned=          36           0
 nber times 1st assigned=          37           0
 nber times 1st assigned=          38           0
 nber times 1st assigned=          39           0
 nber times 1st assigned=          40           0
 nber times 1st assigned=          41           0
 nber times 1st assigned=          42           0
 nber times 1st assigned=          43           0
 nber times 1st assigned=          44           0
 nber times 1st assigned=          45           0
 nber times 1st assigned=          46           0
 nber times 1st assigned=          47           0
 nber times 1st assigned=          48           0
 nber times 1st assigned=          49           0
 nber times 1st assigned=          50           0
 nber times 1st assigned=          51           0
 nber times 1st assigned=          52           0
 nber times 1st assigned=          53           0
 nber times 1st assigned=          54           0
 nber times 1st assigned=          55           0
 nber times 1st assigned=          56           0
 nber times 1st assigned=          57           0
 nber times 1st assigned=          58           0
 nber times 1st assigned=          59           0
 nber times 1st assigned=          60           0
 nber times 1st assigned=          61           0
 nber times 1st assigned=          62           0
 nber times 1st assigned=          63           0
 nber times 1st assigned=          64           0
 nber times 1st assigned=          65           0
 nber times 1st assigned=          66           0
 modes represented=   59.9577909142139     
 p1=
   -0.    0.    0.    0.   -0.    0.   -0.    0.    0.   -0.  -14.   -0.   -0.    0.   -0.   -0.    0.    0.   -0.   -0.
   -0.    0.   -6.   -0.   -0.    0.   -0.   -0.   -0.   -0.    0.    0.   -0.   -3.   -0.    0.    1.   -0.    0.    0.
    0.   -0.    3.    4.    0.   -0.    0.    0.    0.    0.   -0.   -1.   -0.    0.   -4.   -0.    0.    0.    0.   -0.
   -0.   -0.   -0.   -0.   -0.    0.
 p2=
   -0.    0.   -0.   -0.   -0.    0.    0.    0.   -0.   -0.   14.    0.    0.    0.   -0.   -0.    0.   -0.   -0.   -0.
    0.   -6.    0.    0.    0.    0.   -0.    0.   -0.    0.    3.    0.   -0.    0.   -0.   -0.    2.   -0.    0.   -0.
   -0.    0.    3.   -0.    3.   -0.    0.   -0.   -0.   -0.   -0.   -1.   -0.   -0.    0.    4.   -0.   -0.   -0.    0.
   -0.   -0.    0.    0.   -0.   -0.

 Displacement: in terms of nc of 1 THEN of nc of 2

   1 Au  freq=   -84. Q= -0.000 lam=    -0.0 Au  freq=   -52. Q= -0.000 lam=    -0.0
   2 B2u freq=    -0. Q=  0.000 lam=    -0.0 B3g freq=    -0. Q=  0.000 lam=    -0.0
   3 B2g freq=    -0. Q=  0.000 lam=    -0.0 B1u freq=    -0. Q=  0.000 lam=    -0.0
   4 B3u freq=    -0. Q=  0.000 lam=    -0.0 B2u freq=    -0. Q=  0.000 lam=    -0.0
   5 B1g freq=    -0. Q= -0.000 lam=    -0.0 B1g freq=    -0. Q= -0.000 lam=    -0.0
   6 B3g freq=     0. Q=  0.000 lam=     0.0 B3u freq=     0. Q=  0.000 lam=     0.0
   7 B1u freq=     0. Q= -0.000 lam=     0.0 B2g freq=     0. Q= -0.000 lam=     0.0
   8 B3u freq=    95. Q=  0.000 lam=     0.0 B3u freq=    80. Q=  0.000 lam=     0.0
   9 B2u freq=   190. Q=  0.000 lam=     0.0 B2g freq=   187. Q=  0.000 lam=     0.0
  10 B2g freq=   224. Q= -0.000 lam=     0.0 B2u freq=   196. Q= -0.000 lam=     0.0
  11 Ag  freq=   336. Q= -1.049 lam=   184.5 Ag  freq=   342. Q= -1.066 lam=   194.0
  12 Au  freq=   393. Q= -0.000 lam=     0.0 Au  freq=   372. Q= -0.000 lam=     0.0
  13 B3g freq=   413. Q= -0.000 lam=     0.0 B1g freq=   374. Q= -0.000 lam=     0.0
  14 B1g freq=   415. Q=  0.000 lam=     0.0 B3u freq=   408. Q=  0.000 lam=     0.0
  15 B3u freq=   448. Q= -0.000 lam=     0.0 B3g freq=   415. Q= -0.000 lam=     0.0
  16 B2g freq=   555. Q= -0.000 lam=     0.0 B2g freq=   499. Q= -0.000 lam=     0.0
  17 B1u freq=   624. Q=  0.000 lam=     0.0 B3g freq=   588. Q=  0.000 lam=     0.0
  18 B3g freq=   627. Q=  0.000 lam=     0.0 B2u freq=   610. Q=  0.000 lam=     0.0
  19 B2u freq=   645. Q= -0.000 lam=     0.0 B1u freq=   613. Q= -0.000 lam=     0.0
  20 B2g freq=   680. Q= -0.000 lam=     0.0 B2g freq=   641. Q= -0.000 lam=     0.0
  21 B3u freq=   714. Q= -0.000 lam=     0.0 B3u freq=   646. Q= -0.000 lam=     0.0
  22 B3u freq=   748. Q=  0.000 lam=     0.0 Ag  freq=   747. Q=  0.659 lam=   162.3
  23 Ag  freq=   753. Q= -0.634 lam=   151.3 B3u freq=   771. Q= -0.000 lam=     0.0
  24 B2g freq=   802. Q= -0.000 lam=     0.0 Au  freq=   810. Q= -0.000 lam=     0.0
  25 Au  freq=   821. Q= -0.000 lam=     0.0 B1g freq=   814. Q= -0.000 lam=     0.0
  26 B1g freq=   851. Q=  0.000 lam=     0.0 B2g freq=   826. Q=  0.000 lam=     0.0
  27 B3u freq=   919. Q= -0.000 lam=     0.0 B2g freq=   953. Q= -0.000 lam=     0.0
  28 B2g freq=   920. Q= -0.000 lam=     0.0 B3u freq=   964. Q= -0.000 lam=     0.0
  29 Au  freq=   962. Q= -0.000 lam=     0.0 B1u freq=   971. Q= -0.000 lam=     0.0
  30 B1g freq=   977. Q= -0.000 lam=     0.0 Au  freq=  1000. Q= -0.000 lam=     0.0
  31 B2g freq=   995. Q=  0.000 lam=     0.0 Ag  freq=  1005. Q=  0.381 lam=    73.1
  32 B3u freq=   999. Q=  0.000 lam=     0.0 B1g freq=  1010. Q=  0.000 lam=     0.0
  33 B1u freq=  1010. Q= -0.000 lam=     0.0 B1u freq=  1015. Q= -0.000 lam=     0.0
  34 Ag  freq=  1019. Q= -0.392 lam=    78.4 B2g freq=  1026. Q= -0.000 lam=     0.0
  35 B1u freq=  1024. Q= -0.000 lam=     0.0 B3u freq=  1029. Q= -0.000 lam=     0.0
  36 B1u freq=  1064. Q=  0.000 lam=     0.0 B1u freq=  1029. Q=  0.000 lam=     0.0
  37 Ag  freq=  1064. Q=  0.178 lam=    16.9 Ag  freq=  1039. Q=  0.221 lam=    25.3
  38 B3g freq=  1106. Q= -0.000 lam=     0.0 B3g freq=  1120. Q= -0.000 lam=     0.0
  39 B2u freq=  1119. Q=  0.000 lam=     0.0 B2u freq=  1127. Q=  0.000 lam=     0.0
  40 B3g freq=  1182. Q=  0.000 lam=     0.0 B2u freq=  1185. Q=  0.000 lam=     0.0
  41 B2u freq=  1190. Q=  0.000 lam=     0.0 B3g freq=  1189. Q=  0.000 lam=     0.0
  42 B1u freq=  1205. Q= -0.000 lam=     0.0 B1u freq=  1213. Q= -0.000 lam=     0.0
  43 Ag  freq=  1239. Q=  0.410 lam=   103.9 Ag  freq=  1256. Q=  0.420 lam=   111.0
  44 Ag  freq=  1283. Q=  0.511 lam=   167.5 B2u freq=  1295. Q=  0.000 lam=     0.0
  45 B2u freq=  1300. Q=  0.000 lam=     0.0 Ag  freq=  1349. Q=  0.454 lam=   138.7
  46 B3g freq=  1324. Q= -0.000 lam=     0.0 B3g freq=  1349. Q= -0.000 lam=     0.0
  47 B3g freq=  1356. Q=  0.000 lam=     0.0 B3g freq=  1376. Q=  0.000 lam=     0.0
  48 B2u freq=  1379. Q=  0.000 lam=     0.0 B2u freq=  1388. Q=  0.000 lam=     0.0
  49 B2u freq=  1460. Q=  0.000 lam=     0.0 B2u freq=  1453. Q=  0.000 lam=     0.0
  50 B3g freq=  1494. Q=  0.000 lam=     0.0 B3g freq=  1477. Q=  0.000 lam=     0.0
  51 B1u freq=  1518. Q= -0.000 lam=     0.0 B1u freq=  1486. Q= -0.000 lam=     0.0
  52 Ag  freq=  1551. Q= -0.173 lam=    23.3 Ag  freq=  1531. Q= -0.175 lam=    23.4
  53 B2u freq=  1614. Q= -0.000 lam=     0.0 B3g freq=  1543. Q= -0.000 lam=     0.0
  54 B3g freq=  1628. Q=  0.000 lam=     0.0 B2u freq=  1557. Q=  0.000 lam=     0.0
  55 Ag  freq=  1641. Q= -0.642 lam=   338.0 B1u freq=  1613. Q= -0.000 lam=     0.0
  56 B1u freq=  1649. Q= -0.000 lam=     0.0 Ag  freq=  1655. Q= -0.638 lam=   336.7
  57 B1u freq=  3161. Q=  0.000 lam=     0.0 B1u freq=  3190. Q=  0.000 lam=     0.0
  58 Ag  freq=  3162. Q=  0.016 lam=     0.4 Ag  freq=  3191. Q=  0.010 lam=     0.2
  59 B3g freq=  3169. Q=  0.000 lam=     0.0 B3g freq=  3200. Q=  0.000 lam=     0.0
  60 B2u freq=  3171. Q= -0.000 lam=     0.0 B2u freq=  3201. Q= -0.000 lam=     0.0
  61 B1u freq=  3185. Q= -0.000 lam=     0.0 B1u freq=  3206. Q= -0.000 lam=     0.0
  62 Ag  freq=  3188. Q= -0.015 lam=     0.4 Ag  freq=  3207. Q= -0.024 lam=     0.9
  63 B3g freq=  3193. Q= -0.000 lam=     0.0 B3g freq=  3223. Q= -0.000 lam=     0.0
  64 B1u freq=  3196. Q= -0.000 lam=     0.0 B1u freq=  3224. Q= -0.000 lam=     0.0
  65 B2u freq=  3209. Q= -0.000 lam=     0.0 B2u freq=  3243. Q= -0.000 lam=     0.0
  66 Ag  freq=  3211. Q=  0.047 lam=     3.5 Ag  freq=  3244. Q=  0.043 lam=     2.9

 total reorg energy (cm**-1, kcal/mol)=     1068.     1069.      3.05      3.06
 Nber of molecules processed=           2
