 Enter ifcurve (0=recti, 1=orth curvi, 2=apprx curvi, -1 = skip
 And atom ordering flag, 0= never changes, 1= use the first order thenceforth,
  2= deduce it (does read on fail), 3= always read it
 Reading file: 
 ./PDI_1_C0S0.log                                                               
                                          
  Entering Gaussian System, Link 0=g16                                          
  
 Gaussian format, type: g94, g98, g03= F F F
  #P Geom=AllCheck Guess=TCheck SCRF=Check GenChk RB3LYP/6-311G(d,p) Fre    
 energy type= B3LYP   
 Original G94 input coords:
  6  1.079184  0.464837 -0.100358
  6  2.533280  0.051190  0.148490
  6  2.932592  0.081235  1.627376
  7  2.850798 -1.268806 -0.484941
  6  2.192118 -2.419973 -0.033986
  8  1.367327 -2.369137  0.861570
  6  2.538973 -3.706320 -0.690945
  6  1.912748 -4.866101 -0.276873
  6  2.219396 -6.089839 -0.876538
  6  3.156168 -6.194048 -1.903367
  6  3.486231 -7.476263 -2.540891
  6  2.883525 -8.673787 -2.160477
  6  3.203275 -9.888031 -2.771671
  6  4.139926 -9.937463 -3.785760
  6  4.455151-11.245299 -4.412751
  8  3.921723-12.280034 -4.070472
  7  5.418593-11.230156 -5.441203
  6  5.744349-12.494354 -6.069603
  6  5.024484-12.914609 -7.182424
  6  5.339067-14.129507 -7.784699
  6  6.368622-14.916891 -7.273874
  6  7.084747-14.488098 -6.158430
  6  6.773359-13.273860 -5.553168
  6  6.090070-10.081712 -5.906163
  8  6.908819-10.154100 -6.798798
  6  5.738083 -8.799886 -5.245799
  6  6.362952 -7.639066 -5.658284
  6  6.054970 -6.416386 -5.057954
  6  5.117781 -6.314964 -4.031604
  6  4.787522 -5.032778 -3.394066
  6  5.388848 -3.833683 -3.772856
  6  5.068113 -2.619973 -3.160517
  6  4.131088 -2.572757 -2.146042
  6  3.811342 -1.268095 -1.514379
  8  4.358252 -0.240869 -1.873017
  6  3.495209 -3.761864 -1.727994
  6  3.815848 -5.007340 -2.347367
  6  4.458399 -7.502872 -3.588160
  6  4.779444 -8.749246 -4.207809
  1  0.938485  1.492616  0.245116
  1  0.379738 -0.179351  0.430754
  1  0.846760  0.437982 -1.168091
  1  3.177827  0.742682 -0.389458
  1  2.307625 -0.578635  2.227605
  1  2.824438  1.102113  2.003667
  1  3.978814 -0.209997  1.751446
  1  1.181973 -4.805413  0.519633
  1  1.703774 -6.970313 -0.519005
  1  2.144496 -8.684517 -1.371441
  1  2.724529-10.808756 -2.462705
  1  4.226096-12.293762 -7.570563
  1  4.779738-14.459825 -8.652321
  1  6.612350-15.862718 -7.744048
  1  7.886342-15.097987 -5.758173
  1  7.323097-12.929928 -4.685395
  1  7.094182 -7.698652 -6.454612
  1  6.569580 -5.534826 -5.414153
  1  6.127944 -3.820963 -4.561827
  1  5.546507 -1.699168 -3.469187
 nber atoms=          59
  SCF Done:  E(RB3LYP) =  -1680.49799675     A.U. after    1 cycles             
  
          23          40 "  -1680.49799675"
After scan for Atom:   Atom  AN      X      Y      Z        X      Y      Z        X      Y      Z   
After scan for Atom:   Atom  AN      X      Y      Z        X      Y      Z        X      Y      Z   
After scan for Atom:   Atom  AN      X      Y      Z        X      Y      Z        X      Y      Z   
After scan for Atom:   Atom  AN      X      Y      Z        X      Y      Z        X      Y      Z   
After scan for Atom:   Atom  AN      X      Y      Z        X      Y      Z        X      Y      Z   
After scan for Atom:   Atom  AN      X      Y      Z        X      Y      Z        X      Y      Z   
After scan for Atom:   Atom  AN      X      Y      Z        X      Y      Z        X      Y      Z   
After scan for Atom:   Atom  AN      X      Y      Z        X      Y      Z        X      Y      Z   
After scan for Atom:   Atom  AN      X      Y      Z        X      Y      Z        X      Y      Z   
After scan for Atom:   Atom  AN      X      Y      Z        X      Y      Z        X      Y      Z   
After scan for Atom:   Atom  AN      X      Y      Z        X      Y      Z        X      Y      Z   
After scan for Atom:   Atom  AN      X      Y      Z        X      Y      Z        X      Y      Z   
After scan for Atom:   Atom  AN      X      Y      Z        X      Y      Z        X      Y      Z   
After scan for Atom:   Atom  AN      X      Y      Z        X      Y      Z        X      Y      Z   
After scan for Atom:   Atom  AN      X      Y      Z        X      Y      Z        X      Y      Z   
After scan for Atom:   Atom  AN      X      Y      Z        X      Y      Z        X      Y      Z   
After scan for Atom:   Atom  AN      X      Y      Z        X      Y      Z        X      Y      Z   
After scan for Atom:   Atom  AN      X      Y      Z        X      Y      Z        X      Y      Z   
After scan for Atom:   Atom  AN      X      Y      Z        X      Y      Z        X      Y      Z   
After scan for Atom:   Atom  AN      X      Y      Z        X      Y      Z        X      Y      Z   
After scan for Atom:   Atom  AN      X      Y      Z        X      Y      Z        X      Y      Z   
After scan for Atom:   Atom  AN      X      Y      Z        X      Y      Z        X      Y      Z   
After scan for Atom:   Atom  AN      X      Y      Z        X      Y      Z        X      Y      Z   
After scan for Atom:   Atom  AN      X      Y      Z        X      Y      Z        X      Y      Z   
After scan for Atom:   Atom  AN      X      Y      Z        X      Y      Z        X      Y      Z   
After scan for Atom:   Atom  AN      X      Y      Z        X      Y      Z        X      Y      Z   
After scan for Atom:   Atom  AN      X      Y      Z        X      Y      Z        X      Y      Z   
After scan for Atom:   Atom  AN      X      Y      Z        X      Y      Z        X      Y      Z   
After scan for Atom:   Atom  AN      X      Y      Z        X      Y      Z        X      Y      Z   
After scan for Atom:   Atom  AN      X      Y      Z        X      Y      Z        X      Y      Z   
After scan for Atom:   Atom  AN      X      Y      Z        X      Y      Z        X      Y      Z   
After scan for Atom:   Atom  AN      X      Y      Z        X      Y      Z        X      Y      Z   
After scan for Atom:   Atom  AN      X      Y      Z        X      Y      Z        X      Y      Z   
After scan for Atom:   Atom  AN      X      Y      Z        X      Y      Z        X      Y      Z   
After scan for Atom:   Atom  AN      X      Y      Z        X      Y      Z        X      Y      Z   
After scan for Atom:   Atom  AN      X      Y      Z        X      Y      Z        X      Y      Z   
After scan for Atom:   Atom  AN      X      Y      Z        X      Y      Z        X      Y      Z   
After scan for Atom:   Atom  AN      X      Y      Z        X      Y      Z        X      Y      Z   
After scan for Atom:   Atom  AN      X      Y      Z        X      Y      Z        X      Y      Z   
After scan for Atom:   Atom  AN      X      Y      Z        X      Y      Z        X      Y      Z   
After scan for Atom:   Atom  AN      X      Y      Z        X      Y      Z        X      Y      Z   
After scan for Atom:   Atom  AN      X      Y      Z        X      Y      Z        X      Y      Z   
After scan for Atom:   Atom  AN      X      Y      Z        X      Y      Z        X      Y      Z   
After scan for Atom:   Atom  AN      X      Y      Z        X      Y      Z        X      Y      Z   
After scan for Atom:   Atom  AN      X      Y      Z        X      Y      Z        X      Y      Z   
After scan for Atom:   Atom  AN      X      Y      Z        X      Y      Z        X      Y      Z   
After scan for Atom:   Atom  AN      X      Y      Z        X      Y      Z        X      Y      Z   
After scan for Atom:   Atom  AN      X      Y      Z        X      Y      Z        X      Y      Z   
After scan for Atom:   Atom  AN      X      Y      Z        X      Y      Z        X      Y      Z   
After scan for Atom:   Atom  AN      X      Y      Z        X      Y      Z        X      Y      Z   
After scan for Atom:   Atom  AN      X      Y      Z        X      Y      Z        X      Y      Z   
After scan for Atom:   Atom  AN      X      Y      Z        X      Y      Z        X      Y      Z   
After scan for Atom:   Atom  AN      X      Y      Z        X      Y      Z        X      Y      Z   
After scan for Atom:   Atom  AN      X      Y      Z        X      Y      Z        X      Y      Z   
After scan for Atom:   Atom  AN      X      Y      Z        X      Y      Z        X      Y      Z   
After scan for Atom:   Atom  AN      X      Y      Z        X      Y      Z        X      Y      Z   
After scan for Atom:   Atom  AN      X      Y      Z        X      Y      Z        X      Y      Z   
 g94    frequencies=
     0.0    0.0    0.0    0.0    0.0    0.0   10.6   16.8   22.2   35.5
    52.8   53.7   63.2   75.1   86.5  102.8  115.5  127.6  162.9  163.6
   183.1  189.1  197.3  220.0  234.1  234.8  248.8  263.4  271.8  293.0
   305.3  314.8  345.4  359.5  391.5  394.8  419.2  431.0  435.7  438.1
   441.2  447.9  448.5  465.5  480.1  480.2  483.2  505.6  517.2  520.7
   535.0  547.8  577.8  584.1  596.5  623.1  631.6  633.8  648.2  658.6
   666.7  706.6  714.9  716.5  722.9  742.4  750.4  763.1  763.5  772.3
   785.6  800.2  803.4  817.0  824.9  839.0  846.7  857.9  864.9  865.4
   870.1  872.1  905.6  925.1  934.8  945.4  957.1  976.1  979.3  986.6
   992.5  996.7 1001.3 1002.8 1005.7 1020.9 1047.7 1063.3 1081.5 1100.0
  1100.8 1150.3 1155.5 1160.7 1165.5 1171.9 1182.8 1193.9 1195.6 1201.2
  1210.7 1220.5 1222.4 1240.6 1251.4 1257.6 1269.2 1309.0 1316.2 1326.1
  1326.5 1336.7 1348.2 1356.2 1368.7 1374.8 1382.3 1385.6 1400.5 1406.9
  1416.7 1429.0 1436.7 1454.8 1476.9 1485.2 1485.2 1491.3 1497.9 1505.3
  1506.1 1522.6 1527.7 1542.7 1560.6 1604.0 1614.9 1619.9 1631.5 1631.6
  1636.1 1643.8 1649.0 1713.0 1734.6 1751.0 1768.5 3034.6 3038.7 3092.4
  3095.6 3113.1 3133.1 3143.5 3165.8 3175.5 3184.1 3192.1 3193.6 3193.8
  3196.7 3200.8 3201.1 3208.1 3208.4 3218.0 3218.2
 g94    symmetries=
                                                 A      A      A      A
       A      A      A      A      A      A      A      A      A      A
       A      A      A      A      A      A      A      A      A      A
       A      A      A      A      A      A      A      A      A      A
       A      A      A      A      A      A      A      A      A      A
       A      A      A      A      A      A      A      A      A      A
       A      A      A      A      A      A      A      A      A      A
       A      A      A      A      A      A      A      A      A      A
       A      A      A      A      A      A      A      A      A      A
       A      A      A      A      A      A      A      A      A      A
       A      A      A      A      A      A      A      A      A      A
       A      A      A      A      A      A      A      A      A      A
       A      A      A      A      A      A      A      A      A      A
       A      A      A      A      A      A      A      A      A      A
       A      A      A      A      A      A      A      A      A      A
       A      A      A      A      A      A      A      A      A      A
       A      A      A      A      A      A      A      A      A      A
       A      A      A      A      A      A      A
 atomic masses:
 12.0000 12.0000 12.0000 14.0031 12.0000 15.9949 12.0000 12.0000 12.0000 12.0000
 12.0000 12.0000 12.0000 12.0000 12.0000 15.9949 14.0031 12.0000 12.0000 12.0000
 12.0000 12.0000 12.0000 12.0000 15.9949 12.0000 12.0000 12.0000 12.0000 12.0000
 12.0000 12.0000 12.0000 12.0000 15.9949 12.0000 12.0000 12.0000 12.0000  1.0078
  1.0078  1.0078  1.0078  1.0078  1.0078  1.0078  1.0078  1.0078  1.0078  1.0078
  1.0078  1.0078  1.0078  1.0078  1.0078  1.0078  1.0078  1.0078  1.0078
 looking for force constants in 
 ./PDI_1_C0S0.fchk                                                              
  
 Cartesian Force Constants                  R   N=       15753                  
  
 n3=         177       15753
 g94-fc frequencies=
    -5.9   -1.7   -0.9   -0.0    0.0    0.0   10.6   16.8   22.2   35.5
    52.8   53.7   63.2   75.1   86.5  102.8  115.5  127.6  162.9  163.6
   183.2  189.1  197.3  220.0  234.1  234.9  248.8  263.4  271.8  293.0
   305.4  314.8  345.5  359.5  391.5  394.8  419.2  431.0  435.7  438.1
   441.2  447.9  448.5  465.5  480.2  480.2  483.2  505.6  517.2  520.7
   535.0  547.8  577.8  584.2  596.5  623.1  631.6  633.8  648.2  658.6
   666.7  706.7  714.9  716.5  722.9  742.4  750.4  763.1  763.5  772.3
   785.6  800.2  803.4  817.1  824.9  839.1  846.7  857.9  864.9  865.4
   870.1  872.1  905.6  925.1  934.8  945.4  957.1  976.1  979.3  986.6
   992.5  996.7 1001.3 1002.9 1005.7 1020.9 1047.7 1063.4 1081.5 1100.0
  1100.8 1150.3 1155.5 1160.7 1165.6 1171.9 1182.9 1194.0 1195.6 1201.2
  1210.7 1220.5 1222.4 1240.6 1251.4 1257.6 1269.2 1309.0 1316.2 1326.1
  1326.5 1336.7 1348.3 1356.3 1368.7 1374.8 1382.3 1385.6 1400.5 1406.9
  1416.8 1429.0 1436.8 1454.9 1477.0 1485.2 1485.3 1491.3 1497.9 1505.3
  1506.1 1522.6 1527.8 1542.7 1560.6 1604.1 1614.9 1620.0 1631.5 1631.6
  1636.1 1643.8 1649.1 1713.1 1734.6 1751.1 1768.5 3034.6 3038.8 3092.5
  3095.7 3113.2 3133.2 3143.6 3165.8 3175.5 3184.2 3192.2 3193.6 3193.8
  3196.8 3200.9 3201.2 3208.1 3208.4 3218.0 3218.2
 at 99999: n3=         177
 symm operator            1 :  F  nop=           0
 symm operator            2 :  F  nop=           0
 symm operator            3 :  F  nop=           0
 symm operator            4 :  F  nop=           0
 symm operator            5 :  F  nop=           0
 symm operator            6 :  F  nop=           0
 symm operator            7 :  F  nop=           0
 The point group of the molecule is  C1
 Symmetry rotation matrix:
   1.00000   0.00000   0.00000
   0.00000   1.00000   0.00000
   0.00000   0.00000   1.00000

 Projecting out zero-frequency components
 generating redundant internal coords
         300        3600          59
 search for int coords
   1 str   2   1   1.532
   2 str   3   2   1.532
   3 str   4   2   1.498
   4 str   5   4   1.401
   5 str   6   5   1.219
   6 str   7   5   1.485
   7 str   8   7   1.382
   8 str   9   8   1.397
   9 str  10   9   1.394
  10 str  11  10   1.470
  11 str  12  11   1.394
  12 str  13  12   1.396
  13 str  14  13   1.381
  14 str  15  14   1.484
  15 str  16  15   1.213
  16 str  17  15   1.409
  17 str  18  17   1.449
  18 str  19  18   1.390
  19 str  20  19   1.392
  20 str  21  20   1.393
  21 str  22  21   1.393
  22 str  23  18   1.390
  23 str  23  22   1.392
  24 str  24  17   1.409
  25 str  25  24   1.213
  26 str  26  24   1.484
  27 str  27  26   1.381
  28 str  28  27   1.396
  29 str  29  28   1.394
  30 str  30  29   1.470
  31 str  31  30   1.394
  32 str  32  31   1.397
  33 str  33  32   1.382
  34 str  34   4   1.408
  35 str  34  33   1.484
  36 str  35  34   1.218
  37 str  36   7   1.412
  38 str  36  33   1.412
  39 str  37  10   1.428
  40 str  37  30   1.428
  41 str  37  36   1.427
  42 str  38  11   1.429
  43 str  38  29   1.429
  44 str  39  14   1.414
  45 str  39  26   1.414
  46 str  39  38   1.428
  47 str  40   1   1.093
  48 str  41   1   1.089
  49 str  42   1   1.093
  50 str  43   2   1.088
  51 str  44   3   1.089
  52 str  45   3   1.093
  53 str  46   3   1.093
  54 str  47   8   1.083
  55 str  48   9   1.081
  56 str  49  12   1.081
  57 str  50  13   1.083
  58 str  51  19   1.083
  59 str  52  20   1.084
  60 str  53  21   1.084
  61 str  54  22   1.084
  62 str  55  23   1.083
  63 str  56  27   1.083
  64 str  57  28   1.081
  65 str  58  31   1.081
  66 str  59  32   1.083
 nber stretches=          66
  67 ben   1   2   3
  68 prop tor   1   2   3  44
  69 prop tor   1   2   3  45
  70 prop tor   1   2   3  46
  71 ben   1   2   4
  72 prop tor   1   2   4   5
  73 prop tor   1   2   4  34
  74 ben   1   2  43
  75 ben   2   1  40
  76 ben   2   1  41
  77 ben   2   1  42
  78 ben   2   3  44
  79 ben   2   3  45
  80 ben   2   3  46
  81 ben   2   4   5
  82 prop tor   2   4   5   6
  83 prop tor   2   4   5   7
  84 ben   2   4  34
  85 prop tor   2   4  34  33
  86 prop tor   2   4  34  35
  87 ben   3   2   4
  88 prop tor   3   2   4   5
  89 prop tor   3   2   4  34
  90 ben   3   2  43
  91 prop tor   4   2   3  44
  92 prop tor   4   2   3  45
  93 prop tor   4   2   3  46
  94 ben   4   2  43
  95 ben   4   5   6
  96 ben   4   5   7
  97 prop tor   4   5   7   8
  98 prop tor   4   5   7  36
  99 ben   4  34  33
 100 ben   4  34  35
 101 ben   5   4  34
 102 prop tor   5   4  34  33
 103 prop tor   5   4  34  35
 104 ben   5   7   8
 105 prop tor   5   7   8   9
 106 prop tor   5   7   8  47
 107 ben   5   7  36
 108 prop tor   5   7  36  33
 109 prop tor   5   7  36  37
 110 ben   6   5   7
 111 prop tor   6   5   7   8
 112 prop tor   6   5   7  36
 113 ben   7   8   9
 114 prop tor   7   8   9  10
 115 prop tor   7   8   9  48
 116 ben   7   8  47
 117 ben   7  36  33
 118 ben   7  36  37
 119 prop tor   7  36  37  10
 120 prop tor   7  36  37  30
 121 ben   8   7  36
 122 prop tor   8   7  36  33
 123 prop tor   8   7  36  37
 124 ben   8   9  10
 125 prop tor   8   9  10  11
 126 prop tor   8   9  10  37
 127 ben   8   9  48
 128 ben   9   8  47
 129 ben   9  10  11
 130 prop tor   9  10  11  12
 131 prop tor   9  10  11  38
 132 ben   9  10  37
 133 prop tor   9  10  37  30
 134 prop tor   9  10  37  36
 135 ben  10   9  48
 136 ben  10  11  12
 137 prop tor  10  11  12  13
 138 prop tor  10  11  12  49
 139 ben  10  11  38
 140 prop tor  10  11  38  29
 141 prop tor  10  11  38  39
 142 ben  10  37  30
 143 ben  10  37  36
 144 ben  11  10  37
 145 prop tor  11  10  37  30
 146 prop tor  11  10  37  36
 147 ben  11  12  13
 148 prop tor  11  12  13  14
 149 prop tor  11  12  13  50
 150 ben  11  12  49
 151 ben  11  38  29
 152 ben  11  38  39
 153 prop tor  11  38  39  14
 154 prop tor  11  38  39  26
 155 ben  12  11  38
 156 prop tor  12  11  38  29
 157 prop tor  12  11  38  39
 158 ben  12  13  14
 159 prop tor  12  13  14  15
 160 prop tor  12  13  14  39
 161 ben  12  13  50
 162 ben  13  12  49
 163 ben  13  14  15
 164 prop tor  13  14  15  16
 165 prop tor  13  14  15  17
 166 ben  13  14  39
 167 prop tor  13  14  39  26
 168 prop tor  13  14  39  38
 169 ben  14  13  50
 170 ben  14  15  16
 171 ben  14  15  17
 172 prop tor  14  15  17  18
 173 prop tor  14  15  17  24
 174 ben  14  39  26
 175 ben  14  39  38
 176 ben  15  14  39
 177 prop tor  15  14  39  26
 178 prop tor  15  14  39  38
 179 ben  15  17  18
 180 prop tor  15  17  18  19
 181 prop tor  15  17  18  23
 182 ben  15  17  24
 183 prop tor  15  17  24  25
 184 prop tor  15  17  24  26
 185 ben  16  15  17
 186 prop tor  16  15  17  18
 187 prop tor  16  15  17  24
 188 ben  17  18  19
 189 prop tor  17  18  19  20
 190 prop tor  17  18  19  51
 191 ben  17  18  23
 192 prop tor  17  18  23  22
 193 prop tor  17  18  23  55
 194 ben  17  24  25
 195 ben  17  24  26
 196 prop tor  17  24  26  27
 197 prop tor  17  24  26  39
 198 ben  18  17  24
 199 prop tor  18  17  24  25
 200 prop tor  18  17  24  26
 201 ben  18  19  20
 202 prop tor  18  19  20  21
 203 prop tor  18  19  20  52
 204 ben  18  19  51
 205 ben  18  23  22
 206 ben  18  23  55
 207 ben  19  18  23
 208 prop tor  19  18  23  22
 209 prop tor  19  18  23  55
 210 ben  19  20  21
 211 prop tor  19  20  21  22
 212 prop tor  19  20  21  53
 213 ben  19  20  52
 214 ben  20  19  51
 215 ben  20  21  22
 216 prop tor  20  21  22  23
 217 prop tor  20  21  22  54
 218 ben  20  21  53
 219 ben  21  20  52
 220 ben  21  22  23
 221 prop tor  21  22  23  18
 222 prop tor  21  22  23  55
 223 ben  21  22  54
 224 ben  22  21  53
 225 ben  22  23  55
 226 prop tor  23  18  19  20
 227 prop tor  23  18  19  51
 228 ben  23  22  54
 229 prop tor  24  17  18  19
 230 prop tor  24  17  18  23
 231 ben  24  26  27
 232 prop tor  24  26  27  28
 233 prop tor  24  26  27  56
 234 ben  24  26  39
 235 prop tor  24  26  39  14
 236 prop tor  24  26  39  38
 237 ben  25  24  26
 238 prop tor  25  24  26  27
 239 prop tor  25  24  26  39
 240 ben  26  27  28
 241 prop tor  26  27  28  29
 242 prop tor  26  27  28  57
 243 ben  26  27  56
 244 ben  26  39  38
 245 ben  27  26  39
 246 prop tor  27  26  39  14
 247 prop tor  27  26  39  38
 248 ben  27  28  29
 249 prop tor  27  28  29  30
 250 prop tor  27  28  29  38
 251 ben  27  28  57
 252 ben  28  27  56
 253 ben  28  29  30
 254 prop tor  28  29  30  31
 255 prop tor  28  29  30  37
 256 ben  28  29  38
 257 prop tor  28  29  38  11
 258 prop tor  28  29  38  39
 259 ben  29  28  57
 260 ben  29  30  31
 261 prop tor  29  30  31  32
 262 prop tor  29  30  31  58
 263 ben  29  30  37
 264 prop tor  29  30  37  10
 265 prop tor  29  30  37  36
 266 ben  29  38  39
 267 prop tor  29  38  39  14
 268 prop tor  29  38  39  26
 269 ben  30  29  38
 270 prop tor  30  29  38  11
 271 prop tor  30  29  38  39
 272 ben  30  31  32
 273 prop tor  30  31  32  33
 274 prop tor  30  31  32  59
 275 ben  30  31  58
 276 ben  30  37  36
 277 ben  31  30  37
 278 prop tor  31  30  37  10
 279 prop tor  31  30  37  36
 280 ben  31  32  33
 281 prop tor  31  32  33  34
 282 prop tor  31  32  33  36
 283 ben  31  32  59
 284 ben  32  31  58
 285 ben  32  33  34
 286 prop tor  32  33  34   4
 287 prop tor  32  33  34  35
 288 ben  32  33  36
 289 prop tor  32  33  36   7
 290 prop tor  32  33  36  37
 291 ben  33  32  59
 292 ben  33  34  35
 293 ben  33  36  37
 294 prop tor  33  36  37  10
 295 prop tor  33  36  37  30
 296 prop tor  34   4   5   6
 297 prop tor  34   4   5   7
 298 ben  34  33  36
 299 prop tor  34  33  36   7
 300 prop tor  34  33  36  37
 301 prop tor  36   7   8   9
 302 prop tor  36   7   8  47
 303 prop tor  36  33  34   4
 304 prop tor  36  33  34  35
 305 prop tor  37  10  11  12
 306 prop tor  37  10  11  38
 307 prop tor  37  30  31  32
 308 prop tor  37  30  31  58
 309 prop tor  38  11  12  13
 310 prop tor  38  11  12  49
 311 prop tor  38  29  30  31
 312 prop tor  38  29  30  37
 313 prop tor  39  14  15  16
 314 prop tor  39  14  15  17
 315 prop tor  39  26  27  28
 316 prop tor  39  26  27  56
 317 prop tor  40   1   2   3
 318 prop tor  40   1   2   4
 319 prop tor  40   1   2  43
 320 ben  40   1  41
 321 ben  40   1  42
 322 prop tor  41   1   2   3
 323 prop tor  41   1   2   4
 324 prop tor  41   1   2  43
 325 ben  41   1  42
 326 prop tor  42   1   2   3
 327 prop tor  42   1   2   4
 328 prop tor  42   1   2  43
 329 prop tor  43   2   3  44
 330 prop tor  43   2   3  45
 331 prop tor  43   2   3  46
 332 prop tor  43   2   4   5
 333 prop tor  43   2   4  34
 334 ben  44   3  45
 335 ben  44   3  46
 336 ben  45   3  46
 337 prop tor  47   8   9  10
 338 prop tor  47   8   9  48
 339 prop tor  48   9  10  11
 340 prop tor  48   9  10  37
 341 prop tor  49  12  13  14
 342 prop tor  49  12  13  50
 343 prop tor  50  13  14  15
 344 prop tor  50  13  14  39
 345 prop tor  51  19  20  21
 346 prop tor  51  19  20  52
 347 prop tor  52  20  21  22
 348 prop tor  52  20  21  53
 349 prop tor  53  21  22  23
 350 prop tor  53  21  22  54
 351 prop tor  54  22  23  18
 352 prop tor  54  22  23  55
 353 prop tor  56  27  28  29
 354 prop tor  56  27  28  57
 355 prop tor  57  28  29  30
 356 prop tor  57  28  29  38
 357 prop tor  58  31  32  33
 358 prop tor  58  31  32  59
 359 prop tor  59  32  33  34
 360 prop tor  59  32  33  36
 nber bend=             114
 nber lin bend=           0
 nber prop tor=         180
 nber impr tor=           0
 nber tot redund int=         360
 Eigenvalues of G in red int coords
    Gval -0.00000000 -0.00000000 -0.00000000 -0.00000000 -0.00000000 -0.00000000 -0.00000000 -0.00000000
    Gval -0.00000000 -0.00000000 -0.00000000 -0.00000000 -0.00000000 -0.00000000 -0.00000000 -0.00000000
    Gval -0.00000000 -0.00000000 -0.00000000 -0.00000000 -0.00000000 -0.00000000 -0.00000000 -0.00000000
    Gval -0.00000000 -0.00000000 -0.00000000 -0.00000000 -0.00000000 -0.00000000 -0.00000000 -0.00000000
    Gval -0.00000000 -0.00000000 -0.00000000 -0.00000000 -0.00000000 -0.00000000 -0.00000000 -0.00000000
    Gval -0.00000000 -0.00000000 -0.00000000 -0.00000000 -0.00000000 -0.00000000 -0.00000000 -0.00000000
    Gval -0.00000000 -0.00000000 -0.00000000 -0.00000000 -0.00000000 -0.00000000 -0.00000000 -0.00000000
    Gval -0.00000000 -0.00000000 -0.00000000 -0.00000000 -0.00000000 -0.00000000 -0.00000000 -0.00000000
    Gval -0.00000000 -0.00000000 -0.00000000 -0.00000000 -0.00000000 -0.00000000 -0.00000000 -0.00000000
    Gval -0.00000000 -0.00000000 -0.00000000 -0.00000000 -0.00000000 -0.00000000 -0.00000000 -0.00000000
    Gval -0.00000000 -0.00000000 -0.00000000 -0.00000000 -0.00000000 -0.00000000 -0.00000000 -0.00000000
    Gval -0.00000000 -0.00000000 -0.00000000  0.00000000  0.00000000  0.00000000  0.00000000  0.00000000
    Gval  0.00000000  0.00000000  0.00000000  0.00000000  0.00000000  0.00000000  0.00000000  0.00000000
    Gval  0.00000000  0.00000000  0.00000000  0.00000000  0.00000000  0.00000000  0.00000000  0.00000000
    Gval  0.00000000  0.00000000  0.00000000  0.00000000  0.00000000  0.00000000  0.00000000  0.00000000
    Gval  0.00000000  0.00000000  0.00000000  0.00000000  0.00000000  0.00000000  0.00000000  0.00000000
    Gval  0.00000000  0.00000000  0.00000000  0.00000000  0.00000000  0.00000000  0.00000000  0.00000000
    Gval  0.00000000  0.00000000  0.00000000  0.00000000  0.00000000  0.00000000  0.00000000  0.00000000
    Gval  0.00000000  0.00000000  0.00000000  0.00000000  0.00000000  0.00000000  0.00000000  0.00000000
    Gval  0.00000000  0.00000000  0.00000000  0.00000000  0.00000000  0.00000000  0.00000000  0.00000000
    Gval  0.00000000  0.00000000  0.00000000  0.00000000  0.00000000  0.00000000  0.00000000  0.00000000
    Gval  0.00000000  0.00000000  0.00000000  0.00000000  0.00000000  0.00000000  0.00000000  0.00000000
    Gval  0.00000000  0.00000000  0.00000000  0.00000000  0.00000000  0.00000000  0.00000000  0.00000000
    Gval  0.00000000  0.00000000  0.00000000  0.00000000  0.00000000  0.00000068  0.00000124  0.00000201
    Gval  0.00000271  0.00000492  0.00000551  0.00000654  0.00000928  0.00000971  0.00001118  0.00001358
    Gval  0.00001561  0.00001647  0.00001721  0.00001784  0.00001836  0.00002169  0.00002393  0.00002411
    Gval  0.00002437  0.00002529  0.00002537  0.00002995  0.00003506  0.00003873  0.00003994  0.00004308
    Gval  0.00004457  0.00004920  0.00005181  0.00005256  0.00005395  0.00005579  0.00005979  0.00006002
    Gval  0.00006325  0.00006823  0.00007079  0.00007428  0.00007959  0.00008138  0.00008245  0.00008432
    Gval  0.00008687  0.00008810  0.00009314  0.00009454  0.00009801  0.00011215  0.00011741  0.00011755
    Gval  0.00012270  0.00013598  0.00013701  0.00013752  0.00014053  0.00015204  0.00015783  0.00016032
    Gval  0.00016051  0.00018051  0.00018820  0.00019121  0.00020449  0.00022264  0.00022889  0.00023011
    Gval  0.00026764  0.00027055  0.00028302  0.00028346  0.00029065  0.00029236  0.00031377  0.00034197
    Gval  0.00035823  0.00036999  0.00037928  0.00038294  0.00039262  0.00039377  0.00039917  0.00042082
    Gval  0.00042850  0.00042986  0.00043571  0.00044170  0.00044312  0.00046215  0.00046567  0.00046603
    Gval  0.00048090  0.00049194  0.00051559  0.00053386  0.00053718  0.00054373  0.00055412  0.00055595
    Gval  0.00055603  0.00057155  0.00059306  0.00059413  0.00059865  0.00059944  0.00059970  0.00060002
    Gval  0.00060220  0.00060471  0.00062636  0.00062867  0.00064190  0.00064560  0.00064612  0.00064810
    Gval  0.00066118  0.00067092  0.00069421  0.00069787  0.00079429  0.00079547  0.00082296  0.00094165
    Gval  0.00099531  0.00103973  0.00109538  0.00109635  0.00109707  0.00109760  0.00111155  0.00113895
    Gval  0.00114389  0.00116247  0.00116257  0.00116296  0.00116318  0.00117165  0.00117223  0.00117288
    Gval  0.00117352  0.00120290  0.00126185  0.00129517  0.00137468  0.00144364  0.00149539  0.00156178
    Gval  0.00172337  0.00177838  0.00178860  0.00191221  0.00229268  0.00235190  0.00235570  0.00253489
    Gval  0.00253639  0.00256396  0.00278638  0.00292293  0.00302362  0.00304219  0.00308152  0.00309677
    Gval  0.00311847  0.00365556  0.00365749  0.00370416  0.00370586  0.00377460  0.00394298  0.00407734
  6.783502000158073E-007  6.783502000158073E-007
  1.235353319500756E-006  6.783502000158073E-007
  2.006194373612548E-006  6.783502000158073E-007
  2.708285151562906E-006  6.783502000158073E-007
  4.922175764531476E-006  6.783502000158073E-007
  5.514096359178344E-006  6.783502000158073E-007
  6.544124282477755E-006  6.783502000158073E-007
  9.281427841111892E-006  6.783502000158073E-007
  9.714230553518997E-006  6.783502000158073E-007
  1.117753636179999E-005  6.783502000158073E-007
  1.358467683425429E-005  6.783502000158073E-007
  1.560720652823642E-005  6.783502000158073E-007
  1.646585956111221E-005  6.783502000158073E-007
  1.721316861882041E-005  6.783502000158073E-007
  1.783615411793221E-005  6.783502000158073E-007
  1.836407588177403E-005  6.783502000158073E-007
  2.169207003957221E-005  6.783502000158073E-007
  2.393301746945950E-005  6.783502000158073E-007
  2.411119864085824E-005  6.783502000158073E-007
  2.437084984259166E-005  6.783502000158073E-007
  2.528992292546560E-005  6.783502000158073E-007
  2.537302440811985E-005  6.783502000158073E-007
  2.994953585563773E-005  6.783502000158073E-007
  3.505574611013368E-005  6.783502000158073E-007
  3.872572571698298E-005  6.783502000158073E-007
  3.993556665888057E-005  6.783502000158073E-007
  4.307700423178602E-005  6.783502000158073E-007
  4.457364820495927E-005  6.783502000158073E-007
  4.919929796190369E-005  6.783502000158073E-007
  5.180526898229782E-005  6.783502000158073E-007
  5.256091833961309E-005  6.783502000158073E-007
  5.394543258404566E-005  6.783502000158073E-007
  5.578875927142074E-005  6.783502000158073E-007
  5.979179886515996E-005  6.783502000158073E-007
  6.002197060892468E-005  6.783502000158073E-007
  6.324551017282203E-005  6.783502000158073E-007
  6.822685639312472E-005  6.783502000158073E-007
  7.078785115827006E-005  6.783502000158073E-007
  7.428474795497837E-005  6.783502000158073E-007
  7.959094059299711E-005  6.783502000158073E-007
  8.138118760494163E-005  6.783502000158073E-007
  8.245088161579901E-005  6.783502000158073E-007
  8.432070153987504E-005  6.783502000158073E-007
  8.686845792244512E-005  6.783502000158073E-007
  8.809551742742017E-005  6.783502000158073E-007
  9.314112647431288E-005  6.783502000158073E-007
  9.454057909445471E-005  6.783502000158073E-007
  9.800635011281666E-005  6.783502000158073E-007
  1.121480132624371E-004  6.783502000158073E-007
  1.174058695242327E-004  6.783502000158073E-007
  1.175458647964407E-004  6.783502000158073E-007
  1.227010010687828E-004  6.783502000158073E-007
  1.359815860301164E-004  6.783502000158073E-007
  1.370090574605065E-004  6.783502000158073E-007
  1.375245690791999E-004  6.783502000158073E-007
  1.405332932297034E-004  6.783502000158073E-007
  1.520363256559725E-004  6.783502000158073E-007
  1.578317683285196E-004  6.783502000158073E-007
  1.603177390723266E-004  6.783502000158073E-007
  1.605096393308214E-004  6.783502000158073E-007
  1.805121704004774E-004  6.783502000158073E-007
  1.882019875132484E-004  6.783502000158073E-007
  1.912069369520775E-004  6.783502000158073E-007
  2.044897570747121E-004  6.783502000158073E-007
  2.226435829848383E-004  6.783502000158073E-007
  2.288928919315189E-004  6.783502000158073E-007
  2.301069082517060E-004  6.783502000158073E-007
  2.676357330322184E-004  6.783502000158073E-007
  2.705500952159091E-004  6.783502000158073E-007
  2.830219664575636E-004  6.783502000158073E-007
  2.834608004623975E-004  6.783502000158073E-007
  2.906466315204687E-004  6.783502000158073E-007
  2.923632515878308E-004  6.783502000158073E-007
  3.137703064861012E-004  6.783502000158073E-007
  3.419743047452815E-004  6.783502000158073E-007
  3.582301152228825E-004  6.783502000158073E-007
  3.699929931862062E-004  6.783502000158073E-007
  3.792816272015577E-004  6.783502000158073E-007
  3.829406994128872E-004  6.783502000158073E-007
  3.926230691216017E-004  6.783502000158073E-007
  3.937691366870543E-004  6.783502000158073E-007
  3.991695121825406E-004  6.783502000158073E-007
  4.208245571173454E-004  6.783502000158073E-007
  4.285010665663881E-004  6.783502000158073E-007
  4.298630852721803E-004  6.783502000158073E-007
  4.357097477142734E-004  6.783502000158073E-007
  4.417020092799444E-004  6.783502000158073E-007
  4.431234937152154E-004  6.783502000158073E-007
  4.621483548824750E-004  6.783502000158073E-007
  4.656723184684920E-004  6.783502000158073E-007
  4.660304608509129E-004  6.783502000158073E-007
  4.809036737479240E-004  6.783502000158073E-007
  4.919439268743815E-004  6.783502000158073E-007
  5.155942941506264E-004  6.783502000158073E-007
  5.338590210099445E-004  6.783502000158073E-007
  5.371752187503978E-004  6.783502000158073E-007
  5.437345058554879E-004  6.783502000158073E-007
  5.541235652912720E-004  6.783502000158073E-007
  5.559500163963148E-004  6.783502000158073E-007
  5.560287218293678E-004  6.783502000158073E-007
  5.715495021700297E-004  6.783502000158073E-007
  5.930616713321258E-004  6.783502000158073E-007
  5.941341073972205E-004  6.783502000158073E-007
  5.986496316339801E-004  6.783502000158073E-007
  5.994406174319309E-004  6.783502000158073E-007
  5.996950549145912E-004  6.783502000158073E-007
  6.000197573240400E-004  6.783502000158073E-007
  6.021976895192048E-004  6.783502000158073E-007
  6.047144968300346E-004  6.783502000158073E-007
  6.263637637153284E-004  6.783502000158073E-007
  6.286717049046592E-004  6.783502000158073E-007
  6.419011714550382E-004  6.783502000158073E-007
  6.456021545283465E-004  6.783502000158073E-007
  6.461187453262357E-004  6.783502000158073E-007
  6.481043645426565E-004  6.783502000158073E-007
  6.611849127778393E-004  6.783502000158073E-007
  6.709230950554338E-004  6.783502000158073E-007
  6.942119503777918E-004  6.783502000158073E-007
  6.978702411554110E-004  6.783502000158073E-007
  7.942931424529707E-004  6.783502000158073E-007
  7.954703753136523E-004  6.783502000158073E-007
  8.229635876907205E-004  6.783502000158073E-007
  9.416453465924558E-004  6.783502000158073E-007
  9.953143090172217E-004  6.783502000158073E-007
  1.039726604492970E-003  6.783502000158073E-007
  1.095375742604952E-003  6.783502000158073E-007
  1.096347723194086E-003  6.783502000158073E-007
  1.097073691346891E-003  6.783502000158073E-007
  1.097600667793426E-003  6.783502000158073E-007
  1.111545287615083E-003  6.783502000158073E-007
  1.138952301968097E-003  6.783502000158073E-007
  1.143885908477933E-003  6.783502000158073E-007
  1.162466700953072E-003  6.783502000158073E-007
  1.162569164446123E-003  6.783502000158073E-007
  1.162961090026208E-003  6.783502000158073E-007
  1.163176291857004E-003  6.783502000158073E-007
  1.171647609176070E-003  6.783502000158073E-007
  1.172228218035001E-003  6.783502000158073E-007
  1.172881968591542E-003  6.783502000158073E-007
  1.173521991691356E-003  6.783502000158073E-007
  1.202897745688676E-003  6.783502000158073E-007
  1.261848071822466E-003  6.783502000158073E-007
  1.295174611169981E-003  6.783502000158073E-007
  1.374680745213131E-003  6.783502000158073E-007
  1.443643938267528E-003  6.783502000158073E-007
  1.495387196589195E-003  6.783502000158073E-007
  1.561782544684680E-003  6.783502000158073E-007
  1.723365990316640E-003  6.783502000158073E-007
  1.778377902170525E-003  6.783502000158073E-007
  1.788598912542258E-003  6.783502000158073E-007
  1.912211244811307E-003  6.783502000158073E-007
  2.292676126023397E-003  6.783502000158073E-007
  2.351900653074179E-003  6.783502000158073E-007
  2.355704491655407E-003  6.783502000158073E-007
  2.534886420995407E-003  6.783502000158073E-007
  2.536393966099976E-003  6.783502000158073E-007
  2.563958050450092E-003  6.783502000158073E-007
  2.786379720862760E-003  6.783502000158073E-007
  2.922931081784694E-003  6.783502000158073E-007
  3.023624330091929E-003  6.783502000158073E-007
  3.042189730253081E-003  6.783502000158073E-007
  3.081524298504887E-003  6.783502000158073E-007
  3.096772529445303E-003  6.783502000158073E-007
  3.118472496052386E-003  6.783502000158073E-007
  3.655555716675457E-003  6.783502000158073E-007
  3.657486904297199E-003  6.783502000158073E-007
  3.704155389103135E-003  6.783502000158073E-007
  3.705856947421604E-003  6.783502000158073E-007
  3.774598051717269E-003  6.783502000158073E-007
  3.942979063810479E-003  6.783502000158073E-007
  4.077342746799661E-003  6.783502000158073E-007
 cut=1d-8, nber non-redundant internal coords=         171
 Check on Eigenvals of non-red overlap matrix:
  0.00000068  0.00000124  0.00000201  0.00000271  0.00000492  0.00000551  0.00000654  0.00000928
  0.00000971  0.00001118  0.00001358  0.00001561  0.00001647  0.00001721  0.00001784  0.00001836
  0.00002169  0.00002393  0.00002411  0.00002437  0.00002529  0.00002537  0.00002995  0.00003506
  0.00003873  0.00003994  0.00004308  0.00004457  0.00004920  0.00005181  0.00005256  0.00005395
  0.00005579  0.00005979  0.00006002  0.00006325  0.00006823  0.00007079  0.00007428  0.00007959
  0.00008138  0.00008245  0.00008432  0.00008687  0.00008810  0.00009314  0.00009454  0.00009801
  0.00011215  0.00011741  0.00011755  0.00012270  0.00013598  0.00013701  0.00013752  0.00014053
  0.00015204  0.00015783  0.00016032  0.00016051  0.00018051  0.00018820  0.00019121  0.00020449
  0.00022264  0.00022889  0.00023011  0.00026764  0.00027055  0.00028302  0.00028346  0.00029065
  0.00029236  0.00031377  0.00034197  0.00035823  0.00036999  0.00037928  0.00038294  0.00039262
  0.00039377  0.00039917  0.00042082  0.00042850  0.00042986  0.00043571  0.00044170  0.00044312
  0.00046215  0.00046567  0.00046603  0.00048090  0.00049194  0.00051559  0.00053386  0.00053718
  0.00054373  0.00055412  0.00055595  0.00055603  0.00057155  0.00059306  0.00059413  0.00059865
  0.00059944  0.00059970  0.00060002  0.00060220  0.00060471  0.00062636  0.00062867  0.00064190
  0.00064560  0.00064612  0.00064810  0.00066118  0.00067092  0.00069421  0.00069787  0.00079429
  0.00079547  0.00082296  0.00094165  0.00099531  0.00103973  0.00109538  0.00109635  0.00109707
  0.00109760  0.00111155  0.00113895  0.00114389  0.00116247  0.00116257  0.00116296  0.00116318
  0.00117165  0.00117223  0.00117288  0.00117352  0.00120290  0.00126185  0.00129517  0.00137468
  0.00144364  0.00149539  0.00156178  0.00172337  0.00177838  0.00178860  0.00191221  0.00229268
  0.00235190  0.00235570  0.00253489  0.00253639  0.00256396  0.00278638  0.00292293  0.00302362
  0.00304219  0.00308152  0.00309677  0.00311847  0.00365556  0.00365749  0.00370416  0.00370586
  0.00377460  0.00394298  0.00407734
 Checking for correct frequencies
 recalc frequencies=
    -0.0   -0.0   -0.0   -0.0    0.0    0.0   10.6   16.8   22.2   35.5
    52.8   53.7   63.2   75.1   86.5  102.8  115.5  127.6  162.9  163.6
   183.2  189.1  197.3  220.0  234.1  234.9  248.8  263.4  271.8  293.0
   305.4  314.8  345.5  359.5  391.5  394.8  419.2  431.0  435.7  438.1
   441.2  447.9  448.5  465.5  480.2  480.2  483.2  505.6  517.2  520.7
   535.0  547.8  577.8  584.2  596.5  623.1  631.6  633.8  648.2  658.6
   666.7  706.7  714.9  716.5  722.9  742.4  750.4  763.1  763.5  772.3
   785.6  800.2  803.4  817.1  824.9  839.1  846.7  857.9  864.9  865.4
   870.1  872.1  905.6  925.1  934.8  945.4  957.1  976.1  979.3  986.6
   992.5  996.7 1001.3 1002.9 1005.7 1020.9 1047.7 1063.4 1081.5 1100.0
  1100.8 1150.3 1155.5 1160.7 1165.6 1171.9 1182.9 1194.0 1195.6 1201.2
  1210.7 1220.5 1222.4 1240.6 1251.4 1257.6 1269.2 1309.0 1316.2 1326.1
  1326.5 1336.7 1348.3 1356.3 1368.7 1374.8 1382.3 1385.6 1400.5 1406.9
  1416.8 1429.0 1436.8 1454.9 1477.0 1485.2 1485.3 1491.3 1497.9 1505.3
  1506.1 1522.6 1527.8 1542.7 1560.6 1604.1 1614.9 1620.0 1631.5 1631.6
  1636.1 1643.8 1649.1 1713.1 1734.6 1751.1 1768.5 3034.6 3038.8 3092.5
  3095.7 3113.2 3133.2 3143.6 3165.8 3175.5 3184.2 3192.2 3193.6 3193.8
  3196.8 3200.9 3201.2 3208.1 3208.4 3218.0 3218.2
 recalc symmetries=
                                                                       
                                                                       
                                                                       
                                                                       
                                                                       
                                                                       
                                                                       
                                                                       
                                                                       
                                                                       
                                                                       
                                                                       
                                                                       
                                                                       
                                                                       
                                                                       
                                                                       
                                                  
 recalc freqs check OK
 Zero-point lengths:
 10.0000 10.0000 10.0000 10.0000 10.0000 10.0000 76.1807 60.4499 52.6496 41.5867
 34.1290 33.8215 31.1891 28.6053 26.6547 24.4516 23.0681 21.9487 19.4256 19.3831
 18.3185 18.0267 17.6499 16.7144 16.2044 16.1770 15.7167 15.2755 15.0385 14.4828
 14.1872 13.9728 13.3382 13.0747 12.5293 12.4766 12.1079 11.9420 11.8764 11.8442
 11.8027 11.7139 11.7066 11.4903 11.3138 11.3128 11.2776 11.0249 10.9007 10.8638
 10.7178 10.5925 10.3136 10.2573 10.1503  9.9313  9.8645  9.8474  9.7375  9.6600
  9.6015  9.3259  9.2719  9.2615  9.2205  9.0987  9.0501  8.9742  8.9721  8.9209
  8.8450  8.7637  8.7465  8.6730  8.6316  8.5586  8.5199  8.4641  8.4296  8.4271
  8.4043  8.3946  8.2380  8.1509  8.1085  8.0626  8.0134  7.9351  7.9221  7.8926
  7.8692  7.8525  7.8346  7.8285  7.8173  7.7588  7.6591  7.6025  7.5385  7.4747
  7.4721  7.3094  7.2930  7.2767  7.2615  7.2418  7.2082  7.1747  7.1697  7.1530
  7.1248  7.0962  7.0907  7.0384  7.0081  6.9906  6.9588  6.8522  6.8333  6.8078
  6.8068  6.7808  6.7516  6.7317  6.7009  6.6861  6.6680  6.6600  6.6245  6.6094
  6.5864  6.5581  6.5404  6.4995  6.4508  6.4327  6.4327  6.4196  6.4056  6.3897
  6.3880  6.3534  6.3426  6.3118  6.2755  6.1899  6.1691  6.1595  6.1376  6.1375
  6.1290  6.1146  6.1049  5.9897  5.9525  5.9244  5.8951  4.5003  4.4973  4.4580
  4.4557  4.4432  4.4290  4.4216  4.4061  4.3993  4.3933  4.3879  4.3869  4.3867
  4.3847  4.3819  4.3817  4.3769  4.3767  4.3702  4.3701
 highest evec of mol 1
  0.0000 -0.0001  0.0000
 -0.0001 -0.0003  0.0001
 -0.0000 -0.0001 -0.0000
 -0.0002  0.0003  0.0002
  0.0003  0.0000 -0.0004
 -0.0002 -0.0001  0.0002
 -0.0004 -0.0008  0.0003
  0.0140 -0.0019 -0.0154
  0.0194  0.0339 -0.0133
 -0.0007  0.0004  0.0008
 -0.0003 -0.0011  0.0001
  0.0286 -0.0001 -0.0307
  0.0083  0.0171 -0.0051
 -0.0006  0.0000  0.0006
  0.0002  0.0004 -0.0001
 -0.0001 -0.0002  0.0001
  0.0000 -0.0004 -0.0001
 -0.0001  0.0001  0.0001
  0.0001 -0.0001  0.0000
  0.0001  0.0001  0.0002
 -0.0001  0.0002  0.0001
 -0.0002  0.0002 -0.0001
 -0.0001 -0.0001 -0.0001
 -0.0008  0.0003  0.0010
  0.0004  0.0002 -0.0004
  0.0017  0.0032 -0.0011
 -0.0530  0.0076  0.0584
 -0.0836 -0.1463  0.0571
  0.0028 -0.0017 -0.0033
  0.0012  0.0046 -0.0003
 -0.1225  0.0005  0.1314
 -0.0383 -0.0785  0.0237
  0.0028 -0.0003 -0.0030
 -0.0005 -0.0013  0.0003
  0.0005  0.0004 -0.0004
  0.0003  0.0002 -0.0003
  0.0008  0.0003 -0.0008
  0.0007  0.0008 -0.0006
  0.0002  0.0002 -0.0002
 -0.0001  0.0003  0.0001
  0.0000 -0.0000 -0.0000
 -0.0000 -0.0000 -0.0001
  0.0005  0.0006 -0.0004
  0.0000 -0.0000 -0.0000
 -0.0000  0.0003  0.0002
  0.0001 -0.0000 -0.0000
 -0.0450  0.0033  0.0490
 -0.0653 -0.1145  0.0447
 -0.0964  0.0006  0.1034
 -0.0278 -0.0529  0.0181
 -0.0003  0.0002 -0.0001
 -0.0005 -0.0003 -0.0007
  0.0002 -0.0007 -0.0003
  0.0007 -0.0005  0.0003
  0.0002  0.0001  0.0003
  0.1699 -0.0125 -0.1848
  0.2804  0.4931 -0.1912
  0.4119 -0.0020 -0.4417
  0.1285  0.2446 -0.0835
 generating redundant internal coords
         300        3600          59
 Adding extra bonds for z output only
           6           6           6           7           6           8
           6           6           6           6           6           6
           6           6           6           8           7           6
           6           6           6           6           6           6
           8           6           6           6           6           6
           6           6           6           6           8           6
           6           6           6           1           1           1
           1           1           1           1           1           1
           1           1           1           1           1           1
           1           1           1           1           1
 search for int coords
   1 str   2   1   1.532
   2 str   3   2   1.532
   3 str   4   2   1.498
   4 str   5   4   1.401
   5 str   6   5   1.219
   6 str   7   5   1.485
   7 str   8   7   1.382
   8 str   9   8   1.397
   9 str  10   9   1.394
  10 str  11  10   1.470
  11 str  12  11   1.394
  12 str  13  12   1.396
  13 str  14  13   1.381
  14 str  15  14   1.484
  15 str  16  15   1.213
  16 str  17  15   1.409
  17 str  18  17   1.449
  18 str  19  18   1.390
  19 str  20  19   1.392
  20 str  21  20   1.393
  21 str  22  21   1.393
  22 str  23  18   1.390
  23 str  23  22   1.392
  24 str  24  17   1.409
  25 str  25  24   1.213
  26 str  26  24   1.484
  27 str  27  26   1.381
  28 str  28  27   1.396
  29 str  29  28   1.394
  30 str  30  29   1.470
  31 str  31  30   1.394
  32 str  32  31   1.397
  33 str  33  32   1.382
  34 str  34   4   1.408
  35 str  34  33   1.484
  36 str  35  34   1.218
  37 str  36   7   1.412
  38 str  36  33   1.412
  39 str  37  10   1.428
  40 str  37  30   1.428
  41 str  37  36   1.427
  42 str  38  11   1.429
  43 str  38  29   1.429
  44 str  39  14   1.414
  45 str  39  26   1.414
  46 str  39  38   1.428
  47 str  40   1   1.093
  48 str  41   1   1.089
  49 str  42   1   1.093
  50 str  43   2   1.088
  51 str  44   3   1.089
  52 str  45   3   1.093
  53 str  46   3   1.093
  54 str  47   8   1.083
  55 str  48   9   1.081
  56 str  49  12   1.081
  57 str  50  13   1.083
  58 str  51  19   1.083
  59 str  52  20   1.084
  60 str  53  21   1.084
  61 str  54  22   1.084
  62 str  55  23   1.083
  63 str  56  27   1.083
  64 str  57  28   1.081
  65 str  58  31   1.081
  66 str  59  32   1.083
 nber stretches=          66
  67 ben   1   2   3
  68 prop tor   1   2   3  44
  69 prop tor   1   2   3  45
  70 prop tor   1   2   3  46
  71 ben   1   2   4
  72 prop tor   1   2   4   5
  73 prop tor   1   2   4  34
  74 ben   1   2  43
  75 ben   2   1  40
  76 ben   2   1  41
  77 ben   2   1  42
  78 ben   2   3  44
  79 ben   2   3  45
  80 ben   2   3  46
  81 ben   2   4   5
  82 prop tor   2   4   5   6
  83 prop tor   2   4   5   7
  84 ben   2   4  34
  85 prop tor   2   4  34  33
  86 prop tor   2   4  34  35
  87 ben   3   2   4
  88 prop tor   3   2   4   5
  89 prop tor   3   2   4  34
  90 ben   3   2  43
  91 prop tor   4   2   3  44
  92 prop tor   4   2   3  45
  93 prop tor   4   2   3  46
  94 ben   4   2  43
  95 ben   4   5   6
  96 ben   4   5   7
  97 prop tor   4   5   7   8
  98 prop tor   4   5   7  36
  99 ben   4  34  33
 100 ben   4  34  35
 101 ben   5   4  34
 102 prop tor   5   4  34  33
 103 prop tor   5   4  34  35
 104 ben   5   7   8
 105 prop tor   5   7   8   9
 106 prop tor   5   7   8  47
 107 ben   5   7  36
 108 prop tor   5   7  36  33
 109 prop tor   5   7  36  37
 110 ben   6   5   7
 111 prop tor   6   5   7   8
 112 prop tor   6   5   7  36
 113 ben   7   8   9
 114 prop tor   7   8   9  10
 115 prop tor   7   8   9  48
 116 ben   7   8  47
 117 ben   7  36  33
 118 ben   7  36  37
 119 prop tor   7  36  37  10
 120 prop tor   7  36  37  30
 121 ben   8   7  36
 122 prop tor   8   7  36  33
 123 prop tor   8   7  36  37
 124 ben   8   9  10
 125 prop tor   8   9  10  11
 126 prop tor   8   9  10  37
 127 ben   8   9  48
 128 ben   9   8  47
 129 ben   9  10  11
 130 prop tor   9  10  11  12
 131 prop tor   9  10  11  38
 132 ben   9  10  37
 133 prop tor   9  10  37  30
 134 prop tor   9  10  37  36
 135 ben  10   9  48
 136 ben  10  11  12
 137 prop tor  10  11  12  13
 138 prop tor  10  11  12  49
 139 ben  10  11  38
 140 prop tor  10  11  38  29
 141 prop tor  10  11  38  39
 142 ben  10  37  30
 143 ben  10  37  36
 144 ben  11  10  37
 145 prop tor  11  10  37  30
 146 prop tor  11  10  37  36
 147 ben  11  12  13
 148 prop tor  11  12  13  14
 149 prop tor  11  12  13  50
 150 ben  11  12  49
 151 ben  11  38  29
 152 ben  11  38  39
 153 prop tor  11  38  39  14
 154 prop tor  11  38  39  26
 155 ben  12  11  38
 156 prop tor  12  11  38  29
 157 prop tor  12  11  38  39
 158 ben  12  13  14
 159 prop tor  12  13  14  15
 160 prop tor  12  13  14  39
 161 ben  12  13  50
 162 ben  13  12  49
 163 ben  13  14  15
 164 prop tor  13  14  15  16
 165 prop tor  13  14  15  17
 166 ben  13  14  39
 167 prop tor  13  14  39  26
 168 prop tor  13  14  39  38
 169 ben  14  13  50
 170 ben  14  15  16
 171 ben  14  15  17
 172 prop tor  14  15  17  18
 173 prop tor  14  15  17  24
 174 ben  14  39  26
 175 ben  14  39  38
 176 ben  15  14  39
 177 prop tor  15  14  39  26
 178 prop tor  15  14  39  38
 179 ben  15  17  18
 180 prop tor  15  17  18  19
 181 prop tor  15  17  18  23
 182 ben  15  17  24
 183 prop tor  15  17  24  25
 184 prop tor  15  17  24  26
 185 ben  16  15  17
 186 prop tor  16  15  17  18
 187 prop tor  16  15  17  24
 188 ben  17  18  19
 189 prop tor  17  18  19  20
 190 prop tor  17  18  19  51
 191 ben  17  18  23
 192 prop tor  17  18  23  22
 193 prop tor  17  18  23  55
 194 ben  17  24  25
 195 ben  17  24  26
 196 prop tor  17  24  26  27
 197 prop tor  17  24  26  39
 198 ben  18  17  24
 199 prop tor  18  17  24  25
 200 prop tor  18  17  24  26
 201 ben  18  19  20
 202 prop tor  18  19  20  21
 203 prop tor  18  19  20  52
 204 ben  18  19  51
 205 ben  18  23  22
 206 ben  18  23  55
 207 ben  19  18  23
 208 prop tor  19  18  23  22
 209 prop tor  19  18  23  55
 210 ben  19  20  21
 211 prop tor  19  20  21  22
 212 prop tor  19  20  21  53
 213 ben  19  20  52
 214 ben  20  19  51
 215 ben  20  21  22
 216 prop tor  20  21  22  23
 217 prop tor  20  21  22  54
 218 ben  20  21  53
 219 ben  21  20  52
 220 ben  21  22  23
 221 prop tor  21  22  23  18
 222 prop tor  21  22  23  55
 223 ben  21  22  54
 224 ben  22  21  53
 225 ben  22  23  55
 226 prop tor  23  18  19  20
 227 prop tor  23  18  19  51
 228 ben  23  22  54
 229 prop tor  24  17  18  19
 230 prop tor  24  17  18  23
 231 ben  24  26  27
 232 prop tor  24  26  27  28
 233 prop tor  24  26  27  56
 234 ben  24  26  39
 235 prop tor  24  26  39  14
 236 prop tor  24  26  39  38
 237 ben  25  24  26
 238 prop tor  25  24  26  27
 239 prop tor  25  24  26  39
 240 ben  26  27  28
 241 prop tor  26  27  28  29
 242 prop tor  26  27  28  57
 243 ben  26  27  56
 244 ben  26  39  38
 245 ben  27  26  39
 246 prop tor  27  26  39  14
 247 prop tor  27  26  39  38
 248 ben  27  28  29
 249 prop tor  27  28  29  30
 250 prop tor  27  28  29  38
 251 ben  27  28  57
 252 ben  28  27  56
 253 ben  28  29  30
 254 prop tor  28  29  30  31
 255 prop tor  28  29  30  37
 256 ben  28  29  38
 257 prop tor  28  29  38  11
 258 prop tor  28  29  38  39
 259 ben  29  28  57
 260 ben  29  30  31
 261 prop tor  29  30  31  32
 262 prop tor  29  30  31  58
 263 ben  29  30  37
 264 prop tor  29  30  37  10
 265 prop tor  29  30  37  36
 266 ben  29  38  39
 267 prop tor  29  38  39  14
 268 prop tor  29  38  39  26
 269 ben  30  29  38
 270 prop tor  30  29  38  11
 271 prop tor  30  29  38  39
 272 ben  30  31  32
 273 prop tor  30  31  32  33
 274 prop tor  30  31  32  59
 275 ben  30  31  58
 276 ben  30  37  36
 277 ben  31  30  37
 278 prop tor  31  30  37  10
 279 prop tor  31  30  37  36
 280 ben  31  32  33
 281 prop tor  31  32  33  34
 282 prop tor  31  32  33  36
 283 ben  31  32  59
 284 ben  32  31  58
 285 ben  32  33  34
 286 prop tor  32  33  34   4
 287 prop tor  32  33  34  35
 288 ben  32  33  36
 289 prop tor  32  33  36   7
 290 prop tor  32  33  36  37
 291 ben  33  32  59
 292 ben  33  34  35
 293 ben  33  36  37
 294 prop tor  33  36  37  10
 295 prop tor  33  36  37  30
 296 prop tor  34   4   5   6
 297 prop tor  34   4   5   7
 298 ben  34  33  36
 299 prop tor  34  33  36   7
 300 prop tor  34  33  36  37
 301 prop tor  36   7   8   9
 302 prop tor  36   7   8  47
 303 prop tor  36  33  34   4
 304 prop tor  36  33  34  35
 305 prop tor  37  10  11  12
 306 prop tor  37  10  11  38
 307 prop tor  37  30  31  32
 308 prop tor  37  30  31  58
 309 prop tor  38  11  12  13
 310 prop tor  38  11  12  49
 311 prop tor  38  29  30  31
 312 prop tor  38  29  30  37
 313 prop tor  39  14  15  16
 314 prop tor  39  14  15  17
 315 prop tor  39  26  27  28
 316 prop tor  39  26  27  56
 317 prop tor  40   1   2   3
 318 prop tor  40   1   2   4
 319 prop tor  40   1   2  43
 320 ben  40   1  41
 321 ben  40   1  42
 322 prop tor  41   1   2   3
 323 prop tor  41   1   2   4
 324 prop tor  41   1   2  43
 325 ben  41   1  42
 326 prop tor  42   1   2   3
 327 prop tor  42   1   2   4
 328 prop tor  42   1   2  43
 329 prop tor  43   2   3  44
 330 prop tor  43   2   3  45
 331 prop tor  43   2   3  46
 332 prop tor  43   2   4   5
 333 prop tor  43   2   4  34
 334 ben  44   3  45
 335 ben  44   3  46
 336 ben  45   3  46
 337 prop tor  47   8   9  10
 338 prop tor  47   8   9  48
 339 prop tor  48   9  10  11
 340 prop tor  48   9  10  37
 341 prop tor  49  12  13  14
 342 prop tor  49  12  13  50
 343 prop tor  50  13  14  15
 344 prop tor  50  13  14  39
 345 prop tor  51  19  20  21
 346 prop tor  51  19  20  52
 347 prop tor  52  20  21  22
 348 prop tor  52  20  21  53
 349 prop tor  53  21  22  23
 350 prop tor  53  21  22  54
 351 prop tor  54  22  23  18
 352 prop tor  54  22  23  55
 353 prop tor  56  27  28  29
 354 prop tor  56  27  28  57
 355 prop tor  57  28  29  30
 356 prop tor  57  28  29  38
 357 prop tor  58  31  32  33
 358 prop tor  58  31  32  59
 359 prop tor  59  32  33  34
 360 prop tor  59  32  33  36
 nber bend=             114
 nber lin bend=           0
 nber prop tor=         180
 nber impr tor=           0
 nber tot redund int=         360
 Reading file: 
 ./PDI_1_C0S1.log                                                               
                                          
  Entering Gaussian System, Link 0=g16                                          
  
 Gaussian format, type: g94, g98, g03= F F F
  #P Geom=AllCheck Guess=TCheck SCRF=Check GenChk RB3LYP TD(FC,Read)/6-3    
 energy type= TD      
 Original G94 input coords:
  6  1.237697 -1.038242 -0.124981
  6  2.347629 -0.001674  0.077760
  6  3.585465 -0.562423  0.785461
  7  2.706074  0.683734 -1.205017
  6  3.262495 -0.065976 -2.248426
  8  3.462516 -1.266725 -2.135971
  6  3.600090  0.652454 -3.495815
  6  4.158198 -0.063100 -4.562155
  6  4.484596  0.577871 -5.739766
  6  4.269912  1.973094 -5.915173
  6  4.605965  2.655748 -7.138991
  6  5.175409  1.978453 -8.252285
  6  5.492577  2.643314 -9.418788
  6  5.259076  4.018441 -9.538320
  6  5.612443  4.693777-10.803927
  8  6.099592  4.100212-11.748206
  7  5.355098  6.077193-10.867553
  6  5.691825  6.762886-12.098290
  6  6.940629  7.359095-12.233819
  6  7.262174  8.017525-13.417445
  6  6.337524  8.076504-14.457887
  6  5.088677  7.476032-14.313678
  6  4.762798  6.817340-13.131389
  6  4.795538  6.846001 -9.827812
  8  4.603928  8.040371 -9.962047
  6  4.461383  6.122555 -8.584110
  6  3.902742  6.835879 -7.516890
  6  3.577374  6.193948 -6.339806
  6  3.793693  4.799179 -6.166276
  6  3.458284  4.116483 -4.942360
  6  2.889480  4.791195 -3.826833
  6  2.572899  4.124670 -2.660761
  6  2.806295  2.748767 -2.543542
  6  2.455229  2.066778 -1.281020
  8  1.967695  2.680636 -0.344198
  6  3.368973  2.038005 -3.624131
  6  3.701715  2.714683 -4.836904
  6  4.362422  4.058201 -7.245631
  6  4.695250  4.735052 -8.459470
  1  0.909008 -1.402479  0.852210
  1  1.581733 -1.886718 -0.715010
  1  0.373625 -0.587655 -0.620132
  1  1.948194  0.807568  0.684992
  1  4.024983 -1.391325  0.232162
  1  3.296204 -0.919038  1.777820
  1  4.340661  0.216512  0.918761
  1  4.324212 -1.125058 -4.435202
  1  4.913438 -0.006208 -6.541622
  1  5.369495  0.916822 -8.195553
  1  5.925946  2.122563-10.263020
  1  7.651260  7.306758-11.417881
  1  8.234637  8.483751-13.525788
  1  6.589625  8.589289-15.379084
  1  4.366788  7.519545-15.121001
  1  3.795057  6.346513-13.007724
  1  3.735450  7.897871 -7.643066
  1  3.147984  6.776574 -5.537212
  1  2.695307  5.852985 -3.881163
  1  2.140265  4.645081 -1.816161
 nber atoms=          59
  Total Energy, E(TD-HF/TD-DFT) =  -1680.41397805                               
  
          32          49 "  -1680.41397805"
After scan for Atom:   Atom  AN      X      Y      Z        X      Y      Z        X      Y      Z   
After scan for Atom:   Atom  AN      X      Y      Z        X      Y      Z        X      Y      Z   
After scan for Atom:   Atom  AN      X      Y      Z        X      Y      Z        X      Y      Z   
After scan for Atom:   Atom  AN      X      Y      Z        X      Y      Z        X      Y      Z   
After scan for Atom:   Atom  AN      X      Y      Z        X      Y      Z        X      Y      Z   
After scan for Atom:   Atom  AN      X      Y      Z        X      Y      Z        X      Y      Z   
After scan for Atom:   Atom  AN      X      Y      Z        X      Y      Z        X      Y      Z   
After scan for Atom:   Atom  AN      X      Y      Z        X      Y      Z        X      Y      Z   
After scan for Atom:   Atom  AN      X      Y      Z        X      Y      Z        X      Y      Z   
After scan for Atom:   Atom  AN      X      Y      Z        X      Y      Z        X      Y      Z   
After scan for Atom:   Atom  AN      X      Y      Z        X      Y      Z        X      Y      Z   
After scan for Atom:   Atom  AN      X      Y      Z        X      Y      Z        X      Y      Z   
After scan for Atom:   Atom  AN      X      Y      Z        X      Y      Z        X      Y      Z   
After scan for Atom:   Atom  AN      X      Y      Z        X      Y      Z        X      Y      Z   
After scan for Atom:   Atom  AN      X      Y      Z        X      Y      Z        X      Y      Z   
After scan for Atom:   Atom  AN      X      Y      Z        X      Y      Z        X      Y      Z   
After scan for Atom:   Atom  AN      X      Y      Z        X      Y      Z        X      Y      Z   
After scan for Atom:   Atom  AN      X      Y      Z        X      Y      Z        X      Y      Z   
After scan for Atom:   Atom  AN      X      Y      Z        X      Y      Z        X      Y      Z   
After scan for Atom:   Atom  AN      X      Y      Z        X      Y      Z        X      Y      Z   
After scan for Atom:   Atom  AN      X      Y      Z        X      Y      Z        X      Y      Z   
After scan for Atom:   Atom  AN      X      Y      Z        X      Y      Z        X      Y      Z   
After scan for Atom:   Atom  AN      X      Y      Z        X      Y      Z        X      Y      Z   
After scan for Atom:   Atom  AN      X      Y      Z        X      Y      Z        X      Y      Z   
After scan for Atom:   Atom  AN      X      Y      Z        X      Y      Z        X      Y      Z   
After scan for Atom:   Atom  AN      X      Y      Z        X      Y      Z        X      Y      Z   
After scan for Atom:   Atom  AN      X      Y      Z        X      Y      Z        X      Y      Z   
After scan for Atom:   Atom  AN      X      Y      Z        X      Y      Z        X      Y      Z   
After scan for Atom:   Atom  AN      X      Y      Z        X      Y      Z        X      Y      Z   
After scan for Atom:   Atom  AN      X      Y      Z        X      Y      Z        X      Y      Z   
After scan for Atom:   Atom  AN      X      Y      Z        X      Y      Z        X      Y      Z   
After scan for Atom:   Atom  AN      X      Y      Z        X      Y      Z        X      Y      Z   
After scan for Atom:   Atom  AN      X      Y      Z        X      Y      Z        X      Y      Z   
After scan for Atom:   Atom  AN      X      Y      Z        X      Y      Z        X      Y      Z   
After scan for Atom:   Atom  AN      X      Y      Z        X      Y      Z        X      Y      Z   
After scan for Atom:   Atom  AN      X      Y      Z        X      Y      Z        X      Y      Z   
After scan for Atom:   Atom  AN      X      Y      Z        X      Y      Z        X      Y      Z   
After scan for Atom:   Atom  AN      X      Y      Z        X      Y      Z        X      Y      Z   
After scan for Atom:   Atom  AN      X      Y      Z        X      Y      Z        X      Y      Z   
After scan for Atom:   Atom  AN      X      Y      Z        X      Y      Z        X      Y      Z   
After scan for Atom:   Atom  AN      X      Y      Z        X      Y      Z        X      Y      Z   
After scan for Atom:   Atom  AN      X      Y      Z        X      Y      Z        X      Y      Z   
After scan for Atom:   Atom  AN      X      Y      Z        X      Y      Z        X      Y      Z   
After scan for Atom:   Atom  AN      X      Y      Z        X      Y      Z        X      Y      Z   
After scan for Atom:   Atom  AN      X      Y      Z        X      Y      Z        X      Y      Z   
After scan for Atom:   Atom  AN      X      Y      Z        X      Y      Z        X      Y      Z   
After scan for Atom:   Atom  AN      X      Y      Z        X      Y      Z        X      Y      Z   
After scan for Atom:   Atom  AN      X      Y      Z        X      Y      Z        X      Y      Z   
After scan for Atom:   Atom  AN      X      Y      Z        X      Y      Z        X      Y      Z   
After scan for Atom:   Atom  AN      X      Y      Z        X      Y      Z        X      Y      Z   
After scan for Atom:   Atom  AN      X      Y      Z        X      Y      Z        X      Y      Z   
After scan for Atom:   Atom  AN      X      Y      Z        X      Y      Z        X      Y      Z   
After scan for Atom:   Atom  AN      X      Y      Z        X      Y      Z        X      Y      Z   
After scan for Atom:   Atom  AN      X      Y      Z        X      Y      Z        X      Y      Z   
After scan for Atom:   Atom  AN      X      Y      Z        X      Y      Z        X      Y      Z   
After scan for Atom:   Atom  AN      X      Y      Z        X      Y      Z        X      Y      Z   
After scan for Atom:   Atom  AN      X      Y      Z        X      Y      Z        X      Y      Z   
 g94    frequencies=
     0.0    0.0    0.0    0.0    0.0    0.0    7.4   16.4   29.1   35.6
    53.4   55.6   62.5   77.2   90.1  101.8  113.0  130.3  163.2  167.8
   183.7  196.4  198.1  213.3  234.5  235.0  249.0  256.8  262.4  292.8
   302.5  305.6  323.9  352.3  389.8  392.3  417.3  419.1  431.7  437.2
   439.1  439.6  447.7  463.1  478.1  486.5  500.2  502.0  506.4  515.1
   520.1  545.4  572.9  574.0  578.1  605.1  615.4  631.4  639.0  645.4
   653.4  677.1  705.3  706.6  706.9  712.2  725.3  753.2  760.0  760.6
   761.8  771.8  799.5  812.5  813.4  814.5  821.5  828.9  832.5  835.9
   846.4  858.1  899.7  918.6  928.3  941.9  945.2  956.6  974.3  975.6
   976.1  977.8  987.5  988.2 1002.1 1020.8 1047.5 1061.1 1083.5 1094.8
  1099.8 1135.4 1155.5 1157.1 1164.3 1165.1 1177.8 1182.8 1185.5 1195.3
  1195.8 1205.6 1224.0 1232.6 1242.2 1252.0 1260.6 1299.3 1316.5 1318.5
  1326.2 1348.2 1350.2 1358.9 1365.8 1380.9 1382.4 1391.6 1400.0 1403.6
  1416.0 1430.5 1439.6 1443.9 1460.9 1466.2 1484.8 1485.0 1491.9 1497.5
  1505.2 1510.7 1522.6 1527.4 1546.5 1554.7 1570.2 1580.6 1598.9 1599.3
  1622.4 1635.5 1642.6 1685.2 1706.6 1724.5 1742.4 3034.1 3038.2 3092.0
  3095.2 3112.3 3132.7 3142.9 3165.5 3175.3 3184.1 3192.2 3196.6 3197.6
  3197.9 3204.4 3204.5 3212.4 3212.5 3223.7 3224.0
 g94    symmetries=
                                                 A      A      A      A
       A      A      A      A      A      A      A      A      A      A
       A      A      A      A      A      A      A      A      A      A
       A      A      A      A      A      A      A      A      A      A
       A      A      A      A      A      A      A      A      A      A
       A      A      A      A      A      A      A      A      A      A
       A      A      A      A      A      A      A      A      A      A
       A      A      A      A      A      A      A      A      A      A
       A      A      A      A      A      A      A      A      A      A
       A      A      A      A      A      A      A      A      A      A
       A      A      A      A      A      A      A      A      A      A
       A      A      A      A      A      A      A      A      A      A
       A      A      A      A      A      A      A      A      A      A
       A      A      A      A      A      A      A      A      A      A
       A      A      A      A      A      A      A      A      A      A
       A      A      A      A      A      A      A      A      A      A
       A      A      A      A      A      A      A      A      A      A
       A      A      A      A      A      A      A
 atomic masses:
 12.0000 12.0000 12.0000 14.0031 12.0000 15.9949 12.0000 12.0000 12.0000 12.0000
 12.0000 12.0000 12.0000 12.0000 12.0000 15.9949 14.0031 12.0000 12.0000 12.0000
 12.0000 12.0000 12.0000 12.0000 15.9949 12.0000 12.0000 12.0000 12.0000 12.0000
 12.0000 12.0000 12.0000 12.0000 15.9949 12.0000 12.0000 12.0000 12.0000  1.0078
  1.0078  1.0078  1.0078  1.0078  1.0078  1.0078  1.0078  1.0078  1.0078  1.0078
  1.0078  1.0078  1.0078  1.0078  1.0078  1.0078  1.0078  1.0078  1.0078
 looking for force constants in 
 ./PDI_1_C0S1.fchk                                                              
  
 Cartesian Force Constants                  R   N=       15753                  
  
 n3=         177       15753
 g94-fc frequencies=
    -4.0   -0.7   -0.0   -0.0    0.0    1.7    7.5   16.4   29.1   35.6
    53.4   55.6   62.5   77.2   90.1  101.8  113.0  130.3  163.2  167.8
   183.7  196.4  198.1  213.4  234.5  235.0  249.0  256.8  262.4  292.8
   302.5  305.6  323.9  352.3  389.8  392.3  417.3  419.1  431.7  437.2
   439.1  439.6  447.8  463.1  478.1  486.5  500.2  502.0  506.4  515.1
   520.1  545.4  572.9  574.0  578.1  605.1  615.4  631.4  639.0  645.4
   653.4  677.1  705.3  706.6  706.9  712.2  725.3  753.2  760.0  760.6
   761.9  771.8  799.5  812.5  813.4  814.5  821.5  828.9  832.5  835.9
   846.4  858.2  899.8  918.7  928.4  941.9  945.2  956.6  974.3  975.7
   976.1  977.8  987.6  988.2 1002.2 1020.8 1047.5 1061.1 1083.6 1094.8
  1099.8 1135.4 1155.5 1157.2 1164.3 1165.1 1177.8 1182.8 1185.6 1195.3
  1195.8 1205.6 1224.0 1232.6 1242.2 1252.1 1260.6 1299.4 1316.5 1318.6
  1326.3 1348.2 1350.3 1358.9 1365.9 1380.9 1382.4 1391.6 1400.1 1403.6
  1416.1 1430.6 1439.7 1443.9 1461.0 1466.2 1484.8 1485.0 1492.0 1497.5
  1505.3 1510.7 1522.6 1527.5 1546.5 1554.7 1570.2 1580.6 1598.9 1599.3
  1622.5 1635.6 1642.6 1685.2 1706.7 1724.5 1742.5 3034.2 3038.3 3092.1
  3095.3 3112.4 3132.7 3143.0 3165.5 3175.3 3184.1 3192.2 3196.7 3197.6
  3198.0 3204.4 3204.6 3212.5 3212.6 3223.7 3224.0
 at 99999: n3=         177
 symm operator            1 :  F  nop=           0
 symm operator            2 :  F  nop=           0
 symm operator            3 :  F  nop=           0
 symm operator            4 :  F  nop=           0
 symm operator            5 :  F  nop=           0
 symm operator            6 :  F  nop=           0
 symm operator            7 :  F  nop=           0
 The point group of the molecule is  C1
 Symmetry rotation matrix:
   1.00000   0.00000   0.00000
   0.00000   1.00000   0.00000
   0.00000   0.00000   1.00000

 Projecting out zero-frequency components
 generating redundant internal coords
         300        3600          59
 search for int coords
   1 str   2   1   1.532
   2 str   3   2   1.532
   3 str   4   2   1.498
   4 str   5   4   1.400
   5 str   6   5   1.222
   6 str   7   5   1.479
   7 str   8   7   1.400
   8 str   9   8   1.380
   9 str  10   9   1.422
  10 str  11  10   1.441
  11 str  12  11   1.422
  12 str  13  12   1.380
  13 str  14  13   1.400
  14 str  15  14   1.477
  15 str  16  15   1.217
  16 str  17  15   1.409
  17 str  18  17   1.449
  18 str  19  18   1.390
  19 str  20  19   1.392
  20 str  21  20   1.393
  21 str  22  21   1.393
  22 str  23  18   1.390
  23 str  23  22   1.392
  24 str  24  17   1.409
  25 str  25  24   1.217
  26 str  26  24   1.477
  27 str  27  26   1.400
  28 str  28  27   1.380
  29 str  29  28   1.422
  30 str  30  29   1.441
  31 str  31  30   1.422
  32 str  32  31   1.380
  33 str  33  32   1.400
  34 str  34   4   1.408
  35 str  34  33   1.477
  36 str  35  34   1.222
  37 str  36   7   1.411
  38 str  36  33   1.410
  39 str  37  10   1.427
  40 str  37  30   1.427
  41 str  37  36   1.428
  42 str  38  11   1.427
  43 str  38  29   1.427
  44 str  39  14   1.413
  45 str  39  26   1.413
  46 str  39  38   1.429
  47 str  40   1   1.093
  48 str  41   1   1.089
  49 str  42   1   1.093
  50 str  43   2   1.088
  51 str  44   3   1.089
  52 str  45   3   1.093
  53 str  46   3   1.093
  54 str  47   8   1.082
  55 str  48   9   1.081
  56 str  49  12   1.081
  57 str  50  13   1.082
  58 str  51  19   1.083
  59 str  52  20   1.084
  60 str  53  21   1.084
  61 str  54  22   1.084
  62 str  55  23   1.083
  63 str  56  27   1.082
  64 str  57  28   1.081
  65 str  58  31   1.081
  66 str  59  32   1.082
 nber stretches=          66
  67 ben   1   2   3
  68 prop tor   1   2   3  44
  69 prop tor   1   2   3  45
  70 prop tor   1   2   3  46
  71 ben   1   2   4
  72 prop tor   1   2   4   5
  73 prop tor   1   2   4  34
  74 ben   1   2  43
  75 ben   2   1  40
  76 ben   2   1  41
  77 ben   2   1  42
  78 ben   2   3  44
  79 ben   2   3  45
  80 ben   2   3  46
  81 ben   2   4   5
  82 prop tor   2   4   5   6
  83 prop tor   2   4   5   7
  84 ben   2   4  34
  85 prop tor   2   4  34  33
  86 prop tor   2   4  34  35
  87 ben   3   2   4
  88 prop tor   3   2   4   5
  89 prop tor   3   2   4  34
  90 ben   3   2  43
  91 prop tor   4   2   3  44
  92 prop tor   4   2   3  45
  93 prop tor   4   2   3  46
  94 ben   4   2  43
  95 ben   4   5   6
  96 ben   4   5   7
  97 prop tor   4   5   7   8
  98 prop tor   4   5   7  36
  99 ben   4  34  33
 100 ben   4  34  35
 101 ben   5   4  34
 102 prop tor   5   4  34  33
 103 prop tor   5   4  34  35
 104 ben   5   7   8
 105 prop tor   5   7   8   9
 106 prop tor   5   7   8  47
 107 ben   5   7  36
 108 prop tor   5   7  36  33
 109 prop tor   5   7  36  37
 110 ben   6   5   7
 111 prop tor   6   5   7   8
 112 prop tor   6   5   7  36
 113 ben   7   8   9
 114 prop tor   7   8   9  10
 115 prop tor   7   8   9  48
 116 ben   7   8  47
 117 ben   7  36  33
 118 ben   7  36  37
 119 prop tor   7  36  37  10
 120 prop tor   7  36  37  30
 121 ben   8   7  36
 122 prop tor   8   7  36  33
 123 prop tor   8   7  36  37
 124 ben   8   9  10
 125 prop tor   8   9  10  11
 126 prop tor   8   9  10  37
 127 ben   8   9  48
 128 ben   9   8  47
 129 ben   9  10  11
 130 prop tor   9  10  11  12
 131 prop tor   9  10  11  38
 132 ben   9  10  37
 133 prop tor   9  10  37  30
 134 prop tor   9  10  37  36
 135 ben  10   9  48
 136 ben  10  11  12
 137 prop tor  10  11  12  13
 138 prop tor  10  11  12  49
 139 ben  10  11  38
 140 prop tor  10  11  38  29
 141 prop tor  10  11  38  39
 142 ben  10  37  30
 143 ben  10  37  36
 144 ben  11  10  37
 145 prop tor  11  10  37  30
 146 prop tor  11  10  37  36
 147 ben  11  12  13
 148 prop tor  11  12  13  14
 149 prop tor  11  12  13  50
 150 ben  11  12  49
 151 ben  11  38  29
 152 ben  11  38  39
 153 prop tor  11  38  39  14
 154 prop tor  11  38  39  26
 155 ben  12  11  38
 156 prop tor  12  11  38  29
 157 prop tor  12  11  38  39
 158 ben  12  13  14
 159 prop tor  12  13  14  15
 160 prop tor  12  13  14  39
 161 ben  12  13  50
 162 ben  13  12  49
 163 ben  13  14  15
 164 prop tor  13  14  15  16
 165 prop tor  13  14  15  17
 166 ben  13  14  39
 167 prop tor  13  14  39  26
 168 prop tor  13  14  39  38
 169 ben  14  13  50
 170 ben  14  15  16
 171 ben  14  15  17
 172 prop tor  14  15  17  18
 173 prop tor  14  15  17  24
 174 ben  14  39  26
 175 ben  14  39  38
 176 ben  15  14  39
 177 prop tor  15  14  39  26
 178 prop tor  15  14  39  38
 179 ben  15  17  18
 180 prop tor  15  17  18  19
 181 prop tor  15  17  18  23
 182 ben  15  17  24
 183 prop tor  15  17  24  25
 184 prop tor  15  17  24  26
 185 ben  16  15  17
 186 prop tor  16  15  17  18
 187 prop tor  16  15  17  24
 188 ben  17  18  19
 189 prop tor  17  18  19  20
 190 prop tor  17  18  19  51
 191 ben  17  18  23
 192 prop tor  17  18  23  22
 193 prop tor  17  18  23  55
 194 ben  17  24  25
 195 ben  17  24  26
 196 prop tor  17  24  26  27
 197 prop tor  17  24  26  39
 198 ben  18  17  24
 199 prop tor  18  17  24  25
 200 prop tor  18  17  24  26
 201 ben  18  19  20
 202 prop tor  18  19  20  21
 203 prop tor  18  19  20  52
 204 ben  18  19  51
 205 ben  18  23  22
 206 ben  18  23  55
 207 ben  19  18  23
 208 prop tor  19  18  23  22
 209 prop tor  19  18  23  55
 210 ben  19  20  21
 211 prop tor  19  20  21  22
 212 prop tor  19  20  21  53
 213 ben  19  20  52
 214 ben  20  19  51
 215 ben  20  21  22
 216 prop tor  20  21  22  23
 217 prop tor  20  21  22  54
 218 ben  20  21  53
 219 ben  21  20  52
 220 ben  21  22  23
 221 prop tor  21  22  23  18
 222 prop tor  21  22  23  55
 223 ben  21  22  54
 224 ben  22  21  53
 225 ben  22  23  55
 226 prop tor  23  18  19  20
 227 prop tor  23  18  19  51
 228 ben  23  22  54
 229 prop tor  24  17  18  19
 230 prop tor  24  17  18  23
 231 ben  24  26  27
 232 prop tor  24  26  27  28
 233 prop tor  24  26  27  56
 234 ben  24  26  39
 235 prop tor  24  26  39  14
 236 prop tor  24  26  39  38
 237 ben  25  24  26
 238 prop tor  25  24  26  27
 239 prop tor  25  24  26  39
 240 ben  26  27  28
 241 prop tor  26  27  28  29
 242 prop tor  26  27  28  57
 243 ben  26  27  56
 244 ben  26  39  38
 245 ben  27  26  39
 246 prop tor  27  26  39  14
 247 prop tor  27  26  39  38
 248 ben  27  28  29
 249 prop tor  27  28  29  30
 250 prop tor  27  28  29  38
 251 ben  27  28  57
 252 ben  28  27  56
 253 ben  28  29  30
 254 prop tor  28  29  30  31
 255 prop tor  28  29  30  37
 256 ben  28  29  38
 257 prop tor  28  29  38  11
 258 prop tor  28  29  38  39
 259 ben  29  28  57
 260 ben  29  30  31
 261 prop tor  29  30  31  32
 262 prop tor  29  30  31  58
 263 ben  29  30  37
 264 prop tor  29  30  37  10
 265 prop tor  29  30  37  36
 266 ben  29  38  39
 267 prop tor  29  38  39  14
 268 prop tor  29  38  39  26
 269 ben  30  29  38
 270 prop tor  30  29  38  11
 271 prop tor  30  29  38  39
 272 ben  30  31  32
 273 prop tor  30  31  32  33
 274 prop tor  30  31  32  59
 275 ben  30  31  58
 276 ben  30  37  36
 277 ben  31  30  37
 278 prop tor  31  30  37  10
 279 prop tor  31  30  37  36
 280 ben  31  32  33
 281 prop tor  31  32  33  34
 282 prop tor  31  32  33  36
 283 ben  31  32  59
 284 ben  32  31  58
 285 ben  32  33  34
 286 prop tor  32  33  34   4
 287 prop tor  32  33  34  35
 288 ben  32  33  36
 289 prop tor  32  33  36   7
 290 prop tor  32  33  36  37
 291 ben  33  32  59
 292 ben  33  34  35
 293 ben  33  36  37
 294 prop tor  33  36  37  10
 295 prop tor  33  36  37  30
 296 prop tor  34   4   5   6
 297 prop tor  34   4   5   7
 298 ben  34  33  36
 299 prop tor  34  33  36   7
 300 prop tor  34  33  36  37
 301 prop tor  36   7   8   9
 302 prop tor  36   7   8  47
 303 prop tor  36  33  34   4
 304 prop tor  36  33  34  35
 305 prop tor  37  10  11  12
 306 prop tor  37  10  11  38
 307 prop tor  37  30  31  32
 308 prop tor  37  30  31  58
 309 prop tor  38  11  12  13
 310 prop tor  38  11  12  49
 311 prop tor  38  29  30  31
 312 prop tor  38  29  30  37
 313 prop tor  39  14  15  16
 314 prop tor  39  14  15  17
 315 prop tor  39  26  27  28
 316 prop tor  39  26  27  56
 317 prop tor  40   1   2   3
 318 prop tor  40   1   2   4
 319 prop tor  40   1   2  43
 320 ben  40   1  41
 321 ben  40   1  42
 322 prop tor  41   1   2   3
 323 prop tor  41   1   2   4
 324 prop tor  41   1   2  43
 325 ben  41   1  42
 326 prop tor  42   1   2   3
 327 prop tor  42   1   2   4
 328 prop tor  42   1   2  43
 329 prop tor  43   2   3  44
 330 prop tor  43   2   3  45
 331 prop tor  43   2   3  46
 332 prop tor  43   2   4   5
 333 prop tor  43   2   4  34
 334 ben  44   3  45
 335 ben  44   3  46
 336 ben  45   3  46
 337 prop tor  47   8   9  10
 338 prop tor  47   8   9  48
 339 prop tor  48   9  10  11
 340 prop tor  48   9  10  37
 341 prop tor  49  12  13  14
 342 prop tor  49  12  13  50
 343 prop tor  50  13  14  15
 344 prop tor  50  13  14  39
 345 prop tor  51  19  20  21
 346 prop tor  51  19  20  52
 347 prop tor  52  20  21  22
 348 prop tor  52  20  21  53
 349 prop tor  53  21  22  23
 350 prop tor  53  21  22  54
 351 prop tor  54  22  23  18
 352 prop tor  54  22  23  55
 353 prop tor  56  27  28  29
 354 prop tor  56  27  28  57
 355 prop tor  57  28  29  30
 356 prop tor  57  28  29  38
 357 prop tor  58  31  32  33
 358 prop tor  58  31  32  59
 359 prop tor  59  32  33  34
 360 prop tor  59  32  33  36
 nber bend=             114
 nber lin bend=           0
 nber prop tor=         180
 nber impr tor=           0
 nber tot redund int=         360
 Eigenvalues of G in red int coords
    Gval -0.00000000 -0.00000000 -0.00000000 -0.00000000 -0.00000000 -0.00000000 -0.00000000 -0.00000000
    Gval -0.00000000 -0.00000000 -0.00000000 -0.00000000 -0.00000000 -0.00000000 -0.00000000 -0.00000000
    Gval -0.00000000 -0.00000000 -0.00000000 -0.00000000 -0.00000000 -0.00000000 -0.00000000 -0.00000000
    Gval -0.00000000 -0.00000000 -0.00000000 -0.00000000 -0.00000000 -0.00000000 -0.00000000 -0.00000000
    Gval -0.00000000 -0.00000000 -0.00000000 -0.00000000 -0.00000000 -0.00000000 -0.00000000 -0.00000000
    Gval -0.00000000 -0.00000000 -0.00000000 -0.00000000 -0.00000000 -0.00000000 -0.00000000 -0.00000000
    Gval -0.00000000 -0.00000000 -0.00000000 -0.00000000 -0.00000000 -0.00000000 -0.00000000 -0.00000000
    Gval -0.00000000 -0.00000000 -0.00000000 -0.00000000 -0.00000000 -0.00000000 -0.00000000 -0.00000000
    Gval -0.00000000 -0.00000000 -0.00000000 -0.00000000 -0.00000000 -0.00000000 -0.00000000 -0.00000000
    Gval -0.00000000 -0.00000000 -0.00000000 -0.00000000 -0.00000000 -0.00000000 -0.00000000 -0.00000000
    Gval -0.00000000 -0.00000000 -0.00000000 -0.00000000 -0.00000000 -0.00000000 -0.00000000 -0.00000000
    Gval -0.00000000 -0.00000000 -0.00000000 -0.00000000 -0.00000000 -0.00000000 -0.00000000  0.00000000
    Gval  0.00000000  0.00000000  0.00000000  0.00000000  0.00000000  0.00000000  0.00000000  0.00000000
    Gval  0.00000000  0.00000000  0.00000000  0.00000000  0.00000000  0.00000000  0.00000000  0.00000000
    Gval  0.00000000  0.00000000  0.00000000  0.00000000  0.00000000  0.00000000  0.00000000  0.00000000
    Gval  0.00000000  0.00000000  0.00000000  0.00000000  0.00000000  0.00000000  0.00000000  0.00000000
    Gval  0.00000000  0.00000000  0.00000000  0.00000000  0.00000000  0.00000000  0.00000000  0.00000000
[...]
 nber times 1st assigned=         127           0
 nber times 1st assigned=         128           0
 nber times 1st assigned=         129           0
 nber times 1st assigned=         130           0
 nber times 1st assigned=         131           0
 nber times 1st assigned=         132           0
 nber times 1st assigned=         133           0
 nber times 1st assigned=         134           0
 nber times 1st assigned=         135           0
 nber times 1st assigned=         136           0
 nber times 1st assigned=         137           0
 nber times 1st assigned=         138           0
 nber times 1st assigned=         139           0
 nber times 1st assigned=         140           0
 nber times 1st assigned=         141           0
 nber times 1st assigned=         142           0
 nber times 1st assigned=         143           0
 nber times 1st assigned=         144           0
 nber times 1st assigned=         145           0
 nber times 1st assigned=         146           0
 nber times 1st assigned=         147           0
 nber times 1st assigned=         148           0
 nber times 1st assigned=         149           0
 nber times 1st assigned=         150           0
 nber times 1st assigned=         151           0
 nber times 1st assigned=         152           0
 nber times 1st assigned=         153           0
 nber times 1st assigned=         154           0
 nber times 1st assigned=         155           0
 nber times 1st assigned=         156           0
 nber times 1st assigned=         157           0
 nber times 1st assigned=         158           0
 nber times 1st assigned=         159           0
 nber times 1st assigned=         160           0
 nber times 1st assigned=         161           0
 nber times 1st assigned=         162           0
 nber times 1st assigned=         163           0
 nber times 1st assigned=         164           0
 nber times 1st assigned=         165           0
 nber times 1st assigned=         166           0
 nber times 1st assigned=         167           0
 nber times 1st assigned=         168           0
 nber times 1st assigned=         169           0
 nber times 1st assigned=         170           0
 nber times 1st assigned=         171           0
 nber times 1st assigned=         172           0
 nber times 1st assigned=         173           0
 nber times 1st assigned=         174           0
 nber times 1st assigned=         175           0
 nber times 1st assigned=         176           0
 nber times 1st assigned=         177           0
 modes represented=   357.062400381502     
 p1=
    0.   -0.   -0.   -0.   -0.    0. 1193.  -45.  148.    2.   -4.    0.   -0.    1.   -1.    0.    2.   -0.  -15.   -1.
   -0.   -0.   -2.   -0.    0.    0.   -2.    2.   -0.   -1.   -5.   -0.    0.   -0.    0.   -0.    5.    0.    0.    0.
   -0.    0.    0.    1.   -2.   -0.    0.    1.   -0.   -0.    0.    4.    0.   -2.   -0.    0.   -0.   -0.    1.   -0.
    0.   -0.    0.   -0.   -1.   -0.    0.   -1.    0.    1.    0.    0.   -0.    1.    1.   -0.    2.    1.    0.   -0.
    0.    0.    0.    1.    0.    0.   -0.   -1.    0.   -0.   -0.   -0.    0.   -0.   -0.    0.   -0.    0.    1.    0.
   -0.    0.    0.   -0.   -0.    0.    0.    0.    0.   -0.    0.    1.   -0.    0.   -0.    0.    0.    2.   -0.   -0.
    4.   -0.    0.   -0.   -0.    0.    0.    2.    0.    2.   -0.   -0.    0.    0.    2.    0.    0.    0.   -0.   -0.
   -0.    0.    0.    0.    0.    3.   -0.   -2.    0.    0.   -0.    0.   -0.   -0.   -0.   -0.   -0.   -0.    0.   -0.
   -0.    0.    0.   -0.    0.    0.    0.   -0.    0.   -0.    0.   -0.    0.   -0.   -0.    0.   -0.
 p2=
   -0.    0.    0.    0.   -0.   -0. 1202.   42.   37.    9.    1.   -4.   -1.    0.    1.   -1.    2.    1.  -12.   -0.
   -0.   -1.   -0.   -0.   -1.   -1.   -5.   -1.   -2.    1.   -1.    8.    0.    0.   -1.    1.   -2.    5.    0.   -0.
    0.   -0.   -0.   -0.    1.   -0.   -1.    0.   -1.    0.    0.   -4.   -0.    0.    2.   -0.    0.    0.   -0.   -1.
    0.    0.    0.   -0.    0.    0.    1.    1.    1.    0.   -0.   -0.   -0.   -0.    1.   -0.    1.   -0.   -0.    0.
    2.    1.    0.    0.   -0.    0.    0.   -0.    0.   -1.   -0.    0.   -0.    0.    0.    0.   -0.   -0.   -0.    0.
    0.    0.   -0.    0.   -1.   -0.   -0.   -0.   -0.    0.   -0.    0.   -1.    0.    0.   -0.   -0.    5.   -1.    0.
   -0.   -0.   -0.   -0.   -0.    2.   -0.   -0.    0.    0.   -0.    2.    1.    0.    0.   -0.   -0.    0.    1.    0.
    0.   -0.   -0.    0.   -0.   -1.   -0.   -0.   -0.    0.    4.   -0.    0.   -0.   -0.    0.    0.   -0.   -0.   -0.
   -0.    0.   -0.   -0.   -0.    0.    0.    0.   -0.   -0.    0.    0.    0.   -0.    0.    0.   -0.

 Displacement: in terms of nc of 1 THEN of nc of 2

   1     freq=    -0. Q=  0.000 lam=    -0.0     freq=    -0. Q=  0.000 lam=    -0.0
   2     freq=    -0. Q= -0.000 lam=    -0.0     freq=    -0. Q= -0.000 lam=    -0.0
   3     freq=    -0. Q= -0.000 lam=    -0.0     freq=     0. Q= -0.000 lam=     0.0
   4     freq=    -0. Q= -0.000 lam=    -0.0     freq=     0. Q= -0.000 lam=     0.0
   5     freq=     0. Q= -0.000 lam=     0.0     freq=     0. Q= -0.000 lam=     0.0
   6     freq=     0. Q=  0.000 lam=     0.0     freq=     0. Q=  0.000 lam=     0.0
   7     freq=    11. Q= 15.666 lam=  1299.4     freq=     7. Q= 13.174 lam=   640.2
   8     freq=    17. Q= -0.748 lam=     4.7     freq=    16. Q= -0.688 lam=     3.9
   9     freq=    22. Q=  2.813 lam=    87.7     freq=    29. Q=  0.814 lam=     9.6
  10     freq=    36. Q=  0.050 lam=     0.0     freq=    36. Q=  0.228 lam=     0.9
  11     freq=    53. Q= -0.115 lam=     0.3     freq=    53. Q= -0.029 lam=     0.0
  12     freq=    54. Q=  0.001 lam=     0.0     freq=    56. Q=  0.109 lam=     0.3
  13     freq=    63. Q= -0.001 lam=     0.0     freq=    63. Q= -0.041 lam=     0.1
  14     freq=    75. Q=  0.039 lam=     0.1     freq=    77. Q=  0.008 lam=     0.0
  15     freq=    87. Q= -0.029 lam=     0.0     freq=    90. Q= -0.028 lam=     0.0
  16     freq=   103. Q=  0.001 lam=     0.0     freq=   102. Q=  0.020 lam=     0.0
  17     freq=   115. Q=  0.077 lam=     0.3     freq=   113. Q=  0.064 lam=     0.2
  18     freq=   128. Q= -0.022 lam=     0.0     freq=   130. Q= -0.039 lam=     0.1
  19     freq=   163. Q= -0.756 lam=    46.6     freq=   163. Q= -0.631 lam=    32.5
  20     freq=   164. Q= -0.040 lam=     0.1     freq=   168. Q= -0.014 lam=     0.0
  21     freq=   183. Q= -0.006 lam=     0.0     freq=   184. Q= -0.001 lam=     0.0
  22     freq=   189. Q= -0.001 lam=     0.0     freq=   196. Q= -0.062 lam=     0.4
  23     freq=   197. Q= -0.103 lam=     1.0     freq=   198. Q= -0.006 lam=     0.0
  24     freq=   220. Q= -0.007 lam=     0.0     freq=   213. Q= -0.005 lam=     0.0
  25     freq=   234. Q=  0.020 lam=     0.0     freq=   234. Q=  0.040 lam=     0.2
  26     freq=   235. Q=  0.003 lam=     0.0     freq=   235. Q=  0.045 lam=     0.2
  27     freq=   249. Q= -0.132 lam=     2.2     freq=   249. Q= -0.306 lam=    11.7
  28     freq=   263. Q=  0.100 lam=     1.3     freq=   257. Q=  0.050 lam=     0.3
  29     freq=   272. Q= -0.020 lam=     0.1     freq=   262. Q= -0.154 lam=     3.1
  30     freq=   293. Q= -0.044 lam=     0.3     freq=   293. Q= -0.073 lam=     0.8
  31     freq=   305. Q= -0.359 lam=    19.7     freq=   303. Q= -0.066 lam=     0.6
  32     freq=   315. Q= -0.034 lam=     0.2     freq=   306. Q= -0.538 lam=    44.2
  33     freq=   345. Q=  0.001 lam=     0.0     freq=   324. Q=  0.003 lam=     0.0
  34     freq=   360. Q= -0.015 lam=     0.0     freq=   352. Q= -0.020 lam=     0.1
  35     freq=   391. Q=  0.004 lam=     0.0     freq=   390. Q=  0.059 lam=     0.7
  36     freq=   395. Q= -0.022 lam=     0.1     freq=   392. Q= -0.112 lam=     2.4
  37     freq=   419. Q=  0.444 lam=    41.4     freq=   417. Q=  0.178 lam=     6.6
  38     freq=   431. Q=  0.028 lam=     0.2     freq=   419. Q=  0.386 lam=    31.3
  39     freq=   436. Q=  0.039 lam=     0.3     freq=   432. Q=  0.019 lam=     0.1
  40     freq=   438. Q=  0.021 lam=     0.1     freq=   437. Q=  0.011 lam=     0.0
  41     freq=   441. Q= -0.005 lam=     0.0     freq=   439. Q= -0.008 lam=     0.0
  42     freq=   448. Q=  0.033 lam=     0.2     freq=   440. Q=  0.007 lam=     0.0
  43     freq=   448. Q=  0.002 lam=     0.0     freq=   448. Q=  0.004 lam=     0.0
  44     freq=   465. Q=  0.063 lam=     0.9     freq=   463. Q=  0.003 lam=     0.0
  45     freq=   480. Q= -0.167 lam=     6.7     freq=   478. Q= -0.123 lam=     3.6
  46     freq=   480. Q= -0.000 lam=     0.0     freq=   487. Q= -0.001 lam=     0.0
  47     freq=   483. Q=  0.001 lam=     0.0     freq=   500. Q=  0.068 lam=     1.2
  48     freq=   506. Q=  0.085 lam=     1.8     freq=   502. Q=  0.001 lam=     0.0
  49     freq=   517. Q= -0.017 lam=     0.1     freq=   506. Q= -0.050 lam=     0.6
  50     freq=   521. Q= -0.018 lam=     0.1     freq=   515. Q= -0.026 lam=     0.2
  51     freq=   535. Q=  0.025 lam=     0.2     freq=   520. Q=  0.006 lam=     0.0
  52     freq=   548. Q=  0.420 lam=    48.4     freq=   545. Q=  0.419 lam=    48.0
  53     freq=   578. Q=  0.005 lam=     0.0     freq=   573. Q=  0.000 lam=     0.0
  54     freq=   584. Q= -0.216 lam=    13.6     freq=   574. Q= -0.007 lam=     0.0
  55     freq=   597. Q= -0.003 lam=     0.0     freq=   578. Q= -0.220 lam=    14.0
  56     freq=   623. Q=  0.014 lam=     0.1     freq=   605. Q=  0.024 lam=     0.2
  57     freq=   632. Q= -0.006 lam=     0.0     freq=   615. Q= -0.017 lam=     0.1
  58     freq=   634. Q= -0.014 lam=     0.1     freq=   631. Q= -0.000 lam=     0.0
  59     freq=   648. Q=  0.101 lam=     3.3     freq=   639. Q=  0.000 lam=     0.0
  60     freq=   659. Q= -0.002 lam=     0.0     freq=   645. Q= -0.117 lam=     4.4
  61     freq=   667. Q=  0.016 lam=     0.1     freq=   653. Q=  0.001 lam=     0.0
  62     freq=   707. Q= -0.002 lam=     0.0     freq=   677. Q= -0.002 lam=     0.0
  63     freq=   715. Q=  0.005 lam=     0.0     freq=   705. Q=  0.004 lam=     0.0
  64     freq=   717. Q= -0.004 lam=     0.0     freq=   707. Q= -0.002 lam=     0.0
  65     freq=   723. Q= -0.084 lam=     2.5     freq=   707. Q= -0.011 lam=     0.0
  66     freq=   742. Q= -0.001 lam=     0.0     freq=   712. Q= -0.011 lam=     0.0
  67     freq=   750. Q=  0.001 lam=     0.0     freq=   725. Q=  0.084 lam=     2.6
  68     freq=   763. Q= -0.090 lam=     3.1     freq=   753. Q= -0.062 lam=     1.5
  69     freq=   763. Q=  0.009 lam=     0.0     freq=   760. Q=  0.070 lam=     1.9
  70     freq=   772. Q=  0.093 lam=     3.3     freq=   761. Q=  0.028 lam=     0.3
  71     freq=   786. Q=  0.001 lam=     0.0     freq=   762. Q=  0.007 lam=     0.0
  72     freq=   800. Q=  0.000 lam=     0.0     freq=   772. Q=  0.001 lam=     0.0
  73     freq=   803. Q= -0.015 lam=     0.1     freq=   800. Q= -0.006 lam=     0.0
  74     freq=   817. Q=  0.087 lam=     3.1     freq=   812. Q=  0.004 lam=     0.0
  75     freq=   825. Q=  0.072 lam=     2.2     freq=   813. Q=  0.088 lam=     3.2
  76     freq=   839. Q= -0.003 lam=     0.0     freq=   815. Q= -0.041 lam=     0.7
  77     freq=   847. Q=  0.252 lam=    26.9     freq=   822. Q=  0.105 lam=     4.5
  78     freq=   858. Q=  0.080 lam=     2.7     freq=   829. Q=  0.000 lam=     0.0
  79     freq=   865. Q=  0.001 lam=     0.0     freq=   832. Q=  0.045 lam=     0.9
  80     freq=   865. Q= -0.015 lam=     0.1     freq=   836. Q= -0.039 lam=     0.6
  81     freq=   870. Q=  0.021 lam=     0.2     freq=   846. Q=  0.243 lam=    24.9
  82     freq=   872. Q=  0.000 lam=     0.0     freq=   858. Q=  0.100 lam=     4.3
  83     freq=   906. Q=  0.020 lam=     0.2     freq=   900. Q=  0.022 lam=     0.2
  84     freq=   925. Q=  0.067 lam=     2.1     freq=   919. Q=  0.055 lam=     1.4
  85     freq=   935. Q=  0.020 lam=     0.2     freq=   928. Q=  0.047 lam=     1.0
  86     freq=   945. Q=  0.000 lam=     0.0     freq=   942. Q=  0.006 lam=     0.0
  87     freq=   957. Q= -0.001 lam=     0.0     freq=   945. Q= -0.001 lam=     0.0
  88     freq=   976. Q= -0.106 lam=     5.5     freq=   957. Q= -0.000 lam=     0.0
  89     freq=   979. Q=  0.032 lam=     0.5     freq=   974. Q=  0.011 lam=     0.1
  90     freq=   987. Q= -0.018 lam=     0.2     freq=   976. Q= -0.106 lam=     5.4
  91     freq=   992. Q= -0.012 lam=     0.1     freq=   976. Q= -0.003 lam=     0.0
  92     freq=   997. Q= -0.003 lam=     0.0     freq=   978. Q= -0.026 lam=     0.3
  93     freq=  1001. Q=  0.012 lam=     0.1     freq=   988. Q=  0.009 lam=     0.0
  94     freq=  1003. Q= -0.005 lam=     0.0     freq=   988. Q= -0.006 lam=     0.0
  95     freq=  1006. Q= -0.000 lam=     0.0     freq=  1002. Q= -0.002 lam=     0.0
  96     freq=  1021. Q=  0.005 lam=     0.0     freq=  1021. Q=  0.010 lam=     0.1
  97     freq=  1048. Q= -0.016 lam=     0.1     freq=  1048. Q= -0.009 lam=     0.0
  98     freq=  1063. Q=  0.015 lam=     0.1     freq=  1061. Q=  0.011 lam=     0.1
  99     freq=  1081. Q=  0.129 lam=     9.0     freq=  1084. Q=  0.055 lam=     1.7
 100     freq=  1100. Q=  0.002 lam=     0.0     freq=  1095. Q=  0.010 lam=     0.1
 101     freq=  1101. Q= -0.018 lam=     0.2     freq=  1100. Q= -0.004 lam=     0.0
 102     freq=  1150. Q=  0.011 lam=     0.1     freq=  1135. Q=  0.002 lam=     0.0
 103     freq=  1155. Q=  0.001 lam=     0.0     freq=  1155. Q=  0.000 lam=     0.0
 104     freq=  1161. Q= -0.003 lam=     0.0     freq=  1157. Q= -0.061 lam=     2.1
 105     freq=  1166. Q= -0.043 lam=     1.1     freq=  1164. Q= -0.078 lam=     3.5
 106     freq=  1172. Q=  0.009 lam=     0.1     freq=  1165. Q=  0.038 lam=     0.8
 107     freq=  1183. Q=  0.001 lam=     0.0     freq=  1178. Q=  0.011 lam=     0.1
 108     freq=  1194. Q=  0.025 lam=     0.4     freq=  1183. Q=  0.000 lam=     0.0
 109     freq=  1196. Q=  0.013 lam=     0.1     freq=  1186. Q=  0.043 lam=     1.1
 110     freq=  1201. Q= -0.008 lam=     0.0     freq=  1195. Q= -0.034 lam=     0.7
 111     freq=  1211. Q=  0.006 lam=     0.0     freq=  1196. Q=  0.015 lam=     0.1
 112     freq=  1220. Q=  0.073 lam=     3.3     freq=  1206. Q=  0.011 lam=     0.1
 113     freq=  1222. Q= -0.014 lam=     0.1     freq=  1224. Q= -0.097 lam=     5.8
 114     freq=  1241. Q=  0.007 lam=     0.0     freq=  1233. Q=  0.014 lam=     0.1
 115     freq=  1251. Q= -0.010 lam=     0.1     freq=  1242. Q= -0.004 lam=     0.0
 116     freq=  1258. Q=  0.035 lam=     0.8     freq=  1252. Q=  0.002 lam=     0.0
 117     freq=  1269. Q=  0.007 lam=     0.0     freq=  1261. Q=  0.042 lam=     1.1
 118     freq=  1309. Q=  0.260 lam=    44.1     freq=  1299. Q=  0.656 lam=   280.0
 119     freq=  1316. Q= -0.005 lam=     0.0     freq=  1316. Q= -0.185 lam=    22.5
 120     freq=  1326. Q= -0.003 lam=     0.0     freq=  1319. Q= -0.017 lam=     0.2
 121     freq=  1326. Q=  0.605 lam=   242.5     freq=  1326. Q=  0.004 lam=     0.0
 122     freq=  1337. Q= -0.001 lam=     0.0     freq=  1348. Q= -0.005 lam=     0.0
 123     freq=  1348. Q=  0.001 lam=     0.0     freq=  1350. Q=  0.015 lam=     0.1
 124     freq=  1356. Q= -0.043 lam=     1.2     freq=  1359. Q= -0.011 lam=     0.1
 125     freq=  1369. Q= -0.004 lam=     0.0     freq=  1366. Q= -0.004 lam=     0.0
 126     freq=  1375. Q=  0.058 lam=     2.3     freq=  1381. Q=  0.300 lam=    62.0
 127     freq=  1382. Q=  0.000 lam=     0.0     freq=  1382. Q=  0.005 lam=     0.0
 128     freq=  1386. Q=  0.313 lam=    68.0     freq=  1392. Q=  0.024 lam=     0.4
 129     freq=  1400. Q=  0.000 lam=     0.0     freq=  1400. Q=  0.001 lam=     0.0
 130     freq=  1407. Q=  0.372 lam=    97.6     freq=  1404. Q=  0.009 lam=     0.1
 131     freq=  1417. Q= -0.002 lam=     0.0     freq=  1416. Q= -0.025 lam=     0.5
 132     freq=  1429. Q= -0.015 lam=     0.2     freq=  1431. Q= -0.247 lam=    43.6
 133     freq=  1437. Q=  0.012 lam=     0.1     freq=  1440. Q=  0.156 lam=    17.5
 134     freq=  1455. Q=  0.016 lam=     0.2     freq=  1444. Q=  0.015 lam=     0.2
 135     freq=  1477. Q=  0.234 lam=    40.6     freq=  1461. Q=  0.017 lam=     0.2
 136     freq=  1485. Q=  0.000 lam=     0.0     freq=  1466. Q=  0.002 lam=     0.0
 137     freq=  1485. Q=  0.001 lam=     0.0     freq=  1485. Q=  0.000 lam=     0.0
 138     freq=  1491. Q=  0.002 lam=     0.0     freq=  1485. Q=  0.002 lam=     0.0
 139     freq=  1498. Q= -0.009 lam=     0.1     freq=  1492. Q= -0.202 lam=    30.6
 140     freq=  1505. Q= -0.000 lam=     0.0     freq=  1497. Q= -0.031 lam=     0.7
 141     freq=  1506. Q= -0.002 lam=     0.0     freq=  1505. Q= -0.000 lam=     0.0
 142     freq=  1523. Q=  0.001 lam=     0.0     freq=  1511. Q=  0.000 lam=     0.0
 143     freq=  1528. Q=  0.006 lam=     0.0     freq=  1523. Q=  0.001 lam=     0.0
 144     freq=  1543. Q=  0.000 lam=     0.0     freq=  1527. Q=  0.005 lam=     0.0
 145     freq=  1561. Q=  0.001 lam=     0.0     freq=  1546. Q=  0.003 lam=     0.0
 146     freq=  1604. Q=  0.501 lam=   201.5     freq=  1555. Q=  0.094 lam=     6.8
 147     freq=  1615. Q= -0.060 lam=     3.0     freq=  1570. Q= -0.002 lam=     0.0
 148     freq=  1620. Q= -0.322 lam=    84.0     freq=  1581. Q= -0.002 lam=     0.0
 149     freq=  1632. Q=  0.003 lam=     0.0     freq=  1599. Q=  0.002 lam=     0.0
 150     freq=  1632. Q=  0.002 lam=     0.0     freq=  1599. Q=  0.017 lam=     0.2
 151     freq=  1636. Q= -0.001 lam=     0.0     freq=  1622. Q= -0.625 lam=   316.8
 152     freq=  1644. Q=  0.012 lam=     0.1     freq=  1636. Q=  0.003 lam=     0.0
 153     freq=  1649. Q= -0.001 lam=     0.0     freq=  1643. Q= -0.002 lam=     0.0
 154     freq=  1713. Q= -0.000 lam=     0.0     freq=  1685. Q= -0.000 lam=     0.0
 155     freq=  1735. Q= -0.000 lam=     0.0     freq=  1707. Q= -0.001 lam=     0.0
 156     freq=  1751. Q= -0.026 lam=     0.6     freq=  1724. Q= -0.043 lam=     1.6
 157     freq=  1768. Q= -0.040 lam=     1.4     freq=  1742. Q= -0.082 lam=     5.9
 158     freq=  3035. Q= -0.000 lam=     0.0     freq=  3034. Q= -0.000 lam=     0.0
 159     freq=  3039. Q=  0.001 lam=     0.0     freq=  3038. Q=  0.001 lam=     0.0
 160     freq=  3092. Q= -0.000 lam=     0.0     freq=  3092. Q= -0.000 lam=     0.0
 161     freq=  3096. Q= -0.001 lam=     0.0     freq=  3095. Q= -0.001 lam=     0.0
 162     freq=  3113. Q=  0.001 lam=     0.0     freq=  3112. Q=  0.001 lam=     0.0
 163     freq=  3133. Q=  0.000 lam=     0.0     freq=  3133. Q=  0.001 lam=     0.0
 164     freq=  3144. Q= -0.000 lam=     0.0     freq=  3143. Q= -0.000 lam=     0.0
 165     freq=  3166. Q=  0.000 lam=     0.0     freq=  3165. Q=  0.003 lam=     0.0
 166     freq=  3175. Q=  0.000 lam=     0.0     freq=  3175. Q=  0.000 lam=     0.0
 167     freq=  3184. Q=  0.001 lam=     0.0     freq=  3184. Q=  0.008 lam=     0.1
 168     freq=  3192. Q= -0.000 lam=     0.0     freq=  3192. Q= -0.000 lam=     0.0
 169     freq=  3194. Q=  0.000 lam=     0.0     freq=  3197. Q=  0.007 lam=     0.1
 170     freq=  3194. Q= -0.000 lam=     0.0     freq=  3198. Q= -0.000 lam=     0.0
 171     freq=  3197. Q=  0.000 lam=     0.0     freq=  3198. Q=  0.000 lam=     0.0
 172     freq=  3201. Q= -0.003 lam=     0.0     freq=  3204. Q= -0.001 lam=     0.0
 173     freq=  3201. Q=  0.002 lam=     0.0     freq=  3205. Q=  0.004 lam=     0.0
 174     freq=  3208. Q= -0.000 lam=     0.0     freq=  3212. Q= -0.000 lam=     0.0
 175     freq=  3208. Q= -0.000 lam=     0.0     freq=  3213. Q= -0.000 lam=     0.0
 176     freq=  3218. Q=  0.007 lam=     0.1     freq=  3224. Q=  0.002 lam=     0.0
 177     freq=  3218. Q= -0.012 lam=     0.2     freq=  3224. Q= -0.009 lam=     0.1

 total reorg energy (cm**-1, kcal/mol)=     2438.     1725.      6.97      4.93
 Nber of molecules processed=           2
