 Enter ifcurve (0=recti, 1=orth curvi, 2=apprx curvi, -1 = skip
 And atom ordering flag, 0= never changes, 1= use the first order thenceforth,
  2= deduce it (does read on fail), 3= always read it
 Reading file: 
 ./CDT-BT_4_C0S1.log                                                            
                                          
  Entering Gaussian System, Link 0=g16                                          
  
 Gaussian format, type: g94, g98, g03= F F F
  #P Geom=AllCheck Guess=TCheck SCRF=Check GenChk RB3LYP TD(FC,Read)/6-3    
 energy type= TD      
 Original G94 input coords:
  6  0.723035  1.155487  0.169100
  6 -0.050944  1.212931  1.334947
  6 -1.409460  1.499014  1.360595
  6 -2.161393  1.548563  2.555774
  7 -1.695098  1.337171  3.774757
  6 -2.663295  1.455546  4.718657
  6 -2.472300  1.286852  6.106633
  6 -3.548339  1.436087  6.962344
  6 -4.828479  1.752968  6.471758
  6 -5.048483  1.925666  5.107490
  6 -3.971176  1.777230  4.240146
 16 -3.923496  1.927917  2.499834
  6  2.088291  0.866019  0.161049
  6  2.895251  0.799707 -0.984045
  6  2.557002  0.996885 -2.348400
  6  3.637540  0.845197 -3.198684
  6  3.886900  0.928636 -4.693469
  6  5.367806  0.620766 -4.776647
  6  6.346299  0.504755 -5.779241
  6  7.586116  0.194260 -5.263377
 16  7.576123  0.036603 -3.521553
  6  5.877384  0.394640 -3.490281
  6  4.843148  0.527930 -2.535011
 16  4.637488  0.414000 -0.818140
  1  0.224185  1.348314 -0.777475
  1  0.431202  1.022844  2.289681
  1 -1.929054  1.695009  0.427810
  1 -1.481778  1.043073  6.470713
  1 -3.406573  1.307448  8.029517
  1 -5.655563  1.864546  7.163379
  1 -6.036263  2.169621  4.735040
  1  2.562328  0.677006  1.120315
  1  1.550692  1.239570 -2.661243
  1  3.647000  1.920476 -5.092735
  1  3.281172  0.204277 -5.249426
  1  6.172077  0.638783 -6.839071
  1  8.512455  0.046143 -5.796750
 nber atoms=          37
  Total Energy, E(TD-HF/TD-DFT) =  -2019.41654655                               
  
          32          49 "  -2019.41654655"
After scan for Atom:   Atom  AN      X      Y      Z        X      Y      Z        X      Y      Z   
After scan for Atom:   Atom  AN      X      Y      Z        X      Y      Z        X      Y      Z   
After scan for Atom:   Atom  AN      X      Y      Z        X      Y      Z        X      Y      Z   
After scan for Atom:   Atom  AN      X      Y      Z        X      Y      Z        X      Y      Z   
After scan for Atom:   Atom  AN      X      Y      Z        X      Y      Z        X      Y      Z   
After scan for Atom:   Atom  AN      X      Y      Z        X      Y      Z        X      Y      Z   
After scan for Atom:   Atom  AN      X      Y      Z        X      Y      Z        X      Y      Z   
After scan for Atom:   Atom  AN      X      Y      Z        X      Y      Z        X      Y      Z   
After scan for Atom:   Atom  AN      X      Y      Z        X      Y      Z        X      Y      Z   
After scan for Atom:   Atom  AN      X      Y      Z        X      Y      Z        X      Y      Z   
After scan for Atom:   Atom  AN      X      Y      Z        X      Y      Z        X      Y      Z   
After scan for Atom:   Atom  AN      X      Y      Z        X      Y      Z        X      Y      Z   
After scan for Atom:   Atom  AN      X      Y      Z        X      Y      Z        X      Y      Z   
After scan for Atom:   Atom  AN      X      Y      Z        X      Y      Z        X      Y      Z   
After scan for Atom:   Atom  AN      X      Y      Z        X      Y      Z        X      Y      Z   
After scan for Atom:   Atom  AN      X      Y      Z        X      Y      Z        X      Y      Z   
After scan for Atom:   Atom  AN      X      Y      Z        X      Y      Z        X      Y      Z   
After scan for Atom:   Atom  AN      X      Y      Z        X      Y      Z        X      Y      Z   
After scan for Atom:   Atom  AN      X      Y      Z        X      Y      Z        X      Y      Z   
After scan for Atom:   Atom  AN      X      Y      Z        X      Y      Z        X      Y      Z   
After scan for Atom:   Atom  AN      X      Y      Z        X      Y      Z        X      Y      Z   
After scan for Atom:   Atom  AN      X      Y      Z        X      Y      Z        X      Y      Z   
After scan for Atom:   Atom  AN      X      Y      Z        X      Y      Z        X      Y      Z   
After scan for Atom:   Atom  AN      X      Y      Z        X      Y      Z        X      Y      Z   
After scan for Atom:   Atom  AN      X      Y      Z        X      Y      Z        X      Y      Z   
After scan for Atom:   Atom  AN      X      Y      Z        X      Y      Z        X      Y      Z   
After scan for Atom:   Atom  AN      X      Y      Z        X      Y      Z        X      Y      Z   
After scan for Atom:   Atom  AN      X      Y      Z        X      Y      Z        X      Y      Z   
After scan for Atom:   Atom  AN      X      Y      Z        X      Y      Z        X      Y      Z   
After scan for Atom:   Atom  AN      X      Y      Z        X      Y      Z        X      Y      Z   
After scan for Atom:   Atom  AN      X      Y      Z        X      Y      Z        X      Y      Z   
After scan for Atom:   Atom  AN      X      Y      Z        X      Y      Z        X      Y      Z   
After scan for Atom:   Atom  AN      X      Y      Z        X      Y      Z        X      Y      Z   
After scan for Atom:   Atom  AN      X      Y      Z        X      Y      Z        X      Y      Z   
After scan for Atom:   Atom  AN      X      Y      Z        X      Y      Z        X      Y      Z   
 g94    frequencies=
     0.0    0.0    0.0    0.0    0.0    0.0   16.1   23.0   24.7   46.8
    75.2   92.8  134.1  134.5  151.2  175.8  193.2  196.7  228.8  244.2
   253.1  271.2  310.0  331.4  351.6  404.7  423.0  437.3  441.8  452.7
   494.3  504.5  511.8  535.7  540.8  561.5  566.9  585.2  605.1  628.0
   632.7  649.6  681.3  699.6  709.5  727.7  758.5  767.7  775.4  785.7
   814.2  816.6  856.3  856.8  873.9  890.8  912.2  938.1  941.5  945.1
   980.0  988.3  988.3  996.0 1031.7 1064.3 1090.3 1102.8 1114.0 1143.1
  1154.1 1174.1 1181.4 1211.0 1225.0 1248.4 1266.2 1272.1 1276.7 1290.7
  1312.0 1335.3 1351.0 1357.4 1390.3 1425.2 1434.5 1444.4 1457.1 1464.7
  1475.4 1491.1 1496.6 1511.7 1552.9 1569.8 1575.2 1619.4 3023.7 3049.5
  3136.5 3147.4 3155.2 3163.9 3165.3 3176.6 3188.5 3196.1 3199.1 3208.6
  3244.1
 g94    symmetries=
                                                 A      A      A      A
       A      A      A      A      A      A      A      A      A      A
       A      A      A      A      A      A      A      A      A      A
       A      A      A      A      A      A      A      A      A      A
       A      A      A      A      A      A      A      A      A      A
       A      A      A      A      A      A      A      A      A      A
       A      A      A      A      A      A      A      A      A      A
       A      A      A      A      A      A      A      A      A      A
       A      A      A      A      A      A      A      A      A      A
       A      A      A      A      A      A      A      A      A      A
       A      A      A      A      A      A      A      A      A      A
       A
 atomic masses:
 12.0000 12.0000 12.0000 12.0000 14.0031 12.0000 12.0000 12.0000 12.0000 12.0000
 12.0000 31.9721 12.0000 12.0000 12.0000 12.0000 12.0000 12.0000 12.0000 12.0000
 31.9721 12.0000 12.0000 31.9721  1.0078  1.0078  1.0078  1.0078  1.0078  1.0078
  1.0078  1.0078  1.0078  1.0078  1.0078  1.0078  1.0078
 looking for force constants in 
 ./CDT-BT_4_C0S1.fchk                                                           
  
 Cartesian Force Constants                  R   N=        6216                  
  
 n3=         111        6216
 g94-fc frequencies=
    -0.8   -0.0   -0.0    0.0    0.7    3.6   16.1   23.0   24.8   46.8
    75.2   92.8  134.1  134.5  151.2  175.8  193.2  196.7  228.8  244.2
   253.1  271.2  310.0  331.4  351.6  404.7  423.0  437.3  441.9  452.7
   494.3  504.5  511.8  535.7  540.8  561.5  566.9  585.2  605.1  628.0
   632.7  649.6  681.3  699.6  709.6  727.7  758.5  767.7  775.5  785.7
   814.2  816.6  856.3  856.8  873.9  890.8  912.2  938.1  941.5  945.1
   980.0  988.3  988.3  996.0 1031.7 1064.3 1090.4 1102.8 1114.0 1143.2
  1154.1 1174.1 1181.4 1211.1 1225.0 1248.5 1266.2 1272.2 1276.7 1290.8
  1312.0 1335.4 1351.1 1357.5 1390.4 1425.2 1434.6 1444.5 1457.1 1464.7
  1475.5 1491.1 1496.6 1511.7 1552.9 1569.8 1575.2 1619.4 3023.8 3049.6
  3136.6 3147.5 3155.2 3164.0 3165.4 3176.6 3188.6 3196.2 3199.1 3208.7
  3244.2
 at 99999: n3=         111
 symm operator            1 :  F  nop=           0
 symm operator            2 :  F  nop=           0
 symm operator            3 :  F  nop=           0
 symm operator            4 :  F  nop=           0
 symm operator            5 :  F  nop=           0
 symm operator            6 :  F  nop=           0
 symm operator            7 :  F  nop=           0
 The point group of the molecule is  C1
 Symmetry rotation matrix:
   1.00000   0.00000   0.00000
   0.00000   1.00000   0.00000
   0.00000   0.00000   1.00000

 Projecting out zero-frequency components
 generating redundant internal coords
         300        3600          37
 search for int coords
   1 str   2   1   1.401
   2 str   3   2   1.389
   3 str   4   3   1.413
   4 str   5   4   1.322
   5 str   6   5   1.357
   6 str   7   6   1.411
   7 str   8   7   1.383
   8 str   9   8   1.407
   9 str  10   9   1.393
  10 str  11   6   1.429
  11 str  11  10   1.391
  12 str  12   4   1.803
  13 str  12  11   1.747
  14 str  13   1   1.396
  15 str  14  13   1.402
  16 str  15  14   1.419
  17 str  16  15   1.383
  18 str  17  16   1.518
  19 str  18  17   1.515
  20 str  19  18   1.406
  21 str  20  19   1.378
  22 str  21  20   1.749
  23 str  22  18   1.402
  24 str  22  21   1.736
  25 str  23  16   1.412
  26 str  23  22   1.414
  27 str  24  14   1.792
  28 str  24  23   1.733
  29 str  25   1   1.087
  30 str  26   2   1.086
  31 str  27   3   1.086
  32 str  28   7   1.083
  33 str  29   8   1.084
  34 str  30   9   1.084
  35 str  31  10   1.083
  36 str  32  13   1.087
  37 str  33  15   1.081
  38 str  34  17   1.096
  39 str  35  17   1.096
  40 str  36  19   1.082
  41 str  37  20   1.079
 nber stretches=          41
  42 ben   1   2   3
  43 prop tor   1   2   3   4
  44 prop tor   1   2   3  27
  45 ben   1   2  26
  46 ben   1  13  14
  47 prop tor   1  13  14  15
  48 prop tor   1  13  14  24
  49 ben   1  13  32
  50 ben   2   1  13
  51 prop tor   2   1  13  14
  52 prop tor   2   1  13  32
  53 ben   2   1  25
  54 ben   2   3   4
  55 prop tor   2   3   4   5
  56 prop tor   2   3   4  12
  57 ben   2   3  27
  58 ben   3   2  26
  59 ben   3   4   5
  60 prop tor   3   4   5   6
  61 ben   3   4  12
  62 prop tor   3   4  12  11
  63 ben   4   3  27
  64 ben   4   5   6
  65 prop tor   4   5   6   7
  66 prop tor   4   5   6  11
  67 ben   4  12  11
  68 ben   5   4  12
  69 prop tor   5   4  12  11
  70 ben   5   6   7
  71 prop tor   5   6   7   8
  72 prop tor   5   6   7  28
  73 ben   5   6  11
  74 prop tor   5   6  11  10
  75 prop tor   5   6  11  12
  76 ben   6   7   8
  77 prop tor   6   7   8   9
  78 prop tor   6   7   8  29
  79 ben   6   7  28
  80 ben   6  11  10
  81 ben   6  11  12
  82 prop tor   6  11  12   4
  83 ben   7   6  11
  84 prop tor   7   6  11  10
  85 prop tor   7   6  11  12
  86 ben   7   8   9
  87 prop tor   7   8   9  10
  88 prop tor   7   8   9  30
  89 ben   7   8  29
  90 ben   8   7  28
  91 ben   8   9  10
  92 prop tor   8   9  10  11
  93 prop tor   8   9  10  31
  94 ben   8   9  30
  95 ben   9   8  29
  96 ben   9  10  11
  97 prop tor   9  10  11   6
  98 prop tor   9  10  11  12
  99 ben   9  10  31
 100 ben  10   9  30
 101 ben  10  11  12
 102 prop tor  10  11  12   4
 103 prop tor  11   6   7   8
 104 prop tor  11   6   7  28
 105 ben  11  10  31
 106 prop tor  12   4   5   6
 107 prop tor  13   1   2   3
 108 prop tor  13   1   2  26
 109 ben  13   1  25
 110 ben  13  14  15
 111 prop tor  13  14  15  16
 112 prop tor  13  14  15  33
 113 ben  13  14  24
 114 prop tor  13  14  24  23
 115 ben  14  13  32
 116 ben  14  15  16
 117 prop tor  14  15  16  17
 118 prop tor  14  15  16  23
 119 ben  14  15  33
 120 ben  14  24  23
 121 ben  15  14  24
 122 prop tor  15  14  24  23
 123 ben  15  16  17
 124 prop tor  15  16  17  18
 125 prop tor  15  16  17  34
 126 prop tor  15  16  17  35
 127 ben  15  16  23
 128 prop tor  15  16  23  22
 129 prop tor  15  16  23  24
 130 ben  16  15  33
 131 ben  16  17  18
 132 prop tor  16  17  18  19
 133 prop tor  16  17  18  22
 134 ben  16  17  34
 135 ben  16  17  35
 136 ben  16  23  22
 137 ben  16  23  24
 138 prop tor  16  23  24  14
 139 ben  17  16  23
 140 prop tor  17  16  23  22
 141 prop tor  17  16  23  24
 142 ben  17  18  19
 143 prop tor  17  18  19  20
 144 prop tor  17  18  19  36
 145 ben  17  18  22
 146 prop tor  17  18  22  21
 147 prop tor  17  18  22  23
 148 ben  18  17  34
 149 ben  18  17  35
 150 ben  18  19  20
 151 prop tor  18  19  20  21
 152 prop tor  18  19  20  37
 153 ben  18  19  36
 154 ben  18  22  21
 155 ben  18  22  23
 156 prop tor  18  22  23  16
 157 prop tor  18  22  23  24
 158 ben  19  18  22
 159 prop tor  19  18  22  21
 160 prop tor  19  18  22  23
 161 ben  19  20  21
 162 prop tor  19  20  21  22
 163 ben  19  20  37
 164 ben  20  19  36
 165 ben  20  21  22
 166 prop tor  20  21  22  18
 167 prop tor  20  21  22  23
 168 ben  21  20  37
 169 ben  21  22  23
 170 prop tor  21  22  23  16
 171 prop tor  21  22  23  24
 172 prop tor  22  18  19  20
 173 prop tor  22  18  19  36
 174 ben  22  23  24
 175 prop tor  22  23  24  14
 176 prop tor  23  16  17  18
 177 prop tor  23  16  17  34
 178 prop tor  23  16  17  35
 179 prop tor  24  14  15  16
 180 prop tor  24  14  15  33
 181 prop tor  25   1   2   3
 182 prop tor  25   1   2  26
 183 prop tor  25   1  13  14
 184 prop tor  25   1  13  32
 185 prop tor  26   2   3   4
 186 prop tor  26   2   3  27
 187 prop tor  27   3   4   5
 188 prop tor  27   3   4  12
 189 prop tor  28   7   8   9
 190 prop tor  28   7   8  29
 191 prop tor  29   8   9  10
 192 prop tor  29   8   9  30
 193 prop tor  30   9  10  11
 194 prop tor  30   9  10  31
 195 prop tor  31  10  11   6
 196 prop tor  31  10  11  12
 197 prop tor  32  13  14  15
 198 prop tor  32  13  14  24
 199 prop tor  33  15  16  17
 200 prop tor  33  15  16  23
 201 prop tor  34  17  18  19
 202 prop tor  34  17  18  22
 203 ben  34  17  35
 204 prop tor  35  17  18  19
 205 prop tor  35  17  18  22
 206 prop tor  36  19  20  21
 207 prop tor  36  19  20  37
 208 prop tor  37  20  21  22
 nber bend=              67
 nber lin bend=           0
 nber prop tor=         100
 nber impr tor=           0
 nber tot redund int=         208
 Eigenvalues of G in red int coords
    Gval -0.00000000 -0.00000000 -0.00000000 -0.00000000 -0.00000000 -0.00000000 -0.00000000 -0.00000000
    Gval -0.00000000 -0.00000000 -0.00000000 -0.00000000 -0.00000000 -0.00000000 -0.00000000 -0.00000000
    Gval -0.00000000 -0.00000000 -0.00000000 -0.00000000 -0.00000000 -0.00000000 -0.00000000 -0.00000000
    Gval -0.00000000 -0.00000000 -0.00000000 -0.00000000 -0.00000000 -0.00000000 -0.00000000 -0.00000000
    Gval -0.00000000 -0.00000000 -0.00000000 -0.00000000 -0.00000000 -0.00000000 -0.00000000 -0.00000000
    Gval -0.00000000 -0.00000000 -0.00000000 -0.00000000 -0.00000000 -0.00000000 -0.00000000 -0.00000000
    Gval -0.00000000 -0.00000000 -0.00000000 -0.00000000 -0.00000000  0.00000000  0.00000000  0.00000000
    Gval  0.00000000  0.00000000  0.00000000  0.00000000  0.00000000  0.00000000  0.00000000  0.00000000
    Gval  0.00000000  0.00000000  0.00000000  0.00000000  0.00000000  0.00000000  0.00000000  0.00000000
    Gval  0.00000000  0.00000000  0.00000000  0.00000000  0.00000000  0.00000000  0.00000000  0.00000000
    Gval  0.00000000  0.00000000  0.00000000  0.00000000  0.00000000  0.00000000  0.00000000  0.00000000
    Gval  0.00000000  0.00000000  0.00000000  0.00000000  0.00000000  0.00000000  0.00000000  0.00000000
    Gval  0.00000000  0.00000000  0.00000000  0.00000000  0.00000000  0.00000000  0.00000000  0.00000025
    Gval  0.00000107  0.00000119  0.00000230  0.00000408  0.00000784  0.00000967  0.00001040  0.00001604
    Gval  0.00002014  0.00002266  0.00002485  0.00003340  0.00003620  0.00003890  0.00003965  0.00004155
    Gval  0.00004643  0.00005026  0.00005325  0.00005913  0.00006341  0.00006438  0.00006798  0.00008023
    Gval  0.00008747  0.00009119  0.00009293  0.00010085  0.00010413  0.00011062  0.00011292  0.00012151
    Gval  0.00012474  0.00012583  0.00013432  0.00015600  0.00016264  0.00018179  0.00019357  0.00020886
    Gval  0.00021398  0.00025513  0.00026393  0.00028264  0.00029570  0.00029975  0.00031417  0.00033333
    Gval  0.00033787  0.00035959  0.00036694  0.00038618  0.00038904  0.00039738  0.00040290  0.00042107
    Gval  0.00042908  0.00058328  0.00059064  0.00059315  0.00059658  0.00059675  0.00059747  0.00061059
    Gval  0.00061731  0.00061839  0.00062445  0.00063027  0.00065474  0.00066006  0.00067025  0.00080818
    Gval  0.00101472  0.00103427  0.00105389  0.00107495  0.00108158  0.00109624  0.00112148  0.00113858
    Gval  0.00114525  0.00115140  0.00116252  0.00117078  0.00117640  0.00118227  0.00132948  0.00138037
    Gval  0.00162455  0.00166113  0.00179926  0.00195962  0.00208022  0.00259946  0.00268100  0.00269457
    Gval  0.00283888  0.00300089  0.00302556  0.00356222  0.00357917  0.00373851  0.00401561  0.00406998
  2.519713363143911E-007  2.519713363143911E-007
  1.067501417667807E-006  2.519713363143911E-007
  1.186540608809552E-006  2.519713363143911E-007
  2.298276309917797E-006  2.519713363143911E-007
  4.082975764267901E-006  2.519713363143911E-007
  7.841881459513563E-006  2.519713363143911E-007
  9.671988013965956E-006  2.519713363143911E-007
  1.040142351962966E-005  2.519713363143911E-007
  1.604328104111488E-005  2.519713363143911E-007
  2.013885920460101E-005  2.519713363143911E-007
  2.265539836613725E-005  2.519713363143911E-007
  2.485481897198808E-005  2.519713363143911E-007
  3.340034720963932E-005  2.519713363143911E-007
  3.620172372742953E-005  2.519713363143911E-007
  3.890229476348344E-005  2.519713363143911E-007
  3.964721237127910E-005  2.519713363143911E-007
  4.155052841132568E-005  2.519713363143911E-007
  4.642603768651197E-005  2.519713363143911E-007
  5.026404053559081E-005  2.519713363143911E-007
  5.325146045874531E-005  2.519713363143911E-007
  5.912648782909589E-005  2.519713363143911E-007
  6.341165701981803E-005  2.519713363143911E-007
  6.437535336367654E-005  2.519713363143911E-007
  6.797784379681891E-005  2.519713363143911E-007
  8.022677853381839E-005  2.519713363143911E-007
  8.747160430364040E-005  2.519713363143911E-007
  9.119006217303701E-005  2.519713363143911E-007
  9.293101992407229E-005  2.519713363143911E-007
  1.008474378500686E-004  2.519713363143911E-007
  1.041253533790258E-004  2.519713363143911E-007
  1.106183091616626E-004  2.519713363143911E-007
  1.129172535803617E-004  2.519713363143911E-007
  1.215134122135714E-004  2.519713363143911E-007
  1.247350712279165E-004  2.519713363143911E-007
  1.258277280396950E-004  2.519713363143911E-007
  1.343207194001042E-004  2.519713363143911E-007
  1.559952089119543E-004  2.519713363143911E-007
  1.626421700286612E-004  2.519713363143911E-007
  1.817886759586939E-004  2.519713363143911E-007
  1.935657180102692E-004  2.519713363143911E-007
  2.088583920972098E-004  2.519713363143911E-007
  2.139831571776485E-004  2.519713363143911E-007
  2.551319135835403E-004  2.519713363143911E-007
  2.639302701854437E-004  2.519713363143911E-007
  2.826361444275405E-004  2.519713363143911E-007
  2.956987818494967E-004  2.519713363143911E-007
  2.997515371481083E-004  2.519713363143911E-007
  3.141699652296715E-004  2.519713363143911E-007
  3.333321439175754E-004  2.519713363143911E-007
  3.378714668080262E-004  2.519713363143911E-007
  3.595913083745184E-004  2.519713363143911E-007
  3.669357619357086E-004  2.519713363143911E-007
  3.861792461835741E-004  2.519713363143911E-007
  3.890445089759825E-004  2.519713363143911E-007
  3.973824194607596E-004  2.519713363143911E-007
  4.029015086660995E-004  2.519713363143911E-007
  4.210693044083918E-004  2.519713363143911E-007
  4.290760189564155E-004  2.519713363143911E-007
  5.832831295512998E-004  2.519713363143911E-007
  5.906406099912557E-004  2.519713363143911E-007
  5.931454739279334E-004  2.519713363143911E-007
  5.965813973655120E-004  2.519713363143911E-007
  5.967456775157512E-004  2.519713363143911E-007
  5.974687831449150E-004  2.519713363143911E-007
  6.105902685819455E-004  2.519713363143911E-007
  6.173059530877979E-004  2.519713363143911E-007
  6.183855425838557E-004  2.519713363143911E-007
  6.244540922376228E-004  2.519713363143911E-007
  6.302743196251252E-004  2.519713363143911E-007
  6.547375787977914E-004  2.519713363143911E-007
  6.600572255849492E-004  2.519713363143911E-007
  6.702496857937434E-004  2.519713363143911E-007
  8.081773812532236E-004  2.519713363143911E-007
  1.014717583779714E-003  2.519713363143911E-007
  1.034267590326853E-003  2.519713363143911E-007
  1.053887616026441E-003  2.519713363143911E-007
  1.074951055330482E-003  2.519713363143911E-007
  1.081581368123159E-003  2.519713363143911E-007
  1.096240579354551E-003  2.519713363143911E-007
  1.121480445055963E-003  2.519713363143911E-007
  1.138575306527478E-003  2.519713363143911E-007
  1.145251750153345E-003  2.519713363143911E-007
  1.151399689324258E-003  2.519713363143911E-007
  1.162519360409971E-003  2.519713363143911E-007
  1.170783858463880E-003  2.519713363143911E-007
  1.176397359855427E-003  2.519713363143911E-007
  1.182268958195243E-003  2.519713363143911E-007
  1.329482199845927E-003  2.519713363143911E-007
  1.380367473167607E-003  2.519713363143911E-007
  1.624545176022745E-003  2.519713363143911E-007
  1.661130360868131E-003  2.519713363143911E-007
  1.799261379994024E-003  2.519713363143911E-007
  1.959623148922693E-003  2.519713363143911E-007
  2.080219466714853E-003  2.519713363143911E-007
  2.599461670401246E-003  2.519713363143911E-007
  2.680995025323138E-003  2.519713363143911E-007
  2.694565055146552E-003  2.519713363143911E-007
  2.838877077025946E-003  2.519713363143911E-007
  3.000891498851369E-003  2.519713363143911E-007
  3.025558038374930E-003  2.519713363143911E-007
  3.562220463739875E-003  2.519713363143911E-007
  3.579171594781205E-003  2.519713363143911E-007
  3.738505894203734E-003  2.519713363143911E-007
  4.015611189350472E-003  2.519713363143911E-007
  4.069979828212433E-003  2.519713363143911E-007
 cut=1d-8, nber non-redundant internal coords=         105
 Check on Eigenvals of non-red overlap matrix:
  0.00000025  0.00000107  0.00000119  0.00000230  0.00000408  0.00000784  0.00000967  0.00001040
  0.00001604  0.00002014  0.00002266  0.00002485  0.00003340  0.00003620  0.00003890  0.00003965
  0.00004155  0.00004643  0.00005026  0.00005325  0.00005913  0.00006341  0.00006438  0.00006798
  0.00008023  0.00008747  0.00009119  0.00009293  0.00010085  0.00010413  0.00011062  0.00011292
  0.00012151  0.00012474  0.00012583  0.00013432  0.00015600  0.00016264  0.00018179  0.00019357
  0.00020886  0.00021398  0.00025513  0.00026393  0.00028264  0.00029570  0.00029975  0.00031417
  0.00033333  0.00033787  0.00035959  0.00036694  0.00038618  0.00038904  0.00039738  0.00040290
  0.00042107  0.00042908  0.00058328  0.00059064  0.00059315  0.00059658  0.00059675  0.00059747
  0.00061059  0.00061731  0.00061839  0.00062445  0.00063027  0.00065474  0.00066006  0.00067025
  0.00080818  0.00101472  0.00103427  0.00105389  0.00107495  0.00108158  0.00109624  0.00112148
  0.00113858  0.00114525  0.00115140  0.00116252  0.00117078  0.00117640  0.00118227  0.00132948
  0.00138037  0.00162455  0.00166113  0.00179926  0.00195962  0.00208022  0.00259946  0.00268100
  0.00269457  0.00283888  0.00300089  0.00302556  0.00356222  0.00357917  0.00373851  0.00401561
  0.00406998
 Checking for correct frequencies
 recalc frequencies=
    -0.0   -0.0    0.0    0.0    0.0    0.0   16.1   23.0   24.7   46.8
    75.2   92.8  134.1  134.5  151.2  175.8  193.2  196.7  228.8  244.2
   253.1  271.2  310.0  331.4  351.6  404.7  423.0  437.3  441.9  452.7
   494.3  504.5  511.8  535.7  540.8  561.5  566.9  585.2  605.1  628.0
   632.7  649.6  681.3  699.6  709.6  727.7  758.5  767.7  775.5  785.7
   814.2  816.6  856.3  856.8  873.9  890.8  912.2  938.1  941.5  945.1
   980.0  988.3  988.3  996.0 1031.7 1064.3 1090.4 1102.8 1114.0 1143.2
  1154.1 1174.1 1181.4 1211.1 1225.0 1248.5 1266.2 1272.2 1276.7 1290.8
  1312.0 1335.4 1351.1 1357.5 1390.4 1425.2 1434.6 1444.5 1457.1 1464.7
  1475.5 1491.1 1496.6 1511.7 1552.9 1569.8 1575.2 1619.4 3023.8 3049.6
  3136.6 3147.5 3155.2 3164.0 3165.4 3176.6 3188.6 3196.2 3199.1 3208.7
  3244.2
 recalc symmetries=
                                                                       
                                                                       
                                                                       
                                                                       
                                                                       
                                                                       
                                                                       
                                                                       
                                                                       
                                                                       
                                                                       
        
 recalc freqs check OK
 Zero-point lengths:
 10.0000 10.0000 10.0000 10.0000 10.0000 10.0000 61.8239 51.7138 49.8423 36.2330
 28.5874 25.7372 21.4092 21.3797 20.1600 18.6968 17.8337 17.6770 16.3906 15.8652
 15.5814 15.0547 14.0801 13.6186 13.2210 12.3233 12.0540 11.8555 11.7938 11.6512
 11.1503 11.0376 10.9587 10.7106 10.6608 10.4623 10.4118 10.2480 10.0782  9.8926
  9.8560  9.7269  9.4977  9.3730  9.3069  9.1901  9.0014  8.9474  8.9026  8.8444
  8.6881  8.6752  8.4718  8.4694  8.3861  8.3062  8.2083  8.0939  8.0795  8.0640
  7.9192  7.8860  7.8859  7.8552  7.7184  7.5992  7.5078  7.4653  7.4276  7.3324
  7.2974  7.2350  7.2127  7.1238  7.0831  7.0163  6.9669  6.9506  6.9383  6.9004
  6.8442  6.7841  6.7446  6.7287  6.6486  6.5669  6.5454  6.5229  6.4946  6.4776
  6.4540  6.4201  6.4082  6.3761  6.2910  6.2571  6.2463  6.1605  4.5084  4.4893
  4.4266  4.4189  4.4135  4.4074  4.4064  4.3986  4.3903  4.3851  4.3831  4.3765
  4.3525
 highest evec of mol 1
 -0.0000  0.0000 -0.0002
 -0.0001  0.0000  0.0000
  0.0000  0.0000 -0.0002
 -0.0001 -0.0000  0.0001
 -0.0000  0.0000 -0.0001
 -0.0000  0.0000  0.0000
  0.0001 -0.0000  0.0001
  0.0001 -0.0000  0.0002
 -0.0001  0.0000  0.0000
 -0.0001  0.0000 -0.0000
  0.0000  0.0000 -0.0000
  0.0000 -0.0000  0.0000
 -0.0001  0.0000 -0.0001
  0.0001 -0.0000 -0.0000
  0.0005 -0.0001  0.0001
 -0.0005  0.0001 -0.0000
 -0.0002  0.0000  0.0001
  0.0041 -0.0004 -0.0053
  0.0227 -0.0105  0.0623
 -0.2534  0.0418  0.1320
 -0.0003  0.0003 -0.0020
  0.0029 -0.0005 -0.0016
  0.0003 -0.0001  0.0002
 -0.0000  0.0000  0.0000
  0.0002 -0.0001  0.0004
  0.0001 -0.0000  0.0001
  0.0002 -0.0001  0.0004
 -0.0004  0.0001 -0.0001
 -0.0001  0.0001 -0.0006
  0.0003 -0.0000 -0.0002
  0.0004 -0.0001  0.0002
  0.0002 -0.0001  0.0003
 -0.0014  0.0003 -0.0005
 -0.0002 -0.0001  0.0002
 -0.0001  0.0002  0.0002
 -0.0316  0.0228 -0.1754
  0.8067 -0.1293 -0.4607
 generating redundant internal coords
         300        3600          37
 Adding extra bonds for z output only
           6           6           6           6           7           6
           6           6           6           6           6          16
           6           6           6           6           6           6
           6           6          16           6           6          16
           1           1           1           1           1           1
           1           1           1           1           1           1
           1
 search for int coords
   1 str   2   1   1.401
   2 str   3   2   1.389
   3 str   4   3   1.413
   4 str   5   4   1.322
   5 str   6   5   1.357
   6 str   7   6   1.411
   7 str   8   7   1.383
   8 str   9   8   1.407
   9 str  10   9   1.393
  10 str  11   6   1.429
  11 str  11  10   1.391
  12 str  12   4   1.803
  13 str  12  11   1.747
  14 str  13   1   1.396
  15 str  14  13   1.402
  16 str  15  14   1.419
  17 str  16  15   1.383
  18 str  17  16   1.518
  19 str  18  17   1.515
  20 str  19  18   1.406
  21 str  20  19   1.378
  22 str  21  20   1.749
  23 str  22  18   1.402
  24 str  22  21   1.736
  25 str  23  16   1.412
  26 str  23  22   1.414
  27 str  24  14   1.792
  28 str  24  23   1.733
  29 str  25   1   1.087
  30 str  26   2   1.086
  31 str  27   3   1.086
  32 str  28   7   1.083
  33 str  29   8   1.084
  34 str  30   9   1.084
  35 str  31  10   1.083
  36 str  32  13   1.087
  37 str  33  15   1.081
  38 str  34  17   1.096
  39 str  35  17   1.096
  40 str  36  19   1.082
  41 str  37  20   1.079
 nber stretches=          41
  42 ben   1   2   3
  43 prop tor   1   2   3   4
  44 prop tor   1   2   3  27
  45 ben   1   2  26
  46 ben   1  13  14
  47 prop tor   1  13  14  15
  48 prop tor   1  13  14  24
  49 ben   1  13  32
  50 ben   2   1  13
  51 prop tor   2   1  13  14
  52 prop tor   2   1  13  32
  53 ben   2   1  25
  54 ben   2   3   4
  55 prop tor   2   3   4   5
  56 prop tor   2   3   4  12
  57 ben   2   3  27
  58 ben   3   2  26
  59 ben   3   4   5
  60 prop tor   3   4   5   6
  61 ben   3   4  12
  62 prop tor   3   4  12  11
  63 ben   4   3  27
  64 ben   4   5   6
  65 prop tor   4   5   6   7
  66 prop tor   4   5   6  11
  67 ben   4  12  11
  68 ben   5   4  12
  69 prop tor   5   4  12  11
  70 ben   5   6   7
  71 prop tor   5   6   7   8
  72 prop tor   5   6   7  28
  73 ben   5   6  11
  74 prop tor   5   6  11  10
  75 prop tor   5   6  11  12
  76 ben   6   7   8
  77 prop tor   6   7   8   9
  78 prop tor   6   7   8  29
  79 ben   6   7  28
  80 ben   6  11  10
  81 ben   6  11  12
  82 prop tor   6  11  12   4
  83 ben   7   6  11
  84 prop tor   7   6  11  10
  85 prop tor   7   6  11  12
  86 ben   7   8   9
  87 prop tor   7   8   9  10
  88 prop tor   7   8   9  30
  89 ben   7   8  29
  90 ben   8   7  28
  91 ben   8   9  10
  92 prop tor   8   9  10  11
  93 prop tor   8   9  10  31
  94 ben   8   9  30
  95 ben   9   8  29
  96 ben   9  10  11
  97 prop tor   9  10  11   6
  98 prop tor   9  10  11  12
  99 ben   9  10  31
 100 ben  10   9  30
 101 ben  10  11  12
 102 prop tor  10  11  12   4
 103 prop tor  11   6   7   8
 104 prop tor  11   6   7  28
 105 ben  11  10  31
 106 prop tor  12   4   5   6
 107 prop tor  13   1   2   3
 108 prop tor  13   1   2  26
 109 ben  13   1  25
 110 ben  13  14  15
 111 prop tor  13  14  15  16
 112 prop tor  13  14  15  33
 113 ben  13  14  24
 114 prop tor  13  14  24  23
 115 ben  14  13  32
 116 ben  14  15  16
 117 prop tor  14  15  16  17
 118 prop tor  14  15  16  23
 119 ben  14  15  33
 120 ben  14  24  23
 121 ben  15  14  24
 122 prop tor  15  14  24  23
 123 ben  15  16  17
 124 prop tor  15  16  17  18
 125 prop tor  15  16  17  34
 126 prop tor  15  16  17  35
 127 ben  15  16  23
 128 prop tor  15  16  23  22
 129 prop tor  15  16  23  24
 130 ben  16  15  33
 131 ben  16  17  18
 132 prop tor  16  17  18  19
 133 prop tor  16  17  18  22
 134 ben  16  17  34
 135 ben  16  17  35
 136 ben  16  23  22
 137 ben  16  23  24
 138 prop tor  16  23  24  14
 139 ben  17  16  23
 140 prop tor  17  16  23  22
 141 prop tor  17  16  23  24
 142 ben  17  18  19
 143 prop tor  17  18  19  20
 144 prop tor  17  18  19  36
 145 ben  17  18  22
 146 prop tor  17  18  22  21
 147 prop tor  17  18  22  23
 148 ben  18  17  34
 149 ben  18  17  35
 150 ben  18  19  20
 151 prop tor  18  19  20  21
 152 prop tor  18  19  20  37
 153 ben  18  19  36
 154 ben  18  22  21
 155 ben  18  22  23
 156 prop tor  18  22  23  16
 157 prop tor  18  22  23  24
 158 ben  19  18  22
 159 prop tor  19  18  22  21
 160 prop tor  19  18  22  23
 161 ben  19  20  21
 162 prop tor  19  20  21  22
 163 ben  19  20  37
 164 ben  20  19  36
 165 ben  20  21  22
 166 prop tor  20  21  22  18
 167 prop tor  20  21  22  23
 168 ben  21  20  37
 169 ben  21  22  23
 170 prop tor  21  22  23  16
 171 prop tor  21  22  23  24
 172 prop tor  22  18  19  20
 173 prop tor  22  18  19  36
 174 ben  22  23  24
 175 prop tor  22  23  24  14
 176 prop tor  23  16  17  18
 177 prop tor  23  16  17  34
 178 prop tor  23  16  17  35
 179 prop tor  24  14  15  16
 180 prop tor  24  14  15  33
 181 prop tor  25   1   2   3
 182 prop tor  25   1   2  26
 183 prop tor  25   1  13  14
 184 prop tor  25   1  13  32
 185 prop tor  26   2   3   4
 186 prop tor  26   2   3  27
 187 prop tor  27   3   4   5
 188 prop tor  27   3   4  12
 189 prop tor  28   7   8   9
 190 prop tor  28   7   8  29
 191 prop tor  29   8   9  10
 192 prop tor  29   8   9  30
 193 prop tor  30   9  10  11
 194 prop tor  30   9  10  31
 195 prop tor  31  10  11   6
 196 prop tor  31  10  11  12
 197 prop tor  32  13  14  15
 198 prop tor  32  13  14  24
 199 prop tor  33  15  16  17
 200 prop tor  33  15  16  23
 201 prop tor  34  17  18  19
 202 prop tor  34  17  18  22
 203 ben  34  17  35
 204 prop tor  35  17  18  19
 205 prop tor  35  17  18  22
 206 prop tor  36  19  20  21
 207 prop tor  36  19  20  37
 208 prop tor  37  20  21  22
 nber bend=              67
 nber lin bend=           0
 nber prop tor=         100
 nber impr tor=           0
 nber tot redund int=         208
 Reading file: 
 ./CDT-BT_4_C0S0.log                                                            
                                          
  Entering Gaussian System, Link 0=g16                                          
  
 Gaussian format, type: g94, g98, g03= F F F
  #P Geom=AllCheck Guess=TCheck SCRF=Check GenChk RB3LYP/6-311G(d,p) Fre    
 energy type= B3LYP   
 Original G94 input coords:
  6  0.659822  1.163435  0.108316
  6 -0.105979  1.225848  1.314626
  6 -1.438038  1.473471  1.365305
  6 -2.183682  1.529613  2.600812
  7 -1.699278  1.358112  3.795041
  6 -2.668553  1.473772  4.763899
  6 -2.453344  1.340157  6.143736
  6 -3.524170  1.481512  7.011833
  6 -4.813983  1.755264  6.528913
  6 -5.052621  1.892134  5.166703
  6 -3.976319  1.750210  4.292003
 16 -3.942198  1.862069  2.546987
  6  1.995241  0.911675  0.090519
  6  2.833673  0.832388 -1.071751
  6  2.529579  0.985173 -2.418311
  6  3.647108  0.829203 -3.253201
  6  3.935163  0.878424 -4.740370
  6  5.422911  0.595546 -4.777297
  6  6.432530  0.471537 -5.763070
  6  7.656726  0.198147 -5.211214
 16  7.599064  0.086521 -3.468571
  6  5.901678  0.413237 -3.491017
  6  4.817913  0.555619 -2.556328
 16  4.557946  0.486445 -0.855931
  1  0.129431  1.327599 -0.826487
  1  0.413785  1.063779  2.255235
  1 -1.992659  1.640432  0.447064
  1 -1.453057  1.128978  6.501360
  1 -3.366235  1.379719  8.079338
  1 -5.636437  1.861704  7.226749
  1 -6.049229  2.103369  4.798319
  1  2.486583  0.752849  1.047637
  1  1.528412  1.202090 -2.766934
  1  3.691032  1.854893 -5.173110
  1  3.359809  0.128416 -5.294308
  1  6.278730  0.576022 -6.829128
  1  8.600446  0.052578 -5.713377
 nber atoms=          37
  SCF Done:  E(RB3LYP) =  -2019.50922238     A.U. after    1 cycles             
  
          23          40 "  -2019.50922238"
After scan for Atom:   Atom  AN      X      Y      Z        X      Y      Z        X      Y      Z   
After scan for Atom:   Atom  AN      X      Y      Z        X      Y      Z        X      Y      Z   
After scan for Atom:   Atom  AN      X      Y      Z        X      Y      Z        X      Y      Z   
After scan for Atom:   Atom  AN      X      Y      Z        X      Y      Z        X      Y      Z   
After scan for Atom:   Atom  AN      X      Y      Z        X      Y      Z        X      Y      Z   
After scan for Atom:   Atom  AN      X      Y      Z        X      Y      Z        X      Y      Z   
After scan for Atom:   Atom  AN      X      Y      Z        X      Y      Z        X      Y      Z   
After scan for Atom:   Atom  AN      X      Y      Z        X      Y      Z        X      Y      Z   
After scan for Atom:   Atom  AN      X      Y      Z        X      Y      Z        X      Y      Z   
After scan for Atom:   Atom  AN      X      Y      Z        X      Y      Z        X      Y      Z   
After scan for Atom:   Atom  AN      X      Y      Z        X      Y      Z        X      Y      Z   
After scan for Atom:   Atom  AN      X      Y      Z        X      Y      Z        X      Y      Z   
After scan for Atom:   Atom  AN      X      Y      Z        X      Y      Z        X      Y      Z   
After scan for Atom:   Atom  AN      X      Y      Z        X      Y      Z        X      Y      Z   
After scan for Atom:   Atom  AN      X      Y      Z        X      Y      Z        X      Y      Z   
After scan for Atom:   Atom  AN      X      Y      Z        X      Y      Z        X      Y      Z   
After scan for Atom:   Atom  AN      X      Y      Z        X      Y      Z        X      Y      Z   
After scan for Atom:   Atom  AN      X      Y      Z        X      Y      Z        X      Y      Z   
After scan for Atom:   Atom  AN      X      Y      Z        X      Y      Z        X      Y      Z   
After scan for Atom:   Atom  AN      X      Y      Z        X      Y      Z        X      Y      Z   
After scan for Atom:   Atom  AN      X      Y      Z        X      Y      Z        X      Y      Z   
After scan for Atom:   Atom  AN      X      Y      Z        X      Y      Z        X      Y      Z   
After scan for Atom:   Atom  AN      X      Y      Z        X      Y      Z        X      Y      Z   
After scan for Atom:   Atom  AN      X      Y      Z        X      Y      Z        X      Y      Z   
After scan for Atom:   Atom  AN      X      Y      Z        X      Y      Z        X      Y      Z   
After scan for Atom:   Atom  AN      X      Y      Z        X      Y      Z        X      Y      Z   
After scan for Atom:   Atom  AN      X      Y      Z        X      Y      Z        X      Y      Z   
After scan for Atom:   Atom  AN      X      Y      Z        X      Y      Z        X      Y      Z   
After scan for Atom:   Atom  AN      X      Y      Z        X      Y      Z        X      Y      Z   
After scan for Atom:   Atom  AN      X      Y      Z        X      Y      Z        X      Y      Z   
After scan for Atom:   Atom  AN      X      Y      Z        X      Y      Z        X      Y      Z   
After scan for Atom:   Atom  AN      X      Y      Z        X      Y      Z        X      Y      Z   
After scan for Atom:   Atom  AN      X      Y      Z        X      Y      Z        X      Y      Z   
After scan for Atom:   Atom  AN      X      Y      Z        X      Y      Z        X      Y      Z   
After scan for Atom:   Atom  AN      X      Y      Z        X      Y      Z        X      Y      Z   
 g94    frequencies=
     0.0    0.0    0.0    0.0    0.0    0.0   17.8   19.8   23.8   45.2
    76.0   97.2  127.3  134.4  146.6  178.8  196.0  196.1  231.6  252.8
   256.0  266.2  341.0  352.0  354.7  403.7  423.6  440.6  450.2  468.8
   497.3  509.0  528.1  546.5  550.6  571.2  576.8  602.2  624.2  633.1
   647.2  660.4  699.9  710.0  715.3  736.6  771.6  773.2  788.7  822.7
   834.5  840.8  865.4  879.1  896.3  913.9  938.4  949.3  951.6  951.8
   988.2 1001.5 1013.3 1026.7 1036.5 1071.7 1106.8 1110.4 1118.6 1145.4
  1151.2 1174.1 1183.5 1207.3 1224.3 1260.0 1269.1 1276.3 1312.5 1317.4
  1333.6 1342.8 1353.8 1386.2 1407.3 1412.2 1441.9 1458.2 1460.4 1475.6
  1487.4 1522.6 1528.2 1535.0 1593.0 1631.5 1640.3 1641.6 3029.6 3057.5
  3133.6 3141.0 3153.2 3161.6 3167.3 3179.0 3190.1 3197.3 3200.9 3201.8
  3246.4
 g94    symmetries=
                                                 A      A      A      A
       A      A      A      A      A      A      A      A      A      A
       A      A      A      A      A      A      A      A      A      A
       A      A      A      A      A      A      A      A      A      A
       A      A      A      A      A      A      A      A      A      A
       A      A      A      A      A      A      A      A      A      A
       A      A      A      A      A      A      A      A      A      A
       A      A      A      A      A      A      A      A      A      A
       A      A      A      A      A      A      A      A      A      A
       A      A      A      A      A      A      A      A      A      A
       A      A      A      A      A      A      A      A      A      A
       A
 atomic masses:
 12.0000 12.0000 12.0000 12.0000 14.0031 12.0000 12.0000 12.0000 12.0000 12.0000
 12.0000 31.9721 12.0000 12.0000 12.0000 12.0000 12.0000 12.0000 12.0000 12.0000
 31.9721 12.0000 12.0000 31.9721  1.0078  1.0078  1.0078  1.0078  1.0078  1.0078
  1.0078  1.0078  1.0078  1.0078  1.0078  1.0078  1.0078
 looking for force constants in 
 ./CDT-BT_4_C0S0.fchk                                                           
  
 Cartesian Force Constants                  R   N=        6216                  
  
 n3=         111        6216
 g94-fc frequencies=
    -0.5   -0.0   -0.0   -0.0    0.6    2.8   17.8   19.8   23.8   45.2
    76.0   97.2  127.3  134.4  146.6  178.8  196.0  196.1  231.6  252.8
   256.0  266.2  341.1  352.0  354.7  403.7  423.6  440.7  450.2  468.8
   497.4  509.0  528.1  546.5  550.6  571.2  576.8  602.2  624.2  633.1
   647.2  660.4  699.9  710.0  715.3  736.6  771.6  773.2  788.7  822.7
   834.5  840.8  865.4  879.2  896.3  913.9  938.4  949.3  951.6  951.8
   988.2 1001.5 1013.4 1026.7 1036.5 1071.7 1106.8 1110.4 1118.7 1145.4
  1151.2 1174.1 1183.5 1207.3 1224.4 1260.0 1269.1 1276.3 1312.5 1317.4
  1333.6 1342.8 1353.9 1386.3 1407.3 1412.3 1441.9 1458.2 1460.4 1475.6
  1487.5 1522.6 1528.3 1535.1 1593.0 1631.5 1640.3 1641.6 3029.6 3057.6
  3133.7 3141.1 3153.3 3161.7 3167.4 3179.0 3190.1 3197.4 3201.0 3201.9
  3246.5
 at 99999: n3=         111
 symm operator            1 :  F  nop=           0
 symm operator            2 :  F  nop=           0
 symm operator            3 :  F  nop=           0
 symm operator            4 :  F  nop=           0
 symm operator            5 :  F  nop=           0
 symm operator            6 :  F  nop=           0
 symm operator            7 :  F  nop=           0
 The point group of the molecule is  C1
 Symmetry rotation matrix:
   1.00000   0.00000   0.00000
   0.00000   1.00000   0.00000
   0.00000   0.00000   1.00000

 Projecting out zero-frequency components
 generating redundant internal coords
         300        3600          37
 search for int coords
   1 str   2   1   1.430
   2 str   3   2   1.356
   3 str   4   3   1.444
   4 str   5   4   1.300
   5 str   6   5   1.375
   6 str   7   6   1.403
   7 str   8   7   1.386
   8 str   9   8   1.404
   9 str  10   9   1.390
  10 str  11   6   1.418
  11 str  11  10   1.394
  12 str  12   4   1.790
  13 str  12  11   1.749
  14 str  13   1   1.359
  15 str  14  13   1.435
  16 str  15  14   1.389
  17 str  16  15   1.404
  18 str  17  16   1.516
  19 str  18  17   1.515
  20 str  19  18   1.416
  21 str  20  19   1.370
  22 str  21  20   1.747
  23 str  22  18   1.385
  24 str  22  21   1.729
  25 str  23  16   1.390
  26 str  23  22   1.438
  27 str  24  14   1.772
  28 str  24  23   1.722
  29 str  25   1   1.087
  30 str  26   2   1.087
  31 str  27   3   1.086
  32 str  28   7   1.083
  33 str  29   8   1.084
  34 str  30   9   1.084
  35 str  31  10   1.083
  36 str  32  13   1.088
  37 str  33  15   1.082
  38 str  34  17   1.096
  39 str  35  17   1.096
  40 str  36  19   1.082
  41 str  37  20   1.079
 nber stretches=          41
  42 ben   1   2   3
  43 prop tor   1   2   3   4
  44 prop tor   1   2   3  27
  45 ben   1   2  26
  46 ben   1  13  14
  47 prop tor   1  13  14  15
  48 prop tor   1  13  14  24
  49 ben   1  13  32
  50 ben   2   1  13
  51 prop tor   2   1  13  14
  52 prop tor   2   1  13  32
  53 ben   2   1  25
  54 ben   2   3   4
  55 prop tor   2   3   4   5
  56 prop tor   2   3   4  12
  57 ben   2   3  27
  58 ben   3   2  26
  59 ben   3   4   5
  60 prop tor   3   4   5   6
  61 ben   3   4  12
  62 prop tor   3   4  12  11
  63 ben   4   3  27
  64 ben   4   5   6
  65 prop tor   4   5   6   7
  66 prop tor   4   5   6  11
  67 ben   4  12  11
  68 ben   5   4  12
  69 prop tor   5   4  12  11
  70 ben   5   6   7
  71 prop tor   5   6   7   8
  72 prop tor   5   6   7  28
  73 ben   5   6  11
  74 prop tor   5   6  11  10
  75 prop tor   5   6  11  12
  76 ben   6   7   8
  77 prop tor   6   7   8   9
  78 prop tor   6   7   8  29
  79 ben   6   7  28
  80 ben   6  11  10
  81 ben   6  11  12
  82 prop tor   6  11  12   4
  83 ben   7   6  11
  84 prop tor   7   6  11  10
  85 prop tor   7   6  11  12
  86 ben   7   8   9
  87 prop tor   7   8   9  10
  88 prop tor   7   8   9  30
  89 ben   7   8  29
  90 ben   8   7  28
  91 ben   8   9  10
  92 prop tor   8   9  10  11
  93 prop tor   8   9  10  31
  94 ben   8   9  30
  95 ben   9   8  29
  96 ben   9  10  11
  97 prop tor   9  10  11   6
  98 prop tor   9  10  11  12
  99 ben   9  10  31
 100 ben  10   9  30
 101 ben  10  11  12
 102 prop tor  10  11  12   4
 103 prop tor  11   6   7   8
 104 prop tor  11   6   7  28
 105 ben  11  10  31
 106 prop tor  12   4   5   6
 107 prop tor  13   1   2   3
 108 prop tor  13   1   2  26
 109 ben  13   1  25
 110 ben  13  14  15
 111 prop tor  13  14  15  16
 112 prop tor  13  14  15  33
 113 ben  13  14  24
 114 prop tor  13  14  24  23
 115 ben  14  13  32
 116 ben  14  15  16
 117 prop tor  14  15  16  17
 118 prop tor  14  15  16  23
 119 ben  14  15  33
 120 ben  14  24  23
 121 ben  15  14  24
 122 prop tor  15  14  24  23
 123 ben  15  16  17
 124 prop tor  15  16  17  18
 125 prop tor  15  16  17  34
 126 prop tor  15  16  17  35
 127 ben  15  16  23
 128 prop tor  15  16  23  22
 129 prop tor  15  16  23  24
 130 ben  16  15  33
 131 ben  16  17  18
 132 prop tor  16  17  18  19
 133 prop tor  16  17  18  22
 134 ben  16  17  34
 135 ben  16  17  35
 136 ben  16  23  22
 137 ben  16  23  24
 138 prop tor  16  23  24  14
 139 ben  17  16  23
 140 prop tor  17  16  23  22
 141 prop tor  17  16  23  24
 142 ben  17  18  19
 143 prop tor  17  18  19  20
 144 prop tor  17  18  19  36
 145 ben  17  18  22
 146 prop tor  17  18  22  21
 147 prop tor  17  18  22  23
 148 ben  18  17  34
 149 ben  18  17  35
 150 ben  18  19  20
 151 prop tor  18  19  20  21
 152 prop tor  18  19  20  37
 153 ben  18  19  36
 154 ben  18  22  21
 155 ben  18  22  23
 156 prop tor  18  22  23  16
 157 prop tor  18  22  23  24
 158 ben  19  18  22
 159 prop tor  19  18  22  21
 160 prop tor  19  18  22  23
 161 ben  19  20  21
 162 prop tor  19  20  21  22
 163 ben  19  20  37
 164 ben  20  19  36
 165 ben  20  21  22
 166 prop tor  20  21  22  18
 167 prop tor  20  21  22  23
 168 ben  21  20  37
 169 ben  21  22  23
 170 prop tor  21  22  23  16
 171 prop tor  21  22  23  24
 172 prop tor  22  18  19  20
 173 prop tor  22  18  19  36
 174 ben  22  23  24
 175 prop tor  22  23  24  14
 176 prop tor  23  16  17  18
 177 prop tor  23  16  17  34
 178 prop tor  23  16  17  35
 179 prop tor  24  14  15  16
 180 prop tor  24  14  15  33
 181 prop tor  25   1   2   3
 182 prop tor  25   1   2  26
 183 prop tor  25   1  13  14
 184 prop tor  25   1  13  32
 185 prop tor  26   2   3   4
 186 prop tor  26   2   3  27
 187 prop tor  27   3   4   5
 188 prop tor  27   3   4  12
 189 prop tor  28   7   8   9
 190 prop tor  28   7   8  29
 191 prop tor  29   8   9  10
 192 prop tor  29   8   9  30
 193 prop tor  30   9  10  11
 194 prop tor  30   9  10  31
 195 prop tor  31  10  11   6
 196 prop tor  31  10  11  12
 197 prop tor  32  13  14  15
 198 prop tor  32  13  14  24
 199 prop tor  33  15  16  17
 200 prop tor  33  15  16  23
 201 prop tor  34  17  18  19
 202 prop tor  34  17  18  22
 203 ben  34  17  35
 204 prop tor  35  17  18  19
 205 prop tor  35  17  18  22
 206 prop tor  36  19  20  21
 207 prop tor  36  19  20  37
 208 prop tor  37  20  21  22
 nber bend=              67
 nber lin bend=           0
 nber prop tor=         100
 nber impr tor=           0
 nber tot redund int=         208
 Eigenvalues of G in red int coords
    Gval -0.00000000 -0.00000000 -0.00000000 -0.00000000 -0.00000000 -0.00000000 -0.00000000 -0.00000000
    Gval -0.00000000 -0.00000000 -0.00000000 -0.00000000 -0.00000000 -0.00000000 -0.00000000 -0.00000000
    Gval -0.00000000 -0.00000000 -0.00000000 -0.00000000 -0.00000000 -0.00000000 -0.00000000 -0.00000000
    Gval -0.00000000 -0.00000000 -0.00000000 -0.00000000 -0.00000000 -0.00000000 -0.00000000 -0.00000000
    Gval -0.00000000 -0.00000000 -0.00000000 -0.00000000 -0.00000000 -0.00000000 -0.00000000 -0.00000000
    Gval -0.00000000 -0.00000000 -0.00000000 -0.00000000 -0.00000000 -0.00000000 -0.00000000 -0.00000000
    Gval -0.00000000 -0.00000000 -0.00000000 -0.00000000 -0.00000000  0.00000000  0.00000000  0.00000000
    Gval  0.00000000  0.00000000  0.00000000  0.00000000  0.00000000  0.00000000  0.00000000  0.00000000
    Gval  0.00000000  0.00000000  0.00000000  0.00000000  0.00000000  0.00000000  0.00000000  0.00000000
    Gval  0.00000000  0.00000000  0.00000000  0.00000000  0.00000000  0.00000000  0.00000000  0.00000000
    Gval  0.00000000  0.00000000  0.00000000  0.00000000  0.00000000  0.00000000  0.00000000  0.00000000
    Gval  0.00000000  0.00000000  0.00000000  0.00000000  0.00000000  0.00000000  0.00000000  0.00000000
    Gval  0.00000000  0.00000000  0.00000000  0.00000000  0.00000000  0.00000000  0.00000000  0.00000025
    Gval  0.00000110  0.00000120  0.00000225  0.00000410  0.00000780  0.00000972  0.00001037  0.00001601
    Gval  0.00002003  0.00002281  0.00002502  0.00003337  0.00003636  0.00003900  0.00003930  0.00004136
    Gval  0.00004660  0.00005035  0.00005326  0.00005900  0.00006359  0.00006456  0.00006769  0.00008017
    Gval  0.00008743  0.00009156  0.00009319  0.00010112  0.00010446  0.00011066  0.00011307  0.00012275
    Gval  0.00012501  0.00012652  0.00013436  0.00015592  0.00016279  0.00018327  0.00019176  0.00020941
    Gval  0.00021535  0.00025673  0.00026243  0.00028339  0.00029712  0.00030281  0.00031482  0.00033215
    Gval  0.00033468  0.00035946  0.00037211  0.00038489  0.00039008  0.00039792  0.00040265  0.00042713
    Gval  0.00043602  0.00058328  0.00059065  0.00059315  0.00059634  0.00059676  0.00059750  0.00061032
    Gval  0.00061733  0.00061840  0.00062424  0.00063052  0.00065502  0.00065820  0.00067052  0.00080464
    Gval  0.00101752  0.00103259  0.00105430  0.00107846  0.00108150  0.00109128  0.00112227  0.00113900
    Gval  0.00115344  0.00116123  0.00116300  0.00117148  0.00117732  0.00118430  0.00133558  0.00138131
    Gval  0.00163310  0.00166065  0.00180113  0.00195957  0.00208221  0.00258708  0.00267466  0.00269978
    Gval  0.00285726  0.00298138  0.00302629  0.00356713  0.00357878  0.00374200  0.00402097  0.00407959
  2.496775326327811E-007  2.496775326327811E-007
  1.102730996806050E-006  2.496775326327811E-007
  1.202023458811116E-006  2.496775326327811E-007
  2.245680001448553E-006  2.496775326327811E-007
  4.097433666326701E-006  2.496775326327811E-007
  7.801841171722800E-006  2.496775326327811E-007
  9.722484321512433E-006  2.496775326327811E-007
  1.037153146670724E-005  2.496775326327811E-007
  1.601248074571138E-005  2.496775326327811E-007
  2.002802178249181E-005  2.496775326327811E-007
  2.280862393634502E-005  2.496775326327811E-007
  2.501859171189646E-005  2.496775326327811E-007
  3.336747124193382E-005  2.496775326327811E-007
  3.635624382766754E-005  2.496775326327811E-007
  3.899890000044601E-005  2.496775326327811E-007
  3.929626128984624E-005  2.496775326327811E-007
  4.135739550150322E-005  2.496775326327811E-007
  4.660286210801904E-005  2.496775326327811E-007
  5.035306595788374E-005  2.496775326327811E-007
  5.326060081092834E-005  2.496775326327811E-007
  5.899728631253702E-005  2.496775326327811E-007
  6.359062233163381E-005  2.496775326327811E-007
  6.455834675195526E-005  2.496775326327811E-007
  6.768834404568249E-005  2.496775326327811E-007
  8.017476064131543E-005  2.496775326327811E-007
  8.743016101787810E-005  2.496775326327811E-007
  9.156335940203341E-005  2.496775326327811E-007
  9.318550723362466E-005  2.496775326327811E-007
  1.011156940769982E-004  2.496775326327811E-007
  1.044573908573813E-004  2.496775326327811E-007
  1.106586825420749E-004  2.496775326327811E-007
  1.130659193379447E-004  2.496775326327811E-007
  1.227456664645000E-004  2.496775326327811E-007
  1.250090623702795E-004  2.496775326327811E-007
  1.265163656586217E-004  2.496775326327811E-007
  1.343592538341061E-004  2.496775326327811E-007
  1.559191456325206E-004  2.496775326327811E-007
  1.627865309531081E-004  2.496775326327811E-007
  1.832680413596002E-004  2.496775326327811E-007
  1.917632116750095E-004  2.496775326327811E-007
  2.094100381252603E-004  2.496775326327811E-007
  2.153546303444077E-004  2.496775326327811E-007
  2.567251157693962E-004  2.496775326327811E-007
  2.624271470648862E-004  2.496775326327811E-007
  2.833900170750584E-004  2.496775326327811E-007
  2.971210821474370E-004  2.496775326327811E-007
  3.028120395635417E-004  2.496775326327811E-007
  3.148242222223371E-004  2.496775326327811E-007
  3.321476412911094E-004  2.496775326327811E-007
  3.346750988264540E-004  2.496775326327811E-007
  3.594588784291516E-004  2.496775326327811E-007
  3.721057186850204E-004  2.496775326327811E-007
  3.848862674211073E-004  2.496775326327811E-007
  3.900774613013878E-004  2.496775326327811E-007
  3.979221968814931E-004  2.496775326327811E-007
  4.026472759001639E-004  2.496775326327811E-007
  4.271346894411298E-004  2.496775326327811E-007
  4.360151095600994E-004  2.496775326327811E-007
  5.832816696652505E-004  2.496775326327811E-007
  5.906486415433685E-004  2.496775326327811E-007
  5.931529735763041E-004  2.496775326327811E-007
  5.963369139854687E-004  2.496775326327811E-007
  5.967597987979456E-004  2.496775326327811E-007
  5.975009898780987E-004  2.496775326327811E-007
  6.103158041349930E-004  2.496775326327811E-007
  6.173311243583354E-004  2.496775326327811E-007
  6.183971618401512E-004  2.496775326327811E-007
  6.242420240652900E-004  2.496775326327811E-007
  6.305198439213661E-004  2.496775326327811E-007
  6.550226698959442E-004  2.496775326327811E-007
  6.581994223617955E-004  2.496775326327811E-007
  6.705155686793562E-004  2.496775326327811E-007
  8.046356597898880E-004  2.496775326327811E-007
  1.017518821946216E-003  2.496775326327811E-007
  1.032591902236008E-003  2.496775326327811E-007
  1.054304086498425E-003  2.496775326327811E-007
  1.078462354284454E-003  2.496775326327811E-007
  1.081495743116340E-003  2.496775326327811E-007
  1.091276212290690E-003  2.496775326327811E-007
  1.122274413389136E-003  2.496775326327811E-007
  1.138995572009492E-003  2.496775326327811E-007
  1.153439021350207E-003  2.496775326327811E-007
  1.161234193121727E-003  2.496775326327811E-007
  1.163002862695954E-003  2.496775326327811E-007
  1.171484453662252E-003  2.496775326327811E-007
  1.177324640417239E-003  2.496775326327811E-007
  1.184298399259378E-003  2.496775326327811E-007
  1.335578164006345E-003  2.496775326327811E-007
  1.381308914684192E-003  2.496775326327811E-007
  1.633102192613413E-003  2.496775326327811E-007
  1.660647194119302E-003  2.496775326327811E-007
  1.801129237993684E-003  2.496775326327811E-007
  1.959573869167093E-003  2.496775326327811E-007
  2.082213449994731E-003  2.496775326327811E-007
  2.587079025343348E-003  2.496775326327811E-007
  2.674655319706318E-003  2.496775326327811E-007
  2.699777605606054E-003  2.496775326327811E-007
  2.857255915082754E-003  2.496775326327811E-007
  2.981382882327284E-003  2.496775326327811E-007
  3.026288770901676E-003  2.496775326327811E-007
  3.567129655315311E-003  2.496775326327811E-007
  3.578776413275785E-003  2.496775326327811E-007
  3.742001696880731E-003  2.496775326327811E-007
  4.020972065508173E-003  2.496775326327811E-007
  4.079589557066903E-003  2.496775326327811E-007
 cut=1d-8, nber non-redundant internal coords=         105
 Check on Eigenvals of non-red overlap matrix:
  0.00000025  0.00000110  0.00000120  0.00000225  0.00000410  0.00000780  0.00000972  0.00001037
  0.00001601  0.00002003  0.00002281  0.00002502  0.00003337  0.00003636  0.00003900  0.00003930
  0.00004136  0.00004660  0.00005035  0.00005326  0.00005900  0.00006359  0.00006456  0.00006769
  0.00008017  0.00008743  0.00009156  0.00009319  0.00010112  0.00010446  0.00011066  0.00011307
  0.00012275  0.00012501  0.00012652  0.00013436  0.00015592  0.00016279  0.00018327  0.00019176
  0.00020941  0.00021535  0.00025673  0.00026243  0.00028339  0.00029712  0.00030281  0.00031482
  0.00033215  0.00033468  0.00035946  0.00037211  0.00038489  0.00039008  0.00039792  0.00040265
  0.00042713  0.00043602  0.00058328  0.00059065  0.00059315  0.00059634  0.00059676  0.00059750
  0.00061032  0.00061733  0.00061840  0.00062424  0.00063052  0.00065502  0.00065820  0.00067052
  0.00080464  0.00101752  0.00103259  0.00105430  0.00107846  0.00108150  0.00109128  0.00112227
  0.00113900  0.00115344  0.00116123  0.00116300  0.00117148  0.00117732  0.00118430  0.00133558
  0.00138131  0.00163310  0.00166065  0.00180113  0.00195957  0.00208221  0.00258708  0.00267466
  0.00269978  0.00285726  0.00298138  0.00302629  0.00356713  0.00357878  0.00374200  0.00402097
  0.00407959
 Checking for correct frequencies
 recalc frequencies=
    -0.0   -0.0   -0.0    0.0    0.0    0.0   17.8   19.8   23.8   45.2
    76.0   97.2  127.3  134.4  146.6  178.8  196.0  196.1  231.6  252.8
   256.0  266.2  341.1  352.0  354.7  403.7  423.6  440.7  450.2  468.8
   497.4  509.0  528.1  546.5  550.6  571.2  576.8  602.2  624.2  633.1
   647.2  660.4  699.9  710.0  715.3  736.6  771.6  773.2  788.7  822.7
   834.5  840.8  865.4  879.2  896.3  913.9  938.4  949.3  951.6  951.8
   988.2 1001.5 1013.4 1026.7 1036.5 1071.7 1106.8 1110.4 1118.7 1145.4
  1151.2 1174.1 1183.5 1207.3 1224.4 1260.0 1269.1 1276.3 1312.5 1317.4
  1333.6 1342.8 1353.9 1386.3 1407.3 1412.3 1441.9 1458.2 1460.4 1475.6
  1487.5 1522.6 1528.3 1535.1 1593.0 1631.5 1640.3 1641.6 3029.6 3057.6
  3133.7 3141.1 3153.3 3161.7 3167.4 3179.0 3190.1 3197.4 3201.0 3201.9
  3246.5
 recalc symmetries=
                                                                       
                                                                       
                                                                       
                                                                       
                                                                       
                                                                       
                                                                       
                                                                       
                                                                       
                                                                       
                                                                       
        
 recalc freqs check OK
 Zero-point lengths:
 10.0000 10.0000 10.0000 10.0000 10.0000 10.0000 58.7472 55.6918 50.8137 36.8652
 28.4369 25.1436 21.9737 21.3824 20.4779 18.5412 17.7099 17.7021 16.2892 15.5923
 15.4946 15.1945 13.4240 13.2140 13.1639 12.3390 12.0451 11.8099 11.6842 11.4501
 11.1163 10.9888 10.7878 10.6049 10.5654 10.3729 10.3226 10.1022  9.9226  9.8527
  9.7446  9.6471  9.3710  9.3041  9.2693  9.1344  8.9247  8.9156  8.8276  8.6430
  8.5819  8.5497  8.4274  8.3610  8.2806  8.2006  8.0928  8.0461  8.0364  8.0356
  7.8864  7.8338  7.7877  7.7369  7.7003  7.5728  7.4519  7.4398  7.4122  7.3251
  7.3067  7.2351  7.2062  7.1348  7.0850  6.9841  6.9591  6.9393  6.8429  6.8302
  6.7886  6.7654  6.7376  6.6584  6.6085  6.5969  6.5286  6.4921  6.4872  6.4537
  6.4279  6.3533  6.3416  6.3275  6.2113  6.1376  6.1212  6.1187  4.5040  4.4834
  4.4286  4.4234  4.4148  4.4090  4.4050  4.3969  4.3893  4.3843  4.3818  4.3812
  4.3510
 highest evec of mol 2
 -0.0000  0.0000  0.0001
 -0.0000  0.0000 -0.0001
 -0.0001  0.0000  0.0000
  0.0000 -0.0000 -0.0000
 -0.0000 -0.0000  0.0000
 -0.0000  0.0000  0.0000
 -0.0000  0.0000 -0.0000
 -0.0000  0.0000 -0.0001
  0.0000 -0.0000 -0.0000
  0.0001 -0.0000  0.0000
 -0.0000  0.0000  0.0000
 -0.0000  0.0000 -0.0000
 -0.0000  0.0000 -0.0002
 -0.0002  0.0000  0.0001
  0.0001 -0.0000  0.0001
  0.0003 -0.0001  0.0001
  0.0001 -0.0000 -0.0002
 -0.0039  0.0004  0.0055
 -0.0229  0.0090 -0.0653
  0.2586 -0.0409 -0.1229
  0.0004 -0.0002  0.0021
 -0.0033  0.0005  0.0013
 -0.0004  0.0001 -0.0001
  0.0000 -0.0000 -0.0001
 -0.0000  0.0000 -0.0000
  0.0001 -0.0000  0.0002
  0.0000 -0.0000  0.0001
  0.0001 -0.0000  0.0000
  0.0000 -0.0000  0.0002
 -0.0001  0.0000  0.0001
 -0.0002  0.0000 -0.0001
  0.0002 -0.0001  0.0003
 -0.0004  0.0001 -0.0001
  0.0003 -0.0001 -0.0001
  0.0003  0.0000 -0.0000
  0.0291 -0.0184  0.1822
 -0.8207  0.1268  0.4329
 Enter nber and list of atoms to keep of mol #2
 keep list:          37           1           2           3           4
           5           6           7           8           9          10
          11          12          13          14          15          16
          17          18          19          20          21          22
          23          24          25          26          27          28
          29          30          31          32          33          34
          35          36          37
 reordering atoms
           1 -0.471665722445958     
           2  -1.84464600365909     
           3  -2.89391995988543     
           4  -4.27056889156999     
           5  -4.68204156827986     
           6  -6.05485073952254     
           7  -6.79301868734968     
           8  -8.17737899067014     
           9  -8.84530127165891     
          10  -8.13653541273166     
          11  -6.74368156640950     
          12  -5.57656907090316     
          13  0.558791588608763     
          14   1.95839787994402     
          15   2.60655380236640     
          16   4.00516737417477     
          17   5.19712076602569     
          18   6.35664342473136     
          19   7.77147034330071     
          20   8.34496249724165     
          21   7.16186210981479     
          22   5.88121700430669     
          23   4.44314402400103     
          24   3.13320464728619     
          25 -0.265066151705883     
          26  -2.06319529927283     
          27  -2.71657183241326     
          28  -6.26397634054856     
          29  -8.75498626697859     
          30  -9.92889458255680     
          31  -8.65573714973644     
          32  0.307861032692038     
          33   2.07036203033012     
          34   5.20753245325808     
          35   5.20628933240072     
          36   8.35094374789878     
          37   9.39339685426603     
           1           1
           2           2
           3           3
           4           4
           5           5
           6           6
           7           7
           8           8
           9           9
          10          10
          11          11
          12          12
          13          13
          14          14
          15          15
          16          16
          17          17
          18          18
          19          19
          20          20
          21          21
          22          22
          23          23
          24          24
          25          25
          26          26
          27          27
          28          28
          29          29
          30          30
          31          31
          32          32
          33          33
          34          34
          35          35
          36          36
          37          37
 initial cartes coords mol 1
   6   0.00108   0.45173  -0.47578
   6   0.00126   0.08288  -1.82689
   6   0.00091   0.98215  -2.88490
   6   0.00059   0.57583  -4.23813
   7   0.00050  -0.67273  -4.67301
   6  -0.00008  -0.74046  -6.02866
   6  -0.00044  -1.93221  -6.78439
   6  -0.00120  -1.85952  -8.16536
   6  -0.00159  -0.61811  -8.82774
   6  -0.00121   0.57513  -8.10966
   6  -0.00046   0.51048  -6.72015
  16   0.00021   1.81056  -5.55247
   6   0.00111  -0.46563   0.57599
   6   0.00098  -0.13497   1.93889
   6   0.00071   1.13818   2.56645
   6   0.00049   1.05809   3.94744
   6  -0.00058   2.03343   5.11030
   6  -0.00126   1.09519   6.29963
   6  -0.00151   1.20071   7.70140
   6  -0.00098  -0.03274   8.31643
  16  -0.00049  -1.35923   7.17654
   6  -0.00070  -0.23410   5.85406
   6   0.00059  -0.26546   4.44021
  16   0.00092  -1.44052   3.16657
   1   0.00076   1.51371  -0.24288
   1   0.00152  -0.97405  -2.07790
   1   0.00062   2.04761  -2.67686
   1  -0.00015  -2.88089  -6.26178
   1  -0.00149  -2.77239  -8.75032
   1  -0.00218  -0.58818  -9.91124
   1  -0.00151   1.52836  -8.62472
   1   0.00114  -1.52060   0.31585
   1   0.00068   2.05837   1.99841
   1   0.88020   2.68517   5.09742
   1  -0.88153   2.68488   5.09587
   1  -0.00202   2.12974   8.25679
   1  -0.00124  -0.25113   9.37323
 initial cartes coords mol 2
   6   0.00216   0.53769  -0.47167
   6   0.00247   0.13712  -1.84465
   6   0.00072   0.99577  -2.89392
   6   0.00060   0.55936  -4.27057
   7   0.00347  -0.67389  -4.68204
   6   0.00203  -0.75726  -6.05485
   6   0.00449  -1.95025  -6.79302
   6   0.00252  -1.88873  -8.17738
   6  -0.00186  -0.65356  -8.84530
   6  -0.00431   0.54182  -8.13654
   6  -0.00232   0.48163  -6.74368
  16  -0.00442   1.78417  -5.57657
   6   0.00271  -0.34843   0.55879
   6   0.00236  -0.03026   1.95840
   6   0.00440   1.19812   2.60655
   6   0.00298   1.07930   4.00517
   6   0.00419   2.01542   5.19712
   6   0.00128   1.04060   6.35664
   6   0.00090   1.10932   7.77147
   6  -0.00191  -0.13529   8.34496
  16  -0.00411  -1.42092   7.16186
   6  -0.00127  -0.25976   5.88122
   6  -0.00014  -0.23957   4.44314
  16  -0.00124  -1.35661   3.13320
   1   0.00111   1.60513  -0.26507
   1   0.00399  -0.92749  -2.06320
   1  -0.00098   2.06684  -2.71657
   1   0.00785  -2.89532  -6.26398
   1   0.00438  -2.80592  -8.75499
   1  -0.00336  -0.62993  -9.92889
   1  -0.00765   1.49259  -8.65574
   1   0.00324  -1.40661   0.30786
   1   0.00711   2.13802   2.07036
   1   0.88660   2.66473   5.20753
   1  -0.87553   2.66842   5.20629
   1   0.00254   2.02324   8.35094
   1  -0.00295  -0.38975   9.39340
 loop 1 0
 mod cartes coords mol 2
   6   0.00216   0.53769  -0.47167
   6   0.00247   0.13712  -1.84465
   6   0.00072   0.99577  -2.89392
   6   0.00060   0.55936  -4.27057
   7   0.00347  -0.67389  -4.68204
   6   0.00203  -0.75726  -6.05485
   6   0.00449  -1.95025  -6.79302
   6   0.00252  -1.88873  -8.17738
   6  -0.00186  -0.65356  -8.84530
   6  -0.00431   0.54182  -8.13654
   6  -0.00232   0.48163  -6.74368
  16  -0.00442   1.78417  -5.57657
   6   0.00271  -0.34843   0.55879
   6   0.00236  -0.03026   1.95840
   6   0.00440   1.19812   2.60655
   6   0.00298   1.07930   4.00517
   6   0.00419   2.01542   5.19712
   6   0.00128   1.04060   6.35664
   6   0.00090   1.10932   7.77147
   6  -0.00191  -0.13529   8.34496
  16  -0.00411  -1.42092   7.16186
   6  -0.00127  -0.25976   5.88122
   6  -0.00014  -0.23957   4.44314
  16  -0.00124  -1.35661   3.13320
   1   0.00111   1.60513  -0.26507
   1   0.00399  -0.92749  -2.06320
   1  -0.00098   2.06684  -2.71657
   1   0.00785  -2.89532  -6.26398
   1   0.00438  -2.80592  -8.75499
   1  -0.00336  -0.62993  -9.92889
   1  -0.00765   1.49259  -8.65574
   1   0.00324  -1.40661   0.30786
   1   0.00711   2.13802   2.07036
   1   0.88660   2.66473   5.20753
   1  -0.87553   2.66842   5.20629
   1   0.00254   2.02324   8.35094
   1  -0.00295  -0.38975   9.39340
 read in order, maxerr=  0.14 for atom  36
 final axis swaps:           1           1           1
 final xyz swap pattern=           1
 reorder list:
   1   2   3   4   5   6   7   8   9  10  11  12  13  14  15  16  17  18  19  20
  21  22  23  24  25  26  27  28  29  30  31  32  33  34  35  36  37
 axis signs=           1           1           1
  6     0.002164  0.537687 -0.471666     0.001079  0.451730 -0.475782
  6     0.002467  0.137118 -1.844646     0.001260  0.082885 -1.826890
  6     0.000722  0.995773 -2.893920     0.000909  0.982150 -2.884902
  6     0.000605  0.559364 -4.270569     0.000593  0.575834 -4.238127
  7     0.003470 -0.673893 -4.682042     0.000500 -0.672730 -4.673010
  6     0.002029 -0.757260 -6.054851    -0.000080 -0.740458 -6.028657
  6     0.004494 -1.950248 -6.793019    -0.000442 -1.932214 -6.784389
  6     0.002521 -1.888728 -8.177379    -0.001198 -1.859520 -8.165362
  6    -0.001863 -0.653565 -8.845301    -0.001591 -0.618109 -8.827741
  6    -0.004305  0.541819 -8.136535    -0.001211  0.575126 -8.109657
  6    -0.002318  0.481630 -6.743682    -0.000456  0.510479 -6.720151
 16    -0.004423  1.784167 -5.576569     0.000209  1.810555 -5.552475
  6     0.002705 -0.348429  0.558792     0.001106 -0.465632  0.575991
  6     0.002360 -0.030265  1.958398     0.000977 -0.134972  1.938887
  6     0.004395  1.198120  2.606554     0.000710  1.138181  2.566451
  6     0.002981  1.079305  4.005167     0.000494  1.058087  3.947443
  6     0.004186  2.015422  5.197121    -0.000575  2.033426  5.110301
  6     0.001279  1.040601  6.356643    -0.001259  1.095192  6.299629
  6     0.000899  1.109316  7.771470    -0.001505  1.200711  7.701402
  6    -0.001907 -0.135289  8.344962    -0.000976 -0.032745  8.316427
 16    -0.004115 -1.420924  7.161862    -0.000491 -1.359232  7.176542
  6    -0.001269 -0.259758  5.881217    -0.000701 -0.234097  5.854061
  6    -0.000137 -0.239570  4.443144     0.000592 -0.265465  4.440213
 16    -0.001241 -1.356609  3.133205     0.000916 -1.440525  3.166574
  1     0.001107  1.605131 -0.265066     0.000763  1.513706 -0.242877
  1     0.003993 -0.927495 -2.063195     0.001517 -0.974050 -2.077897
  1    -0.000983  2.066843 -2.716572     0.000619  2.047608 -2.676864
  1     0.007853 -2.895324 -6.263976    -0.000154 -2.880894 -6.261780
  1     0.004382 -2.805919 -8.754986    -0.001492 -2.772389 -8.750318
  1    -0.003361 -0.629933 -9.928895    -0.002183 -0.588178 -9.911236
  1    -0.007653  1.492594 -8.655737    -0.001509  1.528357 -8.624723
  1     0.003238 -1.406612  0.307861     0.001136 -1.520598  0.315845
  1     0.007107  2.138023  2.070362     0.000679  2.058374  1.998410
  1     0.886599  2.664725  5.207532     0.880203  2.685175  5.097418
  1    -0.875532  2.668418  5.206289    -0.881535  2.684880  5.095872
  1     0.002545  2.023242  8.350944    -0.002024  2.129745  8.256787
  1    -0.002953 -0.389748  9.393397    -0.001238 -0.251133  9.373231
 generating redundant internal coords
         300        3600          37
 Adding extra bonds for z output only
           6           6           6           6           7           6
           6           6           6           6           6          16
           6           6           6           6           6           6
           6           6          16           6           6          16
           1           1           1           1           1           1
           1           1           1           1           1           1
           1
 search for int coords
   1 str   2   1   1.430
   2 str   3   2   1.356
   3 str   4   3   1.444
   4 str   5   4   1.300
   5 str   6   5   1.375
   6 str   7   6   1.403
   7 str   8   7   1.386
   8 str   9   8   1.404
   9 str  10   9   1.390
  10 str  11   6   1.418
  11 str  11  10   1.394
  12 str  12   4   1.790
  13 str  12  11   1.749
  14 str  13   1   1.359
  15 str  14  13   1.435
  16 str  15  14   1.389
  17 str  16  15   1.404
  18 str  17  16   1.516
  19 str  18  17   1.515
  20 str  19  18   1.416
  21 str  20  19   1.370
  22 str  21  20   1.747
  23 str  22  18   1.385
  24 str  22  21   1.729
  25 str  23  16   1.390
  26 str  23  22   1.438
  27 str  24  14   1.772
  28 str  24  23   1.722
  29 str  25   1   1.087
  30 str  26   2   1.087
  31 str  27   3   1.086
  32 str  28   7   1.083
  33 str  29   8   1.084
  34 str  30   9   1.084
  35 str  31  10   1.083
  36 str  32  13   1.088
  37 str  33  15   1.082
  38 str  34  17   1.096
  39 str  35  17   1.096
  40 str  36  19   1.082
  41 str  37  20   1.079
 nber stretches=          41
  42 ben   1   2   3
  43 prop tor   1   2   3   4
  44 prop tor   1   2   3  27
  45 ben   1   2  26
  46 ben   1  13  14
  47 prop tor   1  13  14  15
  48 prop tor   1  13  14  24
  49 ben   1  13  32
  50 ben   2   1  13
  51 prop tor   2   1  13  14
  52 prop tor   2   1  13  32
  53 ben   2   1  25
  54 ben   2   3   4
  55 prop tor   2   3   4   5
  56 prop tor   2   3   4  12
  57 ben   2   3  27
  58 ben   3   2  26
  59 ben   3   4   5
  60 prop tor   3   4   5   6
  61 ben   3   4  12
  62 prop tor   3   4  12  11
  63 ben   4   3  27
  64 ben   4   5   6
  65 prop tor   4   5   6   7
  66 prop tor   4   5   6  11
  67 ben   4  12  11
  68 ben   5   4  12
  69 prop tor   5   4  12  11
  70 ben   5   6   7
  71 prop tor   5   6   7   8
  72 prop tor   5   6   7  28
  73 ben   5   6  11
  74 prop tor   5   6  11  10
  75 prop tor   5   6  11  12
  76 ben   6   7   8
  77 prop tor   6   7   8   9
  78 prop tor   6   7   8  29
  79 ben   6   7  28
  80 ben   6  11  10
  81 ben   6  11  12
  82 prop tor   6  11  12   4
  83 ben   7   6  11
  84 prop tor   7   6  11  10
  85 prop tor   7   6  11  12
  86 ben   7   8   9
  87 prop tor   7   8   9  10
  88 prop tor   7   8   9  30
  89 ben   7   8  29
  90 ben   8   7  28
  91 ben   8   9  10
  92 prop tor   8   9  10  11
  93 prop tor   8   9  10  31
  94 ben   8   9  30
  95 ben   9   8  29
  96 ben   9  10  11
  97 prop tor   9  10  11   6
  98 prop tor   9  10  11  12
  99 ben   9  10  31
 100 ben  10   9  30
 101 ben  10  11  12
 102 prop tor  10  11  12   4
 103 prop tor  11   6   7   8
 104 prop tor  11   6   7  28
 105 ben  11  10  31
 106 prop tor  12   4   5   6
 107 prop tor  13   1   2   3
 108 prop tor  13   1   2  26
 109 ben  13   1  25
 110 ben  13  14  15
 111 prop tor  13  14  15  16
 112 prop tor  13  14  15  33
 113 ben  13  14  24
 114 prop tor  13  14  24  23
 115 ben  14  13  32
 116 ben  14  15  16
 117 prop tor  14  15  16  17
 118 prop tor  14  15  16  23
 119 ben  14  15  33
 120 ben  14  24  23
 121 ben  15  14  24
 122 prop tor  15  14  24  23
 123 ben  15  16  17
 124 prop tor  15  16  17  18
 125 prop tor  15  16  17  34
 126 prop tor  15  16  17  35
 127 ben  15  16  23
 128 prop tor  15  16  23  22
 129 prop tor  15  16  23  24
 130 ben  16  15  33
 131 ben  16  17  18
 132 prop tor  16  17  18  19
 133 prop tor  16  17  18  22
 134 ben  16  17  34
 135 ben  16  17  35
 136 ben  16  23  22
 137 ben  16  23  24
 138 prop tor  16  23  24  14
 139 ben  17  16  23
 140 prop tor  17  16  23  22
 141 prop tor  17  16  23  24
 142 ben  17  18  19
 143 prop tor  17  18  19  20
 144 prop tor  17  18  19  36
 145 ben  17  18  22
 146 prop tor  17  18  22  21
 147 prop tor  17  18  22  23
 148 ben  18  17  34
 149 ben  18  17  35
 150 ben  18  19  20
 151 prop tor  18  19  20  21
 152 prop tor  18  19  20  37
 153 ben  18  19  36
 154 ben  18  22  21
 155 ben  18  22  23
 156 prop tor  18  22  23  16
 157 prop tor  18  22  23  24
 158 ben  19  18  22
 159 prop tor  19  18  22  21
 160 prop tor  19  18  22  23
 161 ben  19  20  21
 162 prop tor  19  20  21  22
 163 ben  19  20  37
 164 ben  20  19  36
 165 ben  20  21  22
 166 prop tor  20  21  22  18
 167 prop tor  20  21  22  23
 168 ben  21  20  37
 169 ben  21  22  23
 170 prop tor  21  22  23  16
 171 prop tor  21  22  23  24
 172 prop tor  22  18  19  20
 173 prop tor  22  18  19  36
 174 ben  22  23  24
 175 prop tor  22  23  24  14
 176 prop tor  23  16  17  18
 177 prop tor  23  16  17  34
 178 prop tor  23  16  17  35
 179 prop tor  24  14  15  16
 180 prop tor  24  14  15  33
 181 prop tor  25   1   2   3
 182 prop tor  25   1   2  26
 183 prop tor  25   1  13  14
 184 prop tor  25   1  13  32
 185 prop tor  26   2   3   4
 186 prop tor  26   2   3  27
 187 prop tor  27   3   4   5
 188 prop tor  27   3   4  12
 189 prop tor  28   7   8   9
 190 prop tor  28   7   8  29
 191 prop tor  29   8   9  10
 192 prop tor  29   8   9  30
 193 prop tor  30   9  10  11
 194 prop tor  30   9  10  31
 195 prop tor  31  10  11   6
 196 prop tor  31  10  11  12
 197 prop tor  32  13  14  15
 198 prop tor  32  13  14  24
 199 prop tor  33  15  16  17
 200 prop tor  33  15  16  23
 201 prop tor  34  17  18  19
 202 prop tor  34  17  18  22
 203 ben  34  17  35
 204 prop tor  35  17  18  19
 205 prop tor  35  17  18  22
 206 prop tor  36  19  20  21
 207 prop tor  36  19  20  37
 208 prop tor  37  20  21  22
 nber bend=              67
 nber lin bend=           0
 nber prop tor=         100
 nber impr tor=           0
 nber tot redund int=         208
 generating redundant internal coords
         300        3600          37
 search for int coords
   1 str   2   1   1.401
   2 str   3   2   1.389
   3 str   4   3   1.413
   4 str   5   4   1.322
   5 str   6   5   1.357
   6 str   7   6   1.411
   7 str   8   7   1.383
   8 str   9   8   1.407
   9 str  10   9   1.393
  10 str  11   6   1.429
  11 str  11  10   1.391
  12 str  12   4   1.803
  13 str  12  11   1.747
  14 str  13   1   1.396
  15 str  14  13   1.402
  16 str  15  14   1.419
  17 str  16  15   1.383
  18 str  17  16   1.518
  19 str  18  17   1.515
  20 str  19  18   1.406
  21 str  20  19   1.378
  22 str  21  20   1.749
  23 str  22  18   1.402
  24 str  22  21   1.736
  25 str  23  16   1.412
  26 str  23  22   1.414
  27 str  24  14   1.792
  28 str  24  23   1.733
  29 str  25   1   1.087
  30 str  26   2   1.086
  31 str  27   3   1.086
  32 str  28   7   1.083
  33 str  29   8   1.084
  34 str  30   9   1.084
  35 str  31  10   1.083
  36 str  32  13   1.087
  37 str  33  15   1.081
  38 str  34  17   1.096
  39 str  35  17   1.096
  40 str  36  19   1.082
  41 str  37  20   1.079
 nber stretches=          41
  42 ben   1   2   3
  43 prop tor   1   2   3   4
  44 prop tor   1   2   3  27
  45 ben   1   2  26
  46 ben   1  13  14
  47 prop tor   1  13  14  15
  48 prop tor   1  13  14  24
  49 ben   1  13  32
  50 ben   2   1  13
  51 prop tor   2   1  13  14
  52 prop tor   2   1  13  32
  53 ben   2   1  25
  54 ben   2   3   4
  55 prop tor   2   3   4   5
  56 prop tor   2   3   4  12
  57 ben   2   3  27
  58 ben   3   2  26
  59 ben   3   4   5
  60 prop tor   3   4   5   6
  61 ben   3   4  12
  62 prop tor   3   4  12  11
  63 ben   4   3  27
  64 ben   4   5   6
  65 prop tor   4   5   6   7
  66 prop tor   4   5   6  11
  67 ben   4  12  11
  68 ben   5   4  12
  69 prop tor   5   4  12  11
  70 ben   5   6   7
  71 prop tor   5   6   7   8
  72 prop tor   5   6   7  28
  73 ben   5   6  11
  74 prop tor   5   6  11  10
  75 prop tor   5   6  11  12
  76 ben   6   7   8
  77 prop tor   6   7   8   9
  78 prop tor   6   7   8  29
  79 ben   6   7  28
  80 ben   6  11  10
  81 ben   6  11  12
  82 prop tor   6  11  12   4
  83 ben   7   6  11
  84 prop tor   7   6  11  10
  85 prop tor   7   6  11  12
  86 ben   7   8   9
  87 prop tor   7   8   9  10
  88 prop tor   7   8   9  30
  89 ben   7   8  29
  90 ben   8   7  28
  91 ben   8   9  10
  92 prop tor   8   9  10  11
  93 prop tor   8   9  10  31
  94 ben   8   9  30
  95 ben   9   8  29
  96 ben   9  10  11
  97 prop tor   9  10  11   6
[...]
                 0.5469    29.9          79      1312.
  79      1277. -0.3307    10.9   100.1  76      1260.
                 0.7949    63.2          78      1276.
  80      1291.  0.3735    14.0   100.4  76      1260.
                 0.3777    14.3          78      1276.
                -0.7384    54.5          81      1334.
  81      1312.  0.8644    74.7    99.8  83      1354.
  82      1335. -0.8376    70.2   100.0  80      1317.
                 0.4745    22.5          82      1343.
  83      1351.  0.3631    13.2   100.0  80      1317.
                 0.7655    58.6          82      1343.
  84      1357.  0.4332    18.8    99.8  84      1386.
                -0.7006    49.1          86      1412.
  85      1390. -0.7137    50.9    99.4  84      1386.
                -0.4728    22.4          86      1412.
  86      1425.  0.3989    15.9   100.6  84      1386.
                -0.5481    30.0          85      1407.
                 0.4337    18.8          88      1458.
  87      1435. -0.5596    31.3    99.9  87      1442.
                -0.3173    10.1          88      1458.
                -0.5659    32.0          94      1535.
  88      1444.  0.5718    32.7   100.1  85      1407.
                -0.6271    39.3          87      1442.
  89      1457. -0.3453    11.9   100.0  85      1407.
                -0.6309    39.8          88      1458.
                 0.5133    26.3          94      1535.
  90      1465.  0.4094    16.8   100.2  88      1458.
                 0.6324    40.0          89      1460.
                -0.4511    20.4          92      1523.
  91      1475. -0.3843    14.8   100.2  89      1460.
                -0.6283    39.5          91      1487.
                -0.4820    23.2          93      1528.
  92      1491. -0.6970    48.6   100.2  91      1487.
                 0.3939    15.5          92      1523.
                 0.5120    26.2          93      1528.
  93      1497.  0.3918    15.4   100.0  89      1460.
                 0.5418    29.4          92      1523.
                -0.5746    33.0          93      1528.
                 0.3416    11.7          94      1535.
  94      1512.  0.7958    63.3   100.6  90      1476.
                -0.4151    17.2          94      1535.
  95      1553.  0.6941    48.2   100.2  96      1632.
                -0.5078    25.8          97      1640.
  96      1570.  0.9114    83.1   100.0  98      1642.
  97      1575. -0.9417    88.7   100.0  95      1593.
  98      1619.  0.6345    40.3   100.1  96      1632.
                 0.7349    54.0          97      1640.
  99      3024. -1.0000   100.0   100.0  99      3030.
 100      3049. -1.0000   100.0   100.0 100      3058.
 101      3137. -0.9109    83.0   100.0 101      3134.
                 0.4068    16.5         102      3141.
 102      3147.  0.4040    16.3   100.0 101      3134.
                 0.9114    83.1         102      3141.
 103      3155. -0.9832    96.7   100.0 103      3153.
 104      3164. -0.9855    97.1   100.0 104      3162.
 105      3165. -0.9963    99.3   100.0 105      3167.
 106      3177.  0.9964    99.3   100.0 106      3179.
 107      3189. -0.9978    99.6   100.0 107      3190.
 108      3196.  0.9988    99.8   100.0 108      3197.
 109      3199. -0.9914    98.3   100.0 109      3201.
 110      3209. -0.9914    98.3   100.0 110      3202.
 111      3244. -1.0000   100.0   100.0 111      3246.
 nber times 1st assigned=           1           0
 nber times 1st assigned=           2           0
 nber times 1st assigned=           3           0
 nber times 1st assigned=           4           0
 nber times 1st assigned=           5           0
 nber times 1st assigned=           6           0
 nber times 1st assigned=           7           0
 nber times 1st assigned=           8           0
 nber times 1st assigned=           9           0
 nber times 1st assigned=          10           0
 nber times 1st assigned=          11           0
 nber times 1st assigned=          12           0
 nber times 1st assigned=          13           0
 nber times 1st assigned=          14           0
 nber times 1st assigned=          15           0
 nber times 1st assigned=          16           0
 nber times 1st assigned=          17           0
 nber times 1st assigned=          18           0
 nber times 1st assigned=          19           0
 nber times 1st assigned=          20           0
 nber times 1st assigned=          21           0
 nber times 1st assigned=          22           0
 nber times 1st assigned=          23           0
 nber times 1st assigned=          24           0
 nber times 1st assigned=          25           0
 nber times 1st assigned=          26           0
 nber times 1st assigned=          27           0
 nber times 1st assigned=          28           0
 nber times 1st assigned=          29           0
 nber times 1st assigned=          30           0
 nber times 1st assigned=          31           0
 nber times 1st assigned=          32           0
 nber times 1st assigned=          33           0
 nber times 1st assigned=          34           0
 nber times 1st assigned=          35           0
 nber times 1st assigned=          36           0
 nber times 1st assigned=          37           0
 nber times 1st assigned=          38           0
 nber times 1st assigned=          39           0
 nber times 1st assigned=          40           0
 nber times 1st assigned=          41           0
 nber times 1st assigned=          42           0
 nber times 1st assigned=          43           0
 nber times 1st assigned=          44           0
 nber times 1st assigned=          45           0
 nber times 1st assigned=          46           0
 nber times 1st assigned=          47           0
 nber times 1st assigned=          48           0
 nber times 1st assigned=          49           0
 nber times 1st assigned=          50           0
 nber times 1st assigned=          51           0
 nber times 1st assigned=          52           0
 nber times 1st assigned=          53           0
 nber times 1st assigned=          54           0
 nber times 1st assigned=          55           0
 nber times 1st assigned=          56           0
 nber times 1st assigned=          57           0
 nber times 1st assigned=          58           0
 nber times 1st assigned=          59           0
 nber times 1st assigned=          60           0
 nber times 1st assigned=          61           0
 nber times 1st assigned=          62           0
 nber times 1st assigned=          63           0
 nber times 1st assigned=          64           0
 nber times 1st assigned=          65           0
 nber times 1st assigned=          66           0
 nber times 1st assigned=          67           0
 nber times 1st assigned=          68           0
 nber times 1st assigned=          69           0
 nber times 1st assigned=          70           0
 nber times 1st assigned=          71           0
 nber times 1st assigned=          72           0
 nber times 1st assigned=          73           0
 nber times 1st assigned=          74           0
 nber times 1st assigned=          75           0
 nber times 1st assigned=          76           0
 nber times 1st assigned=          77           0
 nber times 1st assigned=          78           0
 nber times 1st assigned=          79           0
 nber times 1st assigned=          80           0
 nber times 1st assigned=          81           0
 nber times 1st assigned=          82           0
 nber times 1st assigned=          83           0
 nber times 1st assigned=          84           0
 nber times 1st assigned=          85           0
 nber times 1st assigned=          86           0
 nber times 1st assigned=          87           0
 nber times 1st assigned=          88           0
 nber times 1st assigned=          89           0
 nber times 1st assigned=          90           0
 nber times 1st assigned=          91           0
 nber times 1st assigned=          92           0
 nber times 1st assigned=          93           0
 nber times 1st assigned=          94           0
 nber times 1st assigned=          95           0
 nber times 1st assigned=          96           0
 nber times 1st assigned=          97           0
 nber times 1st assigned=          98           0
 nber times 1st assigned=          99           0
 nber times 1st assigned=         100           0
 nber times 1st assigned=         101           0
 nber times 1st assigned=         102           0
 nber times 1st assigned=         103           0
 nber times 1st assigned=         104           0
 nber times 1st assigned=         105           0
 nber times 1st assigned=         106           0
 nber times 1st assigned=         107           0
 nber times 1st assigned=         108           0
 nber times 1st assigned=         109           0
 nber times 1st assigned=         110           0
 nber times 1st assigned=         111           0
 modes represented=   105.411487774850     
 p1=
   -0.    0.   -0.    0.   -0.    0.    0.  -41.    1.    0.   35.   -0.   -0.   -5.    0.   -0.    0.   -2.   -0.   -0.
   -5.    0.   -0.    0.   -1.    1.    3.    0.    3.    0.    0.   -1.    0.   -0.    0.    3.    0.    5.    0.    0.
   -1.    2.   -0.   -0.    1.   -0.    1.   -0.   -1.    0.    1.   -0.   -0.    0.    0.    0.    1.    0.    0.    0.
    0.    0.    1.   -0.    0.    1.   -1.   -0.    0.   -1.   -0.   -1.    0.    0.    4.   -1.    0.    0.    0.   -0.
    2.   -1.    1.   -0.   -0.   -1.    1.   -1.    2.   -0.    3.   -2.   -2.   -1.   -0.    2.    0.    0.    0.    0.
    0.   -0.   -0.   -0.   -0.    0.    0.   -0.   -0.    0.    0.
 p2=
    0.   -0.    0.    0.    0.    0.    1.   -1.   41.    0.   33.   -0.    0.    6.   -0.   -0.    3.   -0.    0.   -0.
    5.    0.    0.   -1.    0.   -1.    3.    0.   -2.    0.    1.    2.   -0.    1.   -0.    1.   -0.   -5.    0.    0.
    0.   -2.    0.   -0.   -1.    0.    0.   -1.   -1.   -1.   -0.   -0.   -0.    0.    0.    1.   -0.   -0.   -0.    0.
   -0.    1.    0.    0.   -0.    1.    0.    0.   -1.    1.    0.   -0.    0.   -1.    2.    0.   -0.   -0.    3.   -0.
   -1.   -0.   -2.   -0.    2.    2.    0.    2.    1.    2.    1.    3.    2.   -0.   -0.    1.   -0.   -3.   -0.    0.
    0.    0.   -0.   -0.   -0.   -0.    0.    0.   -0.    0.    0.

 Displacement: in terms of nc of 1 THEN of nc of 2

   1     freq=    -0. Q= -0.000 lam=    -0.0     freq=    -0. Q= -0.000 lam=    -0.0
   2     freq=    -0. Q=  0.000 lam=    -0.0     freq=    -0. Q=  0.000 lam=    -0.0
   3     freq=     0. Q= -0.000 lam=     0.0     freq=    -0. Q= -0.000 lam=    -0.0
   4     freq=     0. Q=  0.000 lam=     0.0     freq=     0. Q=  0.000 lam=     0.0
   5     freq=     0. Q= -0.000 lam=     0.0     freq=     0. Q= -0.000 lam=     0.0
   6     freq=     0. Q=  0.000 lam=     0.0     freq=     0. Q=  0.000 lam=     0.0
   7     freq=    16. Q=  0.004 lam=     0.0     freq=    18. Q=  0.023 lam=     0.0
   8     freq=    23. Q= -0.793 lam=     7.2     freq=    20. Q= -0.022 lam=     0.0
   9     freq=    25. Q=  0.013 lam=     0.0     freq=    24. Q=  0.811 lam=     7.8
  10     freq=    47. Q=  0.009 lam=     0.0     freq=    45. Q=  0.007 lam=     0.0
  11     freq=    75. Q=  1.211 lam=    55.1     freq=    76. Q=  1.176 lam=    52.6
  12     freq=    93. Q= -0.005 lam=     0.0     freq=    97. Q= -0.002 lam=     0.0
  13     freq=   134. Q= -0.010 lam=     0.0     freq=   127. Q= -0.001 lam=     0.0
  14     freq=   134. Q= -0.248 lam=     4.1     freq=   134. Q= -0.279 lam=     5.2
  15     freq=   151. Q=  0.000 lam=     0.0     freq=   147. Q=  0.000 lam=     0.0
  16     freq=   176. Q= -0.002 lam=     0.0     freq=   179. Q= -0.001 lam=     0.0
  17     freq=   193. Q=  0.001 lam=     0.0     freq=   196. Q=  0.148 lam=     2.2
  18     freq=   197. Q= -0.112 lam=     1.2     freq=   196. Q= -0.027 lam=     0.1
  19     freq=   229. Q= -0.002 lam=     0.0     freq=   232. Q= -0.001 lam=     0.0
  20     freq=   244. Q= -0.001 lam=     0.0     freq=   253. Q= -0.002 lam=     0.0
  21     freq=   253. Q= -0.330 lam=    13.8     freq=   256. Q= -0.291 lam=    10.9
  22     freq=   271. Q=  0.007 lam=     0.0     freq=   266. Q=  0.005 lam=     0.0
  23     freq=   310. Q= -0.002 lam=     0.0     freq=   341. Q= -0.001 lam=     0.0
  24     freq=   331. Q=  0.003 lam=     0.0     freq=   352. Q=  0.097 lam=     1.7
  25     freq=   352. Q= -0.099 lam=     1.7     freq=   355. Q= -0.003 lam=     0.0
  26     freq=   405. Q=  0.096 lam=     1.9     freq=   404. Q=  0.108 lam=     2.3
  27     freq=   423. Q=  0.236 lam=    11.7     freq=   424. Q=  0.223 lam=    10.6
  28     freq=   437. Q=  0.000 lam=     0.0     freq=   441. Q=  0.000 lam=     0.0
  29     freq=   442. Q=  0.225 lam=    11.2     freq=   450. Q=  0.198 lam=     8.8
  30     freq=   453. Q=  0.002 lam=     0.0     freq=   469. Q=  0.002 lam=     0.0
  31     freq=   494. Q=  0.032 lam=     0.3     freq=   497. Q=  0.052 lam=     0.7
  32     freq=   504. Q= -0.131 lam=     4.3     freq=   509. Q= -0.140 lam=     5.0
  33     freq=   512. Q=  0.002 lam=     0.0     freq=   528. Q=  0.002 lam=     0.0
  34     freq=   536. Q= -0.000 lam=     0.0     freq=   546. Q= -0.072 lam=     1.4
  35     freq=   541. Q=  0.007 lam=     0.0     freq=   551. Q=  0.001 lam=     0.0
  36     freq=   561. Q=  0.241 lam=    16.3     freq=   571. Q=  0.119 lam=     4.0
  37     freq=   567. Q=  0.001 lam=     0.0     freq=   577. Q=  0.000 lam=     0.0
  38     freq=   585. Q=  0.460 lam=    62.0     freq=   602. Q=  0.515 lam=    79.9
  39     freq=   605. Q=  0.000 lam=     0.0     freq=   624. Q=  0.002 lam=     0.0
  40     freq=   628. Q=  0.001 lam=     0.0     freq=   633. Q=  0.001 lam=     0.0
  41     freq=   633. Q= -0.095 lam=     2.9     freq=   647. Q= -0.043 lam=     0.6
  42     freq=   650. Q=  0.224 lam=    16.3     freq=   660. Q=  0.244 lam=    19.7
  43     freq=   681. Q= -0.000 lam=     0.0     freq=   700. Q= -0.000 lam=     0.0
  44     freq=   700. Q= -0.053 lam=     1.0     freq=   710. Q= -0.042 lam=     0.6
  45     freq=   710. Q=  0.091 lam=     2.9     freq=   715. Q=  0.088 lam=     2.8
  46     freq=   728. Q= -0.000 lam=     0.0     freq=   737. Q= -0.000 lam=     0.0
  47     freq=   759. Q=  0.115 lam=     5.0     freq=   772. Q=  0.000 lam=     0.0
  48     freq=   768. Q= -0.000 lam=     0.0     freq=   773. Q= -0.120 lam=     5.6
  49     freq=   775. Q= -0.079 lam=     2.4     freq=   789. Q= -0.139 lam=     7.6
  50     freq=   786. Q=  0.001 lam=     0.0     freq=   823. Q=  0.071 lam=     2.1
  51     freq=   814. Q=  0.058 lam=     1.4     freq=   834. Q=  0.000 lam=     0.0
  52     freq=   817. Q= -0.001 lam=     0.0     freq=   841. Q= -0.000 lam=     0.0
  53     freq=   856. Q= -0.000 lam=     0.0     freq=   865. Q= -0.000 lam=     0.0
  54     freq=   857. Q=  0.001 lam=     0.0     freq=   879. Q=  0.000 lam=     0.0
  55     freq=   874. Q=  0.000 lam=     0.0     freq=   896. Q=  0.000 lam=     0.0
  56     freq=   891. Q=  0.002 lam=     0.0     freq=   914. Q=  0.093 lam=     3.9
  57     freq=   912. Q=  0.113 lam=     5.9     freq=   938. Q=  0.001 lam=     0.0
  58     freq=   938. Q=  0.000 lam=     0.0     freq=   949. Q=  0.000 lam=     0.0
  59     freq=   941. Q=  0.001 lam=     0.0     freq=   952. Q=  0.002 lam=     0.0
  60     freq=   945. Q=  0.034 lam=     0.5     freq=   952. Q=  0.035 lam=     0.6
  61     freq=   980. Q=  0.000 lam=     0.0     freq=   988. Q=  0.000 lam=     0.0
  62     freq=   988. Q=  0.016 lam=     0.1     freq=  1001. Q=  0.082 lam=     3.4
  63     freq=   988. Q=  0.077 lam=     2.9     freq=  1013. Q=  0.054 lam=     1.5
  64     freq=   996. Q= -0.008 lam=     0.0     freq=  1027. Q= -0.001 lam=     0.0
  65     freq=  1032. Q=  0.056 lam=     1.6     freq=  1036. Q=  0.058 lam=     1.7
  66     freq=  1064. Q=  0.150 lam=    12.0     freq=  1072. Q=  0.159 lam=    13.6
  67     freq=  1090. Q= -0.161 lam=    14.2     freq=  1107. Q= -0.014 lam=     0.1
  68     freq=  1103. Q= -0.054 lam=     1.6     freq=  1110. Q= -0.012 lam=     0.1
  69     freq=  1114. Q=  0.042 lam=     1.0     freq=  1119. Q=  0.144 lam=    11.5
  70     freq=  1143. Q= -0.113 lam=     7.3     freq=  1145. Q= -0.073 lam=     3.0
  71     freq=  1154. Q= -0.000 lam=     0.0     freq=  1151. Q= -0.000 lam=     0.0
  72     freq=  1174. Q= -0.158 lam=    14.6     freq=  1174. Q= -0.062 lam=     2.2
  73     freq=  1181. Q=  0.007 lam=     0.0     freq=  1184. Q=  0.021 lam=     0.3
  74     freq=  1211. Q=  0.039 lam=     0.9     freq=  1207. Q=  0.094 lam=     5.3
  75     freq=  1225. Q=  0.626 lam=   239.9     freq=  1224. Q=  0.349 lam=    74.7
  76     freq=  1248. Q= -0.126 lam=    10.0     freq=  1260. Q= -0.040 lam=     1.0
  77     freq=  1266. Q=  0.042 lam=     1.1     freq=  1269. Q=  0.032 lam=     0.7
  78     freq=  1272. Q=  0.007 lam=     0.0     freq=  1276. Q=  0.032 lam=     0.7
  79     freq=  1277. Q=  0.031 lam=     0.6     freq=  1312. Q=  0.435 lam=   124.4
  80     freq=  1291. Q= -0.008 lam=     0.0     freq=  1317. Q= -0.021 lam=     0.3
  81     freq=  1312. Q=  0.345 lam=    78.2     freq=  1334. Q=  0.079 lam=     4.1
  82     freq=  1335. Q= -0.111 lam=     8.2     freq=  1343. Q= -0.061 lam=     2.5
  83     freq=  1351. Q=  0.220 lam=    32.6     freq=  1354. Q=  0.351 lam=    83.2
  84     freq=  1357. Q= -0.023 lam=     0.3     freq=  1386. Q= -0.029 lam=     0.6
  85     freq=  1390. Q= -0.045 lam=     1.4     freq=  1407. Q= -0.320 lam=    71.9
  86     freq=  1425. Q= -0.093 lam=     6.1     freq=  1412. Q= -0.347 lam=    84.9
  87     freq=  1435. Q=  0.119 lam=    10.2     freq=  1442. Q=  0.034 lam=     0.8
  88     freq=  1444. Q= -0.187 lam=    25.2     freq=  1458. Q= -0.274 lam=    54.9
  89     freq=  1457. Q=  0.323 lam=    76.0     freq=  1460. Q=  0.130 lam=    12.4
  90     freq=  1465. Q= -0.017 lam=     0.2     freq=  1476. Q= -0.247 lam=    44.9
  91     freq=  1475. Q=  0.453 lam=   151.1     freq=  1487. Q=  0.119 lam=    10.6
  92     freq=  1491. Q= -0.275 lam=    56.2     freq=  1523. Q= -0.459 lam=   160.4
  93     freq=  1497. Q= -0.236 lam=    41.8     freq=  1528. Q= -0.243 lam=    45.0
  94     freq=  1512. Q= -0.177 lam=    23.8     freq=  1535. Q= -0.025 lam=     0.5
  95     freq=  1553. Q= -0.029 lam=     0.6     freq=  1593. Q= -0.023 lam=     0.4
  96     freq=  1570. Q=  0.311 lam=    76.1     freq=  1632. Q=  0.171 lam=    23.8
  97     freq=  1575. Q=  0.020 lam=     0.3     freq=  1640. Q=  0.064 lam=     3.3
  98     freq=  1619. Q=  0.008 lam=     0.1     freq=  1642. Q=  0.422 lam=   146.2
  99     freq=  3024. Q=  0.002 lam=     0.0     freq=  3030. Q=  0.002 lam=     0.0
 100     freq=  3049. Q=  0.000 lam=     0.0     freq=  3058. Q=  0.000 lam=     0.0
 101     freq=  3137. Q=  0.002 lam=     0.0     freq=  3134. Q=  0.015 lam=     0.3
 102     freq=  3147. Q= -0.013 lam=     0.2     freq=  3141. Q= -0.001 lam=     0.0
 103     freq=  3155. Q= -0.006 lam=     0.1     freq=  3153. Q= -0.010 lam=     0.1
 104     freq=  3164. Q= -0.010 lam=     0.2     freq=  3162. Q= -0.001 lam=     0.0
 105     freq=  3165. Q= -0.002 lam=     0.0     freq=  3167. Q= -0.002 lam=     0.0
 106     freq=  3177. Q=  0.001 lam=     0.0     freq=  3179. Q=  0.001 lam=     0.0
 107     freq=  3189. Q=  0.001 lam=     0.0     freq=  3190. Q=  0.001 lam=     0.0
 108     freq=  3196. Q= -0.001 lam=     0.0     freq=  3197. Q= -0.002 lam=     0.0
 109     freq=  3199. Q= -0.001 lam=     0.0     freq=  3201. Q= -0.003 lam=     0.0
 110     freq=  3209. Q=  0.011 lam=     0.2     freq=  3202. Q=  0.011 lam=     0.2
 111     freq=  3244. Q=  0.001 lam=     0.0     freq=  3246. Q=  0.001 lam=     0.0

 total reorg energy (cm**-1, kcal/mol)=     1127.     1232.      3.22      3.52
 Nber of molecules processed=           2
