 Enter ifcurve (0=recti, 1=orth curvi, 2=apprx curvi, -1 = skip
 And atom ordering flag, 0= never changes, 1= use the first order thenceforth,
  2= deduce it (does read on fail), 3= always read it
 Reading file: 
 ./thiophene-donors_4_C0S1.log                                                  
                                          
  Entering Gaussian System, Link 0=g16                                          
  
 Gaussian format, type: g94, g98, g03= F F F
  #P Geom=AllCheck Guess=TCheck SCRF=Check GenChk RB3LYP TD(FC,Read)/6-3    
 energy type= TD      
 Original G94 input coords:
  6  0.891342  0.248495  0.198424
  6  2.182149 -0.573144 -0.021691
  6  3.246179  0.296984 -0.728995
  6  2.715334 -1.147097  1.302063
  6  3.139738 -0.470670  2.414269
  6  3.594578 -1.224207  3.529569
  6  3.609999 -2.678465  3.493477
  6  3.185642 -3.354890  2.381252
  6  2.730831 -2.601353  1.265940
  6  2.240101 -2.978582  0.000925
 16  1.936601 -4.478473 -0.847367
  6  1.369132 -3.573469 -2.241706
  6  1.415820 -2.204542 -2.052280
  6  1.907268 -1.857168 -0.786240
  6  4.142991 -3.252420  4.817307
  6  3.078297 -4.121709  5.524763
  6  5.433238 -4.074924  4.597527
  6  4.418423 -1.968385  5.581638
  6  4.910797 -1.620990  6.847313
  6  4.958000 -0.252053  7.036535
 16  4.389775  0.652935  5.642493
  6  4.085404 -0.846975  4.794546
  1  1.094351  1.130817  0.813186
  1  0.128787 -0.350238  0.700170
  1  0.485921  0.588664 -0.759206
  1  3.485893  1.179616 -0.128049
  1  2.877291  0.638573 -1.700784
  1  4.166583 -0.267288 -0.890810
  1  3.133957  0.613583  2.455706
  1  3.191437 -4.439143  2.339809
  1  1.036096 -4.112990 -3.115194
  1  1.101084 -1.503973 -2.815324
  1  2.838071 -5.004321  4.923992
  1  2.158258 -3.556777  5.686332
  1  3.446881 -4.463263  6.496680
  1  5.229739 -4.957285  3.982983
  1  5.838343 -4.415145  5.555272
  1  6.196256 -3.476837  4.095709
  1  5.225846 -2.321551  7.610235
  1  5.291617  0.287480  7.909794
 nber atoms=          40
  Total Energy, E(TD-HF/TD-DFT) =  -1569.45688018                               
  
          32          49 "  -1569.45688018"
After scan for Atom:   Atom  AN      X      Y      Z        X      Y      Z        X      Y      Z   
After scan for Atom:   Atom  AN      X      Y      Z        X      Y      Z        X      Y      Z   
After scan for Atom:   Atom  AN      X      Y      Z        X      Y      Z        X      Y      Z   
After scan for Atom:   Atom  AN      X      Y      Z        X      Y      Z        X      Y      Z   
After scan for Atom:   Atom  AN      X      Y      Z        X      Y      Z        X      Y      Z   
After scan for Atom:   Atom  AN      X      Y      Z        X      Y      Z        X      Y      Z   
After scan for Atom:   Atom  AN      X      Y      Z        X      Y      Z        X      Y      Z   
After scan for Atom:   Atom  AN      X      Y      Z        X      Y      Z        X      Y      Z   
After scan for Atom:   Atom  AN      X      Y      Z        X      Y      Z        X      Y      Z   
After scan for Atom:   Atom  AN      X      Y      Z        X      Y      Z        X      Y      Z   
After scan for Atom:   Atom  AN      X      Y      Z        X      Y      Z        X      Y      Z   
After scan for Atom:   Atom  AN      X      Y      Z        X      Y      Z        X      Y      Z   
After scan for Atom:   Atom  AN      X      Y      Z        X      Y      Z        X      Y      Z   
After scan for Atom:   Atom  AN      X      Y      Z        X      Y      Z        X      Y      Z   
After scan for Atom:   Atom  AN      X      Y      Z        X      Y      Z        X      Y      Z   
After scan for Atom:   Atom  AN      X      Y      Z        X      Y      Z        X      Y      Z   
After scan for Atom:   Atom  AN      X      Y      Z        X      Y      Z        X      Y      Z   
After scan for Atom:   Atom  AN      X      Y      Z        X      Y      Z        X      Y      Z   
After scan for Atom:   Atom  AN      X      Y      Z        X      Y      Z        X      Y      Z   
After scan for Atom:   Atom  AN      X      Y      Z        X      Y      Z        X      Y      Z   
After scan for Atom:   Atom  AN      X      Y      Z        X      Y      Z        X      Y      Z   
After scan for Atom:   Atom  AN      X      Y      Z        X      Y      Z        X      Y      Z   
After scan for Atom:   Atom  AN      X      Y      Z        X      Y      Z        X      Y      Z   
After scan for Atom:   Atom  AN      X      Y      Z        X      Y      Z        X      Y      Z   
After scan for Atom:   Atom  AN      X      Y      Z        X      Y      Z        X      Y      Z   
After scan for Atom:   Atom  AN      X      Y      Z        X      Y      Z        X      Y      Z   
After scan for Atom:   Atom  AN      X      Y      Z        X      Y      Z        X      Y      Z   
After scan for Atom:   Atom  AN      X      Y      Z        X      Y      Z        X      Y      Z   
After scan for Atom:   Atom  AN      X      Y      Z        X      Y      Z        X      Y      Z   
After scan for Atom:   Atom  AN      X      Y      Z        X      Y      Z        X      Y      Z   
After scan for Atom:   Atom  AN      X      Y      Z        X      Y      Z        X      Y      Z   
After scan for Atom:   Atom  AN      X      Y      Z        X      Y      Z        X      Y      Z   
After scan for Atom:   Atom  AN      X      Y      Z        X      Y      Z        X      Y      Z   
After scan for Atom:   Atom  AN      X      Y      Z        X      Y      Z        X      Y      Z   
After scan for Atom:   Atom  AN      X      Y      Z        X      Y      Z        X      Y      Z   
After scan for Atom:   Atom  AN      X      Y      Z        X      Y      Z        X      Y      Z   
After scan for Atom:   Atom  AN      X      Y      Z        X      Y      Z        X      Y      Z   
After scan for Atom:   Atom  AN      X      Y      Z        X      Y      Z        X      Y      Z   
 g94    frequencies=
     0.0    0.0    0.0    0.0    0.0    0.0   28.9   55.1   68.7   99.4
   109.5  120.7  149.4  150.9  169.5  204.7  212.0  236.8  237.4  237.8
   267.8  280.0  285.1  297.4  312.2  357.0  363.3  390.8  414.2  416.8
   426.3  466.0  482.9  497.5  509.7  560.2  574.3  614.6  630.0  630.8
   644.8  651.6  665.7  682.7  709.2  712.8  714.5  758.0  765.1  782.8
   823.4  867.1  867.5  868.6  872.1  885.1  897.6  940.0  940.1  963.5
   967.5  978.4 1023.0 1023.1 1052.0 1076.5 1092.2 1092.3 1150.2 1150.9
  1155.9 1160.1 1212.3 1217.3 1243.9 1244.6 1268.1 1275.0 1313.5 1325.7
  1351.2 1367.4 1394.1 1394.2 1414.8 1416.3 1429.9 1442.9 1475.1 1483.1
  1483.2 1483.9 1484.0 1486.7 1492.5 1497.3 1498.8 1509.1 1509.1 1527.3
  1530.2 1654.6 3016.6 3016.7 3021.1 3021.6 3078.7 3078.8 3084.1 3084.2
  3103.6 3103.6 3105.6 3105.8 3163.1 3163.9 3194.5 3194.6 3240.1 3240.2
 g94    symmetries=
                                                 A      A      A      A
       A      A      A      A      A      A      A      A      A      A
       A      A      A      A      A      A      A      A      A      A
       A      A      A      A      A      A      A      A      A      A
       A      A      A      A      A      A      A      A      A      A
       A      A      A      A      A      A      A      A      A      A
       A      A      A      A      A      A      A      A      A      A
       A      A      A      A      A      A      A      A      A      A
       A      A      A      A      A      A      A      A      A      A
       A      A      A      A      A      A      A      A      A      A
       A      A      A      A      A      A      A      A      A      A
       A      A      A      A      A      A      A      A      A      A
 atomic masses:
 12.0000 12.0000 12.0000 12.0000 12.0000 12.0000 12.0000 12.0000 12.0000 12.0000
 31.9721 12.0000 12.0000 12.0000 12.0000 12.0000 12.0000 12.0000 12.0000 12.0000
 31.9721 12.0000  1.0078  1.0078  1.0078  1.0078  1.0078  1.0078  1.0078  1.0078
  1.0078  1.0078  1.0078  1.0078  1.0078  1.0078  1.0078  1.0078  1.0078  1.0078
 looking for force constants in 
 ./thiophene-donors_4_C0S1.fchk                                                 
  
 Cartesian Force Constants                  R   N=        7260                  
  
 n3=         120        7260
 g94-fc frequencies=
    -2.9   -2.3   -0.0    0.0    0.0    1.1   28.9   55.1   68.7   99.4
   109.5  120.7  149.5  150.9  169.5  204.7  212.0  236.8  237.4  237.8
   267.8  280.0  285.1  297.4  312.2  357.0  363.3  390.8  414.2  416.8
   426.3  466.0  482.9  497.5  509.7  560.2  574.3  614.6  630.0  630.8
   644.8  651.7  665.7  682.7  709.3  712.8  714.6  758.0  765.1  782.8
   823.5  867.2  867.6  868.6  872.1  885.1  897.6  940.0  940.2  963.5
   967.5  978.4 1023.0 1023.2 1052.1 1076.5 1092.2 1092.3 1150.2 1150.9
  1156.0 1160.1 1212.4 1217.3 1243.9 1244.6 1268.2 1275.0 1313.5 1325.8
  1351.2 1367.5 1394.1 1394.2 1414.8 1416.3 1429.9 1442.9 1475.1 1483.2
  1483.2 1483.9 1484.1 1486.7 1492.6 1497.3 1498.8 1509.2 1509.2 1527.3
  1530.3 1654.6 3016.7 3016.7 3021.2 3021.7 3078.8 3078.8 3084.2 3084.2
  3103.6 3103.7 3105.7 3105.8 3163.2 3163.9 3194.5 3194.6 3240.2 3240.3
 at 99999: n3=         120
 symm operator            1 :  F  nop=           0
 symm operator            2 :  F  nop=           0
 symm operator            3 :  F  nop=           0
 symm operator            4 :  F  nop=           0
 symm operator            5 :  F  nop=           0
 symm operator            6 :  F  nop=           0
 symm operator            7 :  F  nop=           0
 The point group of the molecule is  C1
 Symmetry rotation matrix:
   1.00000   0.00000   0.00000
   0.00000   1.00000   0.00000
   0.00000   0.00000   1.00000

 Projecting out zero-frequency components
 generating redundant internal coords
         300        3600          40
 search for int coords
   1 str   2   1   1.546
   2 str   3   2   1.546
   3 str   4   2   1.538
   4 str   5   4   1.369
   5 str   6   5   1.421
   6 str   7   6   1.455
   7 str   8   7   1.369
   8 str   9   4   1.455
   9 str   9   8   1.421
  10 str  10   9   1.408
  11 str  11  10   1.750
  12 str  12  11   1.756
  13 str  13  12   1.383
  14 str  14   2   1.519
  15 str  14  10   1.410
  16 str  14  13   1.402
  17 str  15   7   1.538
  18 str  16  15   1.546
  19 str  17  15   1.546
  20 str  18  15   1.519
  21 str  19  18   1.402
  22 str  20  19   1.383
  23 str  21  20   1.756
  24 str  22   6   1.408
  25 str  22  18   1.410
  26 str  22  21   1.750
  27 str  23   1   1.094
  28 str  24   1   1.092
  29 str  25   1   1.094
  30 str  26   3   1.094
  31 str  27   3   1.094
  32 str  28   3   1.092
  33 str  29   5   1.085
  34 str  30   8   1.085
  35 str  31  12   1.079
  36 str  32  13   1.083
  37 str  33  16   1.094
  38 str  34  16   1.092
  39 str  35  16   1.094
  40 str  36  17   1.094
  41 str  37  17   1.094
  42 str  38  17   1.092
  43 str  39  19   1.083
  44 str  40  20   1.079
 nber stretches=          44
  45 ben   1   2   3
  46 prop tor   1   2   3  26
  47 prop tor   1   2   3  27
  48 prop tor   1   2   3  28
  49 ben   1   2   4
  50 prop tor   1   2   4   5
  51 prop tor   1   2   4   9
  52 ben   1   2  14
  53 prop tor   1   2  14  10
  54 prop tor   1   2  14  13
  55 ben   2   1  23
  56 ben   2   1  24
  57 ben   2   1  25
  58 ben   2   3  26
  59 ben   2   3  27
  60 ben   2   3  28
  61 ben   2   4   5
  62 prop tor   2   4   5   6
  63 prop tor   2   4   5  29
  64 ben   2   4   9
  65 prop tor   2   4   9   8
  66 prop tor   2   4   9  10
  67 ben   2  14  10
  68 ben   2  14  13
  69 ben   3   2   4
  70 prop tor   3   2   4   5
  71 prop tor   3   2   4   9
  72 ben   3   2  14
  73 prop tor   3   2  14  10
  74 prop tor   3   2  14  13
  75 prop tor   4   2   3  26
  76 prop tor   4   2   3  27
  77 prop tor   4   2   3  28
  78 ben   4   2  14
  79 prop tor   4   2  14  10
  80 prop tor   4   2  14  13
  81 ben   4   5   6
  82 prop tor   4   5   6   7
  83 prop tor   4   5   6  22
  84 ben   4   5  29
  85 ben   4   9   8
  86 ben   4   9  10
  87 prop tor   4   9  10  11
  88 prop tor   4   9  10  14
  89 ben   5   4   9
  90 prop tor   5   4   9   8
  91 prop tor   5   4   9  10
  92 ben   5   6   7
  93 prop tor   5   6   7   8
  94 prop tor   5   6   7  15
  95 ben   5   6  22
  96 prop tor   5   6  22  18
  97 prop tor   5   6  22  21
  98 ben   6   5  29
  99 ben   6   7   8
 100 prop tor   6   7   8   9
 101 prop tor   6   7   8  30
 102 ben   6   7  15
 103 prop tor   6   7  15  16
 104 prop tor   6   7  15  17
 105 prop tor   6   7  15  18
 106 ben   6  22  18
 107 ben   6  22  21
 108 ben   7   6  22
 109 prop tor   7   6  22  18
 110 prop tor   7   6  22  21
 111 ben   7   8   9
 112 prop tor   7   8   9   4
 113 prop tor   7   8   9  10
 114 ben   7   8  30
 115 ben   7  15  16
 116 prop tor   7  15  16  33
 117 prop tor   7  15  16  34
 118 prop tor   7  15  16  35
 119 ben   7  15  17
 120 prop tor   7  15  17  36
 121 prop tor   7  15  17  37
 122 prop tor   7  15  17  38
 123 ben   7  15  18
 124 prop tor   7  15  18  19
 125 prop tor   7  15  18  22
 126 ben   8   7  15
 127 prop tor   8   7  15  16
 128 prop tor   8   7  15  17
 129 prop tor   8   7  15  18
 130 ben   8   9  10
 131 prop tor   8   9  10  11
 132 prop tor   8   9  10  14
 133 prop tor   9   4   5   6
 134 prop tor   9   4   5  29
 135 ben   9   8  30
 136 ben   9  10  11
 137 prop tor   9  10  11  12
 138 ben   9  10  14
 139 prop tor   9  10  14   2
 140 prop tor   9  10  14  13
 141 ben  10  11  12
 142 prop tor  10  11  12  13
 143 prop tor  10  11  12  31
 144 ben  10  14  13
 145 ben  11  10  14
 146 prop tor  11  10  14   2
 147 prop tor  11  10  14  13
 148 ben  11  12  13
 149 prop tor  11  12  13  14
 150 prop tor  11  12  13  32
 151 ben  11  12  31
 152 ben  12  13  14
 153 prop tor  12  13  14   2
 154 prop tor  12  13  14  10
 155 ben  12  13  32
 156 ben  13  12  31
 157 prop tor  14   2   3  26
 158 prop tor  14   2   3  27
 159 prop tor  14   2   3  28
 160 prop tor  14   2   4   5
 161 prop tor  14   2   4   9
 162 prop tor  14  10  11  12
 163 ben  14  13  32
 164 prop tor  15   7   8   9
 165 prop tor  15   7   8  30
 166 ben  15  16  33
 167 ben  15  16  34
 168 ben  15  16  35
 169 ben  15  17  36
 170 ben  15  17  37
 171 ben  15  17  38
 172 ben  15  18  19
 173 prop tor  15  18  19  20
 174 prop tor  15  18  19  39
 175 ben  15  18  22
 176 prop tor  15  18  22   6
 177 prop tor  15  18  22  21
 178 ben  16  15  17
 179 prop tor  16  15  17  36
 180 prop tor  16  15  17  37
 181 prop tor  16  15  17  38
 182 ben  16  15  18
 183 prop tor  16  15  18  19
 184 prop tor  16  15  18  22
 185 prop tor  17  15  16  33
 186 prop tor  17  15  16  34
 187 prop tor  17  15  16  35
 188 ben  17  15  18
 189 prop tor  17  15  18  19
 190 prop tor  17  15  18  22
 191 prop tor  18  15  16  33
 192 prop tor  18  15  16  34
 193 prop tor  18  15  16  35
 194 prop tor  18  15  17  36
 195 prop tor  18  15  17  37
 196 prop tor  18  15  17  38
 197 ben  18  19  20
 198 prop tor  18  19  20  21
 199 prop tor  18  19  20  40
 200 ben  18  19  39
 201 ben  18  22  21
 202 ben  19  18  22
 203 prop tor  19  18  22   6
 204 prop tor  19  18  22  21
 205 ben  19  20  21
 206 prop tor  19  20  21  22
 207 ben  19  20  40
 208 ben  20  19  39
 209 ben  20  21  22
 210 prop tor  20  21  22   6
 211 prop tor  20  21  22  18
 212 ben  21  20  40
 213 prop tor  22   6   7   8
 214 prop tor  22   6   7  15
 215 prop tor  22  18  19  20
 216 prop tor  22  18  19  39
 217 prop tor  23   1   2   3
 218 prop tor  23   1   2   4
 219 prop tor  23   1   2  14
 220 ben  23   1  24
 221 ben  23   1  25
 222 prop tor  24   1   2   3
 223 prop tor  24   1   2   4
 224 prop tor  24   1   2  14
 225 ben  24   1  25
 226 prop tor  25   1   2   3
 227 prop tor  25   1   2   4
 228 prop tor  25   1   2  14
 229 ben  26   3  27
 230 ben  26   3  28
 231 ben  27   3  28
 232 prop tor  29   5   6   7
 233 prop tor  29   5   6  22
 234 prop tor  30   8   9   4
 235 prop tor  30   8   9  10
 236 prop tor  31  12  13  14
 237 prop tor  31  12  13  32
 238 prop tor  32  13  14   2
 239 prop tor  32  13  14  10
 240 ben  33  16  34
 241 ben  33  16  35
 242 ben  34  16  35
 243 ben  36  17  37
 244 ben  36  17  38
 245 ben  37  17  38
 246 prop tor  39  19  20  21
 247 prop tor  39  19  20  40
 248 prop tor  40  20  21  22
 nber bend=              80
 nber lin bend=           0
 nber prop tor=         124
 nber impr tor=           0
 nber tot redund int=         248
 Eigenvalues of G in red int coords
    Gval -0.00000000 -0.00000000 -0.00000000 -0.00000000 -0.00000000 -0.00000000 -0.00000000 -0.00000000
    Gval -0.00000000 -0.00000000 -0.00000000 -0.00000000 -0.00000000 -0.00000000 -0.00000000 -0.00000000
    Gval -0.00000000 -0.00000000 -0.00000000 -0.00000000 -0.00000000 -0.00000000 -0.00000000 -0.00000000
    Gval -0.00000000 -0.00000000 -0.00000000 -0.00000000 -0.00000000 -0.00000000 -0.00000000 -0.00000000
    Gval -0.00000000 -0.00000000 -0.00000000 -0.00000000 -0.00000000 -0.00000000 -0.00000000 -0.00000000
    Gval -0.00000000 -0.00000000 -0.00000000 -0.00000000 -0.00000000 -0.00000000 -0.00000000 -0.00000000
    Gval -0.00000000 -0.00000000 -0.00000000 -0.00000000 -0.00000000 -0.00000000 -0.00000000 -0.00000000
    Gval -0.00000000 -0.00000000 -0.00000000 -0.00000000 -0.00000000 -0.00000000 -0.00000000 -0.00000000
    Gval -0.00000000 -0.00000000  0.00000000  0.00000000  0.00000000  0.00000000  0.00000000  0.00000000
    Gval  0.00000000  0.00000000  0.00000000  0.00000000  0.00000000  0.00000000  0.00000000  0.00000000
    Gval  0.00000000  0.00000000  0.00000000  0.00000000  0.00000000  0.00000000  0.00000000  0.00000000
    Gval  0.00000000  0.00000000  0.00000000  0.00000000  0.00000000  0.00000000  0.00000000  0.00000000
    Gval  0.00000000  0.00000000  0.00000000  0.00000000  0.00000000  0.00000000  0.00000000  0.00000000
    Gval  0.00000000  0.00000000  0.00000000  0.00000000  0.00000000  0.00000000  0.00000000  0.00000000
    Gval  0.00000000  0.00000000  0.00000000  0.00000000  0.00000000  0.00000000  0.00000000  0.00000000
    Gval  0.00000000  0.00000000  0.00000000  0.00000000  0.00000000  0.00000000  0.00000000  0.00000000
    Gval  0.00000000  0.00000000  0.00000000  0.00000000  0.00000000  0.00000000  0.00000211  0.00000381
    Gval  0.00000866  0.00000937  0.00001401  0.00001407  0.00001412  0.00002223  0.00002712  0.00003038
    Gval  0.00003283  0.00003419  0.00003819  0.00004088  0.00004259  0.00004378  0.00004632  0.00004784
    Gval  0.00005119  0.00005214  0.00005800  0.00006859  0.00007005  0.00007143  0.00007624  0.00008228
    Gval  0.00009374  0.00010137  0.00011665  0.00013076  0.00013155  0.00014240  0.00014588  0.00014829
    Gval  0.00017516  0.00017775  0.00023097  0.00023673  0.00024857  0.00024941  0.00030014  0.00032216
    Gval  0.00035798  0.00038730  0.00040352  0.00042695  0.00044242  0.00044838  0.00045737  0.00045925
    Gval  0.00050647  0.00051032  0.00052151  0.00053408  0.00053409  0.00053538  0.00055610  0.00055611
    Gval  0.00055615  0.00055615  0.00057833  0.00057836  0.00057940  0.00059400  0.00059472  0.00059819
    Gval  0.00059901  0.00061509  0.00062541  0.00062602  0.00063593  0.00063688  0.00067489  0.00067530
    Gval  0.00075851  0.00084604  0.00098368  0.00098761  0.00107770  0.00107887  0.00109562  0.00110422
    Gval  0.00110524  0.00113238  0.00113345  0.00113433  0.00117727  0.00117752  0.00117781  0.00117783
    Gval  0.00118252  0.00118253  0.00158503  0.00160772  0.00165656  0.00166805  0.00166813  0.00178255
    Gval  0.00203463  0.00213595  0.00234439  0.00234908  0.00302624  0.00302743  0.00303155  0.00303180
    Gval  0.00304322  0.00304322  0.00309041  0.00309041  0.00341821  0.00342101  0.00401230  0.00401241
  2.111490405373790E-006  2.111490405373790E-006
  3.811564145444402E-006  2.111490405373790E-006
  8.661204662458768E-006  2.111490405373790E-006
  9.366027453375712E-006  2.111490405373790E-006
  1.400607872169972E-005  2.111490405373790E-006
  1.407440203092820E-005  2.111490405373790E-006
  1.411884141757725E-005  2.111490405373790E-006
  2.222961247361629E-005  2.111490405373790E-006
  2.712339561336006E-005  2.111490405373790E-006
  3.037752091998454E-005  2.111490405373790E-006
  3.282529851147372E-005  2.111490405373790E-006
  3.419473274172463E-005  2.111490405373790E-006
  3.818911177607279E-005  2.111490405373790E-006
  4.087717946025628E-005  2.111490405373790E-006
  4.259279099840726E-005  2.111490405373790E-006
  4.377510795647443E-005  2.111490405373790E-006
  4.632266543810351E-005  2.111490405373790E-006
  4.784464111799020E-005  2.111490405373790E-006
  5.119494607478871E-005  2.111490405373790E-006
  5.214048064121499E-005  2.111490405373790E-006
  5.800469339363598E-005  2.111490405373790E-006
  6.858833289313538E-005  2.111490405373790E-006
  7.004843249988235E-005  2.111490405373790E-006
  7.142785633269825E-005  2.111490405373790E-006
  7.624223914691282E-005  2.111490405373790E-006
  8.228374662543242E-005  2.111490405373790E-006
  9.374010675879376E-005  2.111490405373790E-006
  1.013712728267801E-004  2.111490405373790E-006
  1.166468157651943E-004  2.111490405373790E-006
  1.307604722681909E-004  2.111490405373790E-006
  1.315520332109071E-004  2.111490405373790E-006
  1.424041193184732E-004  2.111490405373790E-006
  1.458788401087570E-004  2.111490405373790E-006
  1.482900437169179E-004  2.111490405373790E-006
  1.751568213834562E-004  2.111490405373790E-006
  1.777534911706661E-004  2.111490405373790E-006
  2.309678916805370E-004  2.111490405373790E-006
  2.367295768669287E-004  2.111490405373790E-006
  2.485678160088805E-004  2.111490405373790E-006
  2.494112038324641E-004  2.111490405373790E-006
  3.001403418938318E-004  2.111490405373790E-006
  3.221590378308202E-004  2.111490405373790E-006
  3.579798346894088E-004  2.111490405373790E-006
  3.873001588507627E-004  2.111490405373790E-006
  4.035157671627710E-004  2.111490405373790E-006
  4.269471260882693E-004  2.111490405373790E-006
  4.424151927494747E-004  2.111490405373790E-006
  4.483806118562928E-004  2.111490405373790E-006
  4.573680433209361E-004  2.111490405373790E-006
  4.592521458562475E-004  2.111490405373790E-006
  5.064741020666452E-004  2.111490405373790E-006
  5.103200507729510E-004  2.111490405373790E-006
  5.215143486953855E-004  2.111490405373790E-006
  5.340785428510917E-004  2.111490405373790E-006
  5.340924971795573E-004  2.111490405373790E-006
  5.353797157202930E-004  2.111490405373790E-006
  5.561022428945541E-004  2.111490405373790E-006
  5.561102428861749E-004  2.111490405373790E-006
  5.561528953935445E-004  2.111490405373790E-006
  5.561535754821384E-004  2.111490405373790E-006
  5.783312222317696E-004  2.111490405373790E-006
  5.783576307594701E-004  2.111490405373790E-006
  5.794008782403963E-004  2.111490405373790E-006
  5.940012272045756E-004  2.111490405373790E-006
  5.947222790665365E-004  2.111490405373790E-006
  5.981886199128919E-004  2.111490405373790E-006
  5.990116630572203E-004  2.111490405373790E-006
  6.150911543101313E-004  2.111490405373790E-006
  6.254066294597694E-004  2.111490405373790E-006
  6.260177202620652E-004  2.111490405373790E-006
  6.359337305258576E-004  2.111490405373790E-006
  6.368770349901914E-004  2.111490405373790E-006
  6.748907754071380E-004  2.111490405373790E-006
  6.752968963616811E-004  2.111490405373790E-006
  7.585134877036496E-004  2.111490405373790E-006
  8.460398722592267E-004  2.111490405373790E-006
  9.836793688227099E-004  2.111490405373790E-006
  9.876103911427797E-004  2.111490405373790E-006
  1.077704011068029E-003  2.111490405373790E-006
  1.078870102278454E-003  2.111490405373790E-006
  1.095622859125906E-003  2.111490405373790E-006
  1.104219367375044E-003  2.111490405373790E-006
  1.105241184078293E-003  2.111490405373790E-006
  1.132380164156251E-003  2.111490405373790E-006
  1.133446323297789E-003  2.111490405373790E-006
  1.134331695826382E-003  2.111490405373790E-006
  1.177273297857509E-003  2.111490405373790E-006
  1.177521540654590E-003  2.111490405373790E-006
  1.177811588902143E-003  2.111490405373790E-006
  1.177830199241387E-003  2.111490405373790E-006
  1.182518669767419E-003  2.111490405373790E-006
  1.182526815931341E-003  2.111490405373790E-006
  1.585034500710616E-003  2.111490405373790E-006
  1.607722096414865E-003  2.111490405373790E-006
  1.656555773827246E-003  2.111490405373790E-006
  1.668052523799839E-003  2.111490405373790E-006
  1.668126539868111E-003  2.111490405373790E-006
  1.782548669132309E-003  2.111490405373790E-006
  2.034633691167431E-003  2.111490405373790E-006
  2.135948187098569E-003  2.111490405373790E-006
  2.344390074643419E-003  2.111490405373790E-006
  2.349077570872067E-003  2.111490405373790E-006
  3.026235199222468E-003  2.111490405373790E-006
  3.027427589939981E-003  2.111490405373790E-006
  3.031552678182686E-003  2.111490405373790E-006
  3.031802788830727E-003  2.111490405373790E-006
  3.043219554105688E-003  2.111490405373790E-006
  3.043220642307021E-003  2.111490405373790E-006
  3.090408425513573E-003  2.111490405373790E-006
  3.090409702357100E-003  2.111490405373790E-006
  3.418214110718475E-003  2.111490405373790E-006
  3.421010151849136E-003  2.111490405373790E-006
  4.012301116268754E-003  2.111490405373790E-006
  4.012406532256207E-003  2.111490405373790E-006
 cut=1d-8, nber non-redundant internal coords=         114
 Check on Eigenvals of non-red overlap matrix:
  0.00000211  0.00000381  0.00000866  0.00000937  0.00001401  0.00001407  0.00001412  0.00002223
  0.00002712  0.00003038  0.00003283  0.00003419  0.00003819  0.00004088  0.00004259  0.00004378
  0.00004632  0.00004784  0.00005119  0.00005214  0.00005800  0.00006859  0.00007005  0.00007143
  0.00007624  0.00008228  0.00009374  0.00010137  0.00011665  0.00013076  0.00013155  0.00014240
  0.00014588  0.00014829  0.00017516  0.00017775  0.00023097  0.00023673  0.00024857  0.00024941
  0.00030014  0.00032216  0.00035798  0.00038730  0.00040352  0.00042695  0.00044242  0.00044838
  0.00045737  0.00045925  0.00050647  0.00051032  0.00052151  0.00053408  0.00053409  0.00053538
  0.00055610  0.00055611  0.00055615  0.00055615  0.00057833  0.00057836  0.00057940  0.00059400
  0.00059472  0.00059819  0.00059901  0.00061509  0.00062541  0.00062602  0.00063593  0.00063688
  0.00067489  0.00067530  0.00075851  0.00084604  0.00098368  0.00098761  0.00107770  0.00107887
  0.00109562  0.00110422  0.00110524  0.00113238  0.00113345  0.00113433  0.00117727  0.00117752
  0.00117781  0.00117783  0.00118252  0.00118253  0.00158503  0.00160772  0.00165656  0.00166805
  0.00166813  0.00178255  0.00203463  0.00213595  0.00234439  0.00234908  0.00302624  0.00302743
  0.00303155  0.00303180  0.00304322  0.00304322  0.00309041  0.00309041  0.00341821  0.00342101
  0.00401230  0.00401241
 Checking for correct frequencies
 recalc frequencies=
    -0.0    0.0    0.0    0.0    0.0    0.0   28.9   55.1   68.7   99.4
   109.5  120.7  149.5  150.9  169.5  204.7  212.0  236.8  237.4  237.8
   267.8  280.0  285.1  297.4  312.2  357.0  363.3  390.8  414.2  416.8
   426.3  466.0  482.9  497.5  509.7  560.2  574.3  614.6  630.0  630.8
   644.8  651.7  665.7  682.7  709.3  712.8  714.6  758.0  765.1  782.8
   823.5  867.2  867.6  868.6  872.1  885.1  897.6  940.0  940.2  963.5
   967.5  978.4 1023.0 1023.2 1052.1 1076.5 1092.2 1092.3 1150.2 1150.9
  1156.0 1160.1 1212.4 1217.3 1243.9 1244.6 1268.2 1275.0 1313.5 1325.8
  1351.2 1367.5 1394.1 1394.2 1414.8 1416.3 1429.9 1442.9 1475.1 1483.2
  1483.2 1483.9 1484.1 1486.7 1492.6 1497.3 1498.8 1509.2 1509.2 1527.3
  1530.3 1654.6 3016.7 3016.7 3021.2 3021.7 3078.8 3078.8 3084.2 3084.2
  3103.6 3103.7 3105.7 3105.8 3163.2 3163.9 3194.5 3194.6 3240.2 3240.3
 recalc symmetries=
                                                                       
                                                                       
                                                                       
                                                                       
                                                                       
                                                                       
                                                                       
                                                                       
                                                                       
                                                                       
                                                                       
                                                                       
 recalc freqs check OK
 Zero-point lengths:
 10.0000 10.0000 10.0000 10.0000 10.0000 10.0000 46.1130 33.3967 29.9060 24.8638
 23.6936 22.5693 20.2788 20.1804 19.0436 17.3280 17.0258 16.1087 16.0912 16.0772
 15.1483 14.8147 14.6824 14.3759 14.0304 13.1200 13.0064 12.5406 12.1806 12.1431
 12.0068 11.4840 11.2817 11.1146 10.9813 10.4742 10.3451  9.9999  9.8771  9.8708
  9.7629  9.7115  9.6086  9.4878  9.3088  9.2858  9.2742  9.0046  8.9626  8.8609
  8.6392  8.4188  8.4168  8.4116  8.3948  8.3329  8.2745  8.0860  8.0853  7.9868
  7.9702  7.9255  7.7510  7.7504  7.6432  7.5560  7.5014  7.5011  7.3097  7.3075
  7.2916  7.2786  7.1200  7.1054  7.0291  7.0272  6.9616  6.9429  6.8403  6.8087
  6.7443  6.7040  6.6396  6.6394  6.5910  6.5874  6.5560  6.5263  6.4548  6.4373
  6.4371  6.4356  6.4353  6.4295  6.4169  6.4068  6.4036  6.3816  6.3816  6.3435
  6.3374  6.0946  4.5137  4.5137  4.5103  4.5099  4.4679  4.4679  4.4640  4.4640
  4.4500  4.4500  4.4486  4.4484  4.4079  4.4074  4.3862  4.3862  4.3552  4.3552
 highest evec of mol 1
  0.0001  0.0001  0.0001
  0.0000 -0.0001  0.0001
 -0.0001  0.0001  0.0001
  0.0000 -0.0003  0.0001
  0.0000  0.0008  0.0001
 -0.0001 -0.0005 -0.0003
 -0.0000  0.0003 -0.0001
 -0.0000 -0.0008 -0.0001
  0.0001  0.0005  0.0003
 -0.0009 -0.0008 -0.0024
 -0.0004  0.0009 -0.0010
  0.0611  0.1091  0.1607
  0.0113 -0.0358  0.0267
 -0.0015 -0.0010 -0.0040
 -0.0000  0.0001 -0.0001
  0.0001 -0.0001 -0.0001
 -0.0001 -0.0001 -0.0001
  0.0016  0.0010  0.0040
 -0.0113  0.0358 -0.0268
 -0.0613 -0.1092 -0.1609
  0.0004 -0.0009  0.0010
  0.0009  0.0008  0.0024
 -0.0001 -0.0003 -0.0002
 -0.0003 -0.0002  0.0002
  0.0001 -0.0001  0.0001
 -0.0000 -0.0003 -0.0003
 -0.0000 -0.0001  0.0002
  0.0003 -0.0002 -0.0001
  0.0000 -0.0023 -0.0000
 -0.0000  0.0023  0.0000
 -0.2042 -0.3339 -0.5357
 -0.0356  0.0818 -0.0862
  0.0000  0.0003  0.0003
 -0.0003  0.0002  0.0001
  0.0000  0.0001 -0.0002
  0.0001  0.0003  0.0002
 -0.0001  0.0001 -0.0001
  0.0003  0.0002 -0.0002
  0.0357 -0.0819  0.0863
  0.2049  0.3345  0.5365
 generating redundant internal coords
         300        3600          40
 Adding extra bonds for z output only
           6           6           6           6           6           6
           6           6           6           6          16           6
           6           6           6           6           6           6
           6           6          16           6           1           1
           1           1           1           1           1           1
           1           1           1           1           1           1
           1           1           1           1
 search for int coords
   1 str   2   1   1.546
   2 str   3   2   1.546
   3 str   4   2   1.538
   4 str   5   4   1.369
   5 str   6   5   1.421
   6 str   7   6   1.455
   7 str   8   7   1.369
   8 str   9   4   1.455
   9 str   9   8   1.421
  10 str  10   9   1.408
  11 str  11  10   1.750
  12 str  12  11   1.756
  13 str  13  12   1.383
  14 str  14   2   1.519
  15 str  14  10   1.410
  16 str  14  13   1.402
  17 str  15   7   1.538
  18 str  16  15   1.546
  19 str  17  15   1.546
  20 str  18  15   1.519
  21 str  19  18   1.402
  22 str  20  19   1.383
  23 str  21  20   1.756
  24 str  22   6   1.408
  25 str  22  18   1.410
  26 str  22  21   1.750
  27 str  23   1   1.094
  28 str  24   1   1.092
  29 str  25   1   1.094
  30 str  26   3   1.094
  31 str  27   3   1.094
  32 str  28   3   1.092
  33 str  29   5   1.085
  34 str  30   8   1.085
  35 str  31  12   1.079
  36 str  32  13   1.083
  37 str  33  16   1.094
  38 str  34  16   1.092
  39 str  35  16   1.094
  40 str  36  17   1.094
  41 str  37  17   1.094
  42 str  38  17   1.092
  43 str  39  19   1.083
  44 str  40  20   1.079
 nber stretches=          44
  45 ben   1   2   3
  46 prop tor   1   2   3  26
  47 prop tor   1   2   3  27
  48 prop tor   1   2   3  28
  49 ben   1   2   4
  50 prop tor   1   2   4   5
  51 prop tor   1   2   4   9
  52 ben   1   2  14
  53 prop tor   1   2  14  10
  54 prop tor   1   2  14  13
  55 ben   2   1  23
  56 ben   2   1  24
  57 ben   2   1  25
  58 ben   2   3  26
  59 ben   2   3  27
  60 ben   2   3  28
  61 ben   2   4   5
  62 prop tor   2   4   5   6
  63 prop tor   2   4   5  29
  64 ben   2   4   9
  65 prop tor   2   4   9   8
  66 prop tor   2   4   9  10
  67 ben   2  14  10
  68 ben   2  14  13
  69 ben   3   2   4
  70 prop tor   3   2   4   5
  71 prop tor   3   2   4   9
  72 ben   3   2  14
  73 prop tor   3   2  14  10
  74 prop tor   3   2  14  13
  75 prop tor   4   2   3  26
  76 prop tor   4   2   3  27
  77 prop tor   4   2   3  28
  78 ben   4   2  14
  79 prop tor   4   2  14  10
  80 prop tor   4   2  14  13
  81 ben   4   5   6
  82 prop tor   4   5   6   7
  83 prop tor   4   5   6  22
  84 ben   4   5  29
  85 ben   4   9   8
  86 ben   4   9  10
  87 prop tor   4   9  10  11
  88 prop tor   4   9  10  14
  89 ben   5   4   9
  90 prop tor   5   4   9   8
  91 prop tor   5   4   9  10
  92 ben   5   6   7
  93 prop tor   5   6   7   8
  94 prop tor   5   6   7  15
  95 ben   5   6  22
  96 prop tor   5   6  22  18
  97 prop tor   5   6  22  21
  98 ben   6   5  29
  99 ben   6   7   8
 100 prop tor   6   7   8   9
 101 prop tor   6   7   8  30
 102 ben   6   7  15
 103 prop tor   6   7  15  16
 104 prop tor   6   7  15  17
 105 prop tor   6   7  15  18
 106 ben   6  22  18
 107 ben   6  22  21
 108 ben   7   6  22
 109 prop tor   7   6  22  18
 110 prop tor   7   6  22  21
 111 ben   7   8   9
 112 prop tor   7   8   9   4
 113 prop tor   7   8   9  10
 114 ben   7   8  30
 115 ben   7  15  16
 116 prop tor   7  15  16  33
 117 prop tor   7  15  16  34
 118 prop tor   7  15  16  35
 119 ben   7  15  17
 120 prop tor   7  15  17  36
 121 prop tor   7  15  17  37
 122 prop tor   7  15  17  38
 123 ben   7  15  18
 124 prop tor   7  15  18  19
 125 prop tor   7  15  18  22
 126 ben   8   7  15
 127 prop tor   8   7  15  16
 128 prop tor   8   7  15  17
 129 prop tor   8   7  15  18
 130 ben   8   9  10
 131 prop tor   8   9  10  11
 132 prop tor   8   9  10  14
 133 prop tor   9   4   5   6
 134 prop tor   9   4   5  29
 135 ben   9   8  30
 136 ben   9  10  11
 137 prop tor   9  10  11  12
 138 ben   9  10  14
 139 prop tor   9  10  14   2
 140 prop tor   9  10  14  13
 141 ben  10  11  12
 142 prop tor  10  11  12  13
 143 prop tor  10  11  12  31
 144 ben  10  14  13
 145 ben  11  10  14
 146 prop tor  11  10  14   2
 147 prop tor  11  10  14  13
 148 ben  11  12  13
 149 prop tor  11  12  13  14
 150 prop tor  11  12  13  32
 151 ben  11  12  31
 152 ben  12  13  14
 153 prop tor  12  13  14   2
 154 prop tor  12  13  14  10
 155 ben  12  13  32
 156 ben  13  12  31
 157 prop tor  14   2   3  26
 158 prop tor  14   2   3  27
 159 prop tor  14   2   3  28
 160 prop tor  14   2   4   5
 161 prop tor  14   2   4   9
 162 prop tor  14  10  11  12
 163 ben  14  13  32
 164 prop tor  15   7   8   9
 165 prop tor  15   7   8  30
 166 ben  15  16  33
 167 ben  15  16  34
 168 ben  15  16  35
 169 ben  15  17  36
 170 ben  15  17  37
 171 ben  15  17  38
 172 ben  15  18  19
 173 prop tor  15  18  19  20
 174 prop tor  15  18  19  39
 175 ben  15  18  22
 176 prop tor  15  18  22   6
 177 prop tor  15  18  22  21
 178 ben  16  15  17
 179 prop tor  16  15  17  36
 180 prop tor  16  15  17  37
 181 prop tor  16  15  17  38
 182 ben  16  15  18
 183 prop tor  16  15  18  19
 184 prop tor  16  15  18  22
 185 prop tor  17  15  16  33
 186 prop tor  17  15  16  34
 187 prop tor  17  15  16  35
 188 ben  17  15  18
 189 prop tor  17  15  18  19
 190 prop tor  17  15  18  22
 191 prop tor  18  15  16  33
 192 prop tor  18  15  16  34
 193 prop tor  18  15  16  35
 194 prop tor  18  15  17  36
 195 prop tor  18  15  17  37
 196 prop tor  18  15  17  38
 197 ben  18  19  20
 198 prop tor  18  19  20  21
 199 prop tor  18  19  20  40
 200 ben  18  19  39
 201 ben  18  22  21
 202 ben  19  18  22
 203 prop tor  19  18  22   6
 204 prop tor  19  18  22  21
 205 ben  19  20  21
 206 prop tor  19  20  21  22
 207 ben  19  20  40
 208 ben  20  19  39
 209 ben  20  21  22
 210 prop tor  20  21  22   6
 211 prop tor  20  21  22  18
 212 ben  21  20  40
 213 prop tor  22   6   7   8
 214 prop tor  22   6   7  15
 215 prop tor  22  18  19  20
 216 prop tor  22  18  19  39
 217 prop tor  23   1   2   3
 218 prop tor  23   1   2   4
 219 prop tor  23   1   2  14
 220 ben  23   1  24
 221 ben  23   1  25
 222 prop tor  24   1   2   3
 223 prop tor  24   1   2   4
 224 prop tor  24   1   2  14
 225 ben  24   1  25
 226 prop tor  25   1   2   3
 227 prop tor  25   1   2   4
 228 prop tor  25   1   2  14
 229 ben  26   3  27
 230 ben  26   3  28
 231 ben  27   3  28
 232 prop tor  29   5   6   7
 233 prop tor  29   5   6  22
 234 prop tor  30   8   9   4
 235 prop tor  30   8   9  10
 236 prop tor  31  12  13  14
 237 prop tor  31  12  13  32
 238 prop tor  32  13  14   2
 239 prop tor  32  13  14  10
 240 ben  33  16  34
 241 ben  33  16  35
 242 ben  34  16  35
 243 ben  36  17  37
 244 ben  36  17  38
 245 ben  37  17  38
 246 prop tor  39  19  20  21
 247 prop tor  39  19  20  40
 248 prop tor  40  20  21  22
 nber bend=              80
 nber lin bend=           0
 nber prop tor=         124
 nber impr tor=           0
 nber tot redund int=         248
 Reading file: 
 ./thiophene-donors_4_C1S0.log                                                  
                                          
  Entering Gaussian System, Link 0=g16                                          
  
 Gaussian format, type: g94, g98, g03= F F F
  #P Geom=AllCheck Guess=TCheck SCRF=Check GenChk UB3LYP/6-311G(d,p) Fre    
 energy type= B3LYP   
 Original G94 input coords:
  6  0.888972  0.241832  0.205596
  6  2.185528 -0.571045 -0.013079
  6  3.252119  0.291615 -0.725302
  6  2.716895 -1.145319  1.305835
  6  3.143156 -0.473884  2.422189
  6  3.592405 -1.239643  3.522581
  6  3.608579 -2.680240  3.489647
  6  3.182485 -3.351671  2.373226
  6  2.733376 -2.585908  1.272780
  6  2.240868 -2.972802  0.002290
 16  1.942229 -4.463702 -0.834367
  6  1.380881 -3.567694 -2.212652
  6  1.420306 -2.196868 -2.041846
  6  1.912094 -1.853843 -0.774628
  6  4.139664 -3.254518  4.808674
  6  3.071524 -4.115233  5.521340
  6  5.434854 -4.069403  4.590714
  6  4.414186 -1.971697  5.569793
  6  4.907100 -1.628647  6.836566
  6  4.946866 -0.257813  7.007237
 16  4.385623  0.638194  5.628909
  6  4.085363 -0.852740  4.792893
  1  1.091631  1.129551  0.809020
  1  0.125266 -0.352198  0.711291
  1  0.486234  0.575403 -0.753377
  1  3.483591  1.179529 -0.132615
  1  2.880213  0.626578 -1.696178
  1  4.176384 -0.266947 -0.885347
  1  3.140540  0.608970  2.471088
  1  3.185363 -4.434519  2.324222
  1  1.048206 -4.110675 -3.085647
  1  1.104223 -1.503395 -2.808864
  1  2.839003 -5.003203  4.929162
  1  2.148078 -3.555147  5.680712
  1  3.442819 -4.449940  6.492528
  1  5.231078 -4.957110  3.987636
  1  5.836926 -4.403257  5.549878
  1  6.199680 -3.476864  4.084939
  1  5.223505 -2.322110  7.603460
  1  5.280236  0.285183  7.879957
 nber atoms=          40
  SCF Done:  E(UB3LYP) =  -1569.34007265     A.U. after    1 cycles             
  
          23          40 "  -1569.34007265"
After scan for Atom:   Atom  AN      X      Y      Z        X      Y      Z        X      Y      Z   
After scan for Atom:   Atom  AN      X      Y      Z        X      Y      Z        X      Y      Z   
After scan for Atom:   Atom  AN      X      Y      Z        X      Y      Z        X      Y      Z   
After scan for Atom:   Atom  AN      X      Y      Z        X      Y      Z        X      Y      Z   
After scan for Atom:   Atom  AN      X      Y      Z        X      Y      Z        X      Y      Z   
After scan for Atom:   Atom  AN      X      Y      Z        X      Y      Z        X      Y      Z   
After scan for Atom:   Atom  AN      X      Y      Z        X      Y      Z        X      Y      Z   
After scan for Atom:   Atom  AN      X      Y      Z        X      Y      Z        X      Y      Z   
After scan for Atom:   Atom  AN      X      Y      Z        X      Y      Z        X      Y      Z   
After scan for Atom:   Atom  AN      X      Y      Z        X      Y      Z        X      Y      Z   
After scan for Atom:   Atom  AN      X      Y      Z        X      Y      Z        X      Y      Z   
After scan for Atom:   Atom  AN      X      Y      Z        X      Y      Z        X      Y      Z   
After scan for Atom:   Atom  AN      X      Y      Z        X      Y      Z        X      Y      Z   
After scan for Atom:   Atom  AN      X      Y      Z        X      Y      Z        X      Y      Z   
After scan for Atom:   Atom  AN      X      Y      Z        X      Y      Z        X      Y      Z   
After scan for Atom:   Atom  AN      X      Y      Z        X      Y      Z        X      Y      Z   
After scan for Atom:   Atom  AN      X      Y      Z        X      Y      Z        X      Y      Z   
After scan for Atom:   Atom  AN      X      Y      Z        X      Y      Z        X      Y      Z   
After scan for Atom:   Atom  AN      X      Y      Z        X      Y      Z        X      Y      Z   
After scan for Atom:   Atom  AN      X      Y      Z        X      Y      Z        X      Y      Z   
After scan for Atom:   Atom  AN      X      Y      Z        X      Y      Z        X      Y      Z   
After scan for Atom:   Atom  AN      X      Y      Z        X      Y      Z        X      Y      Z   
After scan for Atom:   Atom  AN      X      Y      Z        X      Y      Z        X      Y      Z   
After scan for Atom:   Atom  AN      X      Y      Z        X      Y      Z        X      Y      Z   
After scan for Atom:   Atom  AN      X      Y      Z        X      Y      Z        X      Y      Z   
After scan for Atom:   Atom  AN      X      Y      Z        X      Y      Z        X      Y      Z   
After scan for Atom:   Atom  AN      X      Y      Z        X      Y      Z        X      Y      Z   
After scan for Atom:   Atom  AN      X      Y      Z        X      Y      Z        X      Y      Z   
After scan for Atom:   Atom  AN      X      Y      Z        X      Y      Z        X      Y      Z   
After scan for Atom:   Atom  AN      X      Y      Z        X      Y      Z        X      Y      Z   
After scan for Atom:   Atom  AN      X      Y      Z        X      Y      Z        X      Y      Z   
After scan for Atom:   Atom  AN      X      Y      Z        X      Y      Z        X      Y      Z   
After scan for Atom:   Atom  AN      X      Y      Z        X      Y      Z        X      Y      Z   
After scan for Atom:   Atom  AN      X      Y      Z        X      Y      Z        X      Y      Z   
After scan for Atom:   Atom  AN      X      Y      Z        X      Y      Z        X      Y      Z   
After scan for Atom:   Atom  AN      X      Y      Z        X      Y      Z        X      Y      Z   
After scan for Atom:   Atom  AN      X      Y      Z        X      Y      Z        X      Y      Z   
After scan for Atom:   Atom  AN      X      Y      Z        X      Y      Z        X      Y      Z   
 g94    frequencies=
     0.0    0.0    0.0    0.0    0.0    0.0   33.3   57.4   83.3  104.1
   111.1  130.7  150.0  167.5  172.7  207.6  226.8  241.0  242.2  243.2
   269.8  280.3  286.2  297.6  316.0  370.4  376.5  404.5  422.8  440.4
   451.7  492.0  492.4  522.9  536.2  571.6  579.4  630.5  653.1  665.6
   691.8  700.4  722.2  725.7  729.7  759.0  770.9  786.4  787.8  799.4
   839.3  894.7  904.7  907.1  907.7  911.9  912.6  953.6  953.8  978.2
   983.0  994.1 1031.4 1031.8 1065.2 1095.1 1104.7 1106.3 1149.4 1150.1
  1164.5 1167.7 1230.7 1233.4 1255.0 1262.9 1284.9 1292.6 1333.3 1361.6
  1370.4 1390.8 1404.9 1405.0 1426.3 1429.0 1450.9 1466.4 1474.5 1475.1
  1484.4 1484.5 1489.0 1489.0 1505.0 1505.6 1508.1 1511.8 1521.2 1537.8
  1540.6 1639.5 3036.6 3036.6 3039.4 3039.5 3105.4 3105.4 3109.9 3109.9
  3113.3 3113.4 3115.0 3115.0 3182.4 3183.2 3216.6 3216.7 3239.6 3239.7
 g94    symmetries=
                                                 A      A      A      A
       A      A      A      A      A      A      A      A      A      A
       A      A      A      A      A      A      A      A      A      A
       A      A      A      A      A      A      A      A      A      A
       A      A      A      A      A      A      A      A      A      A
       A      A      A      A      A      A      A      A      A      A
       A      A      A      A      A      A      A      A      A      A
       A      A      A      A      A      A      A      A      A      A
       A      A      A      A      A      A      A      A      A      A
       A      A      A      A      A      A      A      A      A      A
       A      A      A      A      A      A      A      A      A      A
       A      A      A      A      A      A      A      A      A      A
 atomic masses:
 12.0000 12.0000 12.0000 12.0000 12.0000 12.0000 12.0000 12.0000 12.0000 12.0000
 31.9721 12.0000 12.0000 12.0000 12.0000 12.0000 12.0000 12.0000 12.0000 12.0000
 31.9721 12.0000  1.0078  1.0078  1.0078  1.0078  1.0078  1.0078  1.0078  1.0078
  1.0078  1.0078  1.0078  1.0078  1.0078  1.0078  1.0078  1.0078  1.0078  1.0078
 looking for force constants in 
 ./thiophene-donors_4_C1S0.fchk                                                 
  
 Cartesian Force Constants                  R   N=        7260                  
  
 n3=         120        7260
 g94-fc frequencies=
    -2.5   -1.6   -0.0   -0.0    0.0    3.1   33.3   57.4   83.3  104.1
   111.1  130.7  150.0  167.5  172.7  207.6  226.8  241.0  242.2  243.2
   269.8  280.3  286.2  297.6  316.1  370.4  376.5  404.5  422.8  440.5
   451.7  492.0  492.4  523.0  536.2  571.6  579.4  630.5  653.1  665.6
   691.9  700.4  722.2  725.7  729.8  759.0  770.9  786.4  787.8  799.4
   839.3  894.7  904.7  907.1  907.8  911.9  912.7  953.6  953.8  978.3
   983.1  994.2 1031.5 1031.8 1065.3 1095.1 1104.7 1106.3 1149.4 1150.1
  1164.5 1167.7 1230.7 1233.4 1255.0 1262.9 1284.9 1292.6 1333.3 1361.6
  1370.4 1390.9 1404.9 1405.0 1426.3 1429.0 1450.9 1466.5 1474.6 1475.2
  1484.5 1484.6 1489.0 1489.0 1505.1 1505.6 1508.1 1511.9 1521.3 1537.9
  1540.6 1639.5 3036.6 3036.6 3039.5 3039.6 3105.5 3105.5 3110.0 3110.0
  3113.4 3113.5 3115.1 3115.1 3182.5 3183.3 3216.7 3216.7 3239.7 3239.8
 at 99999: n3=         120
 symm operator            1 :  F  nop=           0
 symm operator            2 :  F  nop=           0
 symm operator            3 :  F  nop=           0
 symm operator            4 :  F  nop=           0
 symm operator            5 :  F  nop=           0
 symm operator            6 :  F  nop=           0
 symm operator            7 :  F  nop=           0
 The point group of the molecule is  C1
 Symmetry rotation matrix:
   1.00000   0.00000   0.00000
   0.00000   1.00000   0.00000
   0.00000   0.00000   1.00000

 Projecting out zero-frequency components
 generating redundant internal coords
         300        3600          40
 search for int coords
   1 str   2   1   1.546
   2 str   3   2   1.546
   3 str   4   2   1.534
   4 str   5   4   1.371
   5 str   6   5   1.414
   6 str   7   6   1.441
   7 str   8   7   1.371
   8 str   9   4   1.441
   9 str   9   8   1.414
  10 str  10   9   1.416
  11 str  11  10   1.736
  12 str  12  11   1.737
  13 str  13  12   1.382
  14 str  14   2   1.517
  15 str  14  10   1.401
  16 str  14  13   1.402
  17 str  15   7   1.534
  18 str  16  15   1.546
  19 str  17  15   1.546
  20 str  18  15   1.517
  21 str  19  18   1.402
  22 str  20  19   1.382
  23 str  21  20   1.737
  24 str  22   6   1.416
  25 str  22  18   1.401
  26 str  22  21   1.736
  27 str  23   1   1.092
  28 str  24   1   1.092
  29 str  25   1   1.092
  30 str  26   3   1.092
  31 str  27   3   1.092
  32 str  28   3   1.092
  33 str  29   5   1.084
  34 str  30   8   1.084
  35 str  31  12   1.081
  36 str  32  13   1.081
  37 str  33  16   1.092
  38 str  34  16   1.092
  39 str  35  16   1.092
  40 str  36  17   1.092
  41 str  37  17   1.092
  42 str  38  17   1.092
  43 str  39  19   1.081
  44 str  40  20   1.081
 nber stretches=          44
  45 ben   1   2   3
  46 prop tor   1   2   3  26
  47 prop tor   1   2   3  27
  48 prop tor   1   2   3  28
  49 ben   1   2   4
  50 prop tor   1   2   4   5
  51 prop tor   1   2   4   9
  52 ben   1   2  14
  53 prop tor   1   2  14  10
  54 prop tor   1   2  14  13
  55 ben   2   1  23
  56 ben   2   1  24
  57 ben   2   1  25
  58 ben   2   3  26
  59 ben   2   3  27
  60 ben   2   3  28
  61 ben   2   4   5
  62 prop tor   2   4   5   6
  63 prop tor   2   4   5  29
  64 ben   2   4   9
  65 prop tor   2   4   9   8
  66 prop tor   2   4   9  10
  67 ben   2  14  10
  68 ben   2  14  13
  69 ben   3   2   4
  70 prop tor   3   2   4   5
  71 prop tor   3   2   4   9
  72 ben   3   2  14
  73 prop tor   3   2  14  10
  74 prop tor   3   2  14  13
  75 prop tor   4   2   3  26
  76 prop tor   4   2   3  27
  77 prop tor   4   2   3  28
  78 ben   4   2  14
  79 prop tor   4   2  14  10
  80 prop tor   4   2  14  13
  81 ben   4   5   6
  82 prop tor   4   5   6   7
  83 prop tor   4   5   6  22
  84 ben   4   5  29
  85 ben   4   9   8
  86 ben   4   9  10
  87 prop tor   4   9  10  11
  88 prop tor   4   9  10  14
  89 ben   5   4   9
  90 prop tor   5   4   9   8
  91 prop tor   5   4   9  10
  92 ben   5   6   7
  93 prop tor   5   6   7   8
  94 prop tor   5   6   7  15
  95 ben   5   6  22
  96 prop tor   5   6  22  18
  97 prop tor   5   6  22  21
  98 ben   6   5  29
  99 ben   6   7   8
 100 prop tor   6   7   8   9
 101 prop tor   6   7   8  30
 102 ben   6   7  15
 103 prop tor   6   7  15  16
 104 prop tor   6   7  15  17
 105 prop tor   6   7  15  18
 106 ben   6  22  18
 107 ben   6  22  21
 108 ben   7   6  22
 109 prop tor   7   6  22  18
 110 prop tor   7   6  22  21
 111 ben   7   8   9
 112 prop tor   7   8   9   4
 113 prop tor   7   8   9  10
 114 ben   7   8  30
 115 ben   7  15  16
 116 prop tor   7  15  16  33
 117 prop tor   7  15  16  34
 118 prop tor   7  15  16  35
 119 ben   7  15  17
 120 prop tor   7  15  17  36
 121 prop tor   7  15  17  37
 122 prop tor   7  15  17  38
 123 ben   7  15  18
 124 prop tor   7  15  18  19
 125 prop tor   7  15  18  22
 126 ben   8   7  15
 127 prop tor   8   7  15  16
 128 prop tor   8   7  15  17
 129 prop tor   8   7  15  18
 130 ben   8   9  10
 131 prop tor   8   9  10  11
 132 prop tor   8   9  10  14
 133 prop tor   9   4   5   6
 134 prop tor   9   4   5  29
 135 ben   9   8  30
 136 ben   9  10  11
 137 prop tor   9  10  11  12
 138 ben   9  10  14
 139 prop tor   9  10  14   2
 140 prop tor   9  10  14  13
 141 ben  10  11  12
 142 prop tor  10  11  12  13
 143 prop tor  10  11  12  31
 144 ben  10  14  13
 145 ben  11  10  14
 146 prop tor  11  10  14   2
 147 prop tor  11  10  14  13
 148 ben  11  12  13
 149 prop tor  11  12  13  14
 150 prop tor  11  12  13  32
 151 ben  11  12  31
 152 ben  12  13  14
 153 prop tor  12  13  14   2
 154 prop tor  12  13  14  10
 155 ben  12  13  32
 156 ben  13  12  31
 157 prop tor  14   2   3  26
 158 prop tor  14   2   3  27
 159 prop tor  14   2   3  28
 160 prop tor  14   2   4   5
 161 prop tor  14   2   4   9
 162 prop tor  14  10  11  12
 163 ben  14  13  32
 164 prop tor  15   7   8   9
 165 prop tor  15   7   8  30
 166 ben  15  16  33
 167 ben  15  16  34
 168 ben  15  16  35
 169 ben  15  17  36
 170 ben  15  17  37
 171 ben  15  17  38
 172 ben  15  18  19
 173 prop tor  15  18  19  20
 174 prop tor  15  18  19  39
 175 ben  15  18  22
 176 prop tor  15  18  22   6
 177 prop tor  15  18  22  21
 178 ben  16  15  17
 179 prop tor  16  15  17  36
 180 prop tor  16  15  17  37
 181 prop tor  16  15  17  38
 182 ben  16  15  18
 183 prop tor  16  15  18  19
 184 prop tor  16  15  18  22
 185 prop tor  17  15  16  33
 186 prop tor  17  15  16  34
 187 prop tor  17  15  16  35
 188 ben  17  15  18
 189 prop tor  17  15  18  19
 190 prop tor  17  15  18  22
 191 prop tor  18  15  16  33
 192 prop tor  18  15  16  34
 193 prop tor  18  15  16  35
 194 prop tor  18  15  17  36
 195 prop tor  18  15  17  37
 196 prop tor  18  15  17  38
 197 ben  18  19  20
 198 prop tor  18  19  20  21
 199 prop tor  18  19  20  40
 200 ben  18  19  39
 201 ben  18  22  21
 202 ben  19  18  22
 203 prop tor  19  18  22   6
 204 prop tor  19  18  22  21
 205 ben  19  20  21
 206 prop tor  19  20  21  22
 207 ben  19  20  40
 208 ben  20  19  39
 209 ben  20  21  22
 210 prop tor  20  21  22   6
 211 prop tor  20  21  22  18
 212 ben  21  20  40
 213 prop tor  22   6   7   8
 214 prop tor  22   6   7  15
 215 prop tor  22  18  19  20
 216 prop tor  22  18  19  39
 217 prop tor  23   1   2   3
 218 prop tor  23   1   2   4
 219 prop tor  23   1   2  14
 220 ben  23   1  24
 221 ben  23   1  25
 222 prop tor  24   1   2   3
 223 prop tor  24   1   2   4
 224 prop tor  24   1   2  14
 225 ben  24   1  25
 226 prop tor  25   1   2   3
 227 prop tor  25   1   2   4
 228 prop tor  25   1   2  14
 229 ben  26   3  27
 230 ben  26   3  28
 231 ben  27   3  28
 232 prop tor  29   5   6   7
 233 prop tor  29   5   6  22
 234 prop tor  30   8   9   4
 235 prop tor  30   8   9  10
 236 prop tor  31  12  13  14
 237 prop tor  31  12  13  32
 238 prop tor  32  13  14   2
 239 prop tor  32  13  14  10
 240 ben  33  16  34
 241 ben  33  16  35
 242 ben  34  16  35
 243 ben  36  17  37
 244 ben  36  17  38
 245 ben  37  17  38
 246 prop tor  39  19  20  21
 247 prop tor  39  19  20  40
 248 prop tor  40  20  21  22
 nber bend=              80
 nber lin bend=           0
 nber prop tor=         124
 nber impr tor=           0
 nber tot redund int=         248
 Eigenvalues of G in red int coords
    Gval -0.00000000 -0.00000000 -0.00000000 -0.00000000 -0.00000000 -0.00000000 -0.00000000 -0.00000000
    Gval -0.00000000 -0.00000000 -0.00000000 -0.00000000 -0.00000000 -0.00000000 -0.00000000 -0.00000000
    Gval -0.00000000 -0.00000000 -0.00000000 -0.00000000 -0.00000000 -0.00000000 -0.00000000 -0.00000000
    Gval -0.00000000 -0.00000000 -0.00000000 -0.00000000 -0.00000000 -0.00000000 -0.00000000 -0.00000000
    Gval -0.00000000 -0.00000000 -0.00000000 -0.00000000 -0.00000000 -0.00000000 -0.00000000 -0.00000000
    Gval -0.00000000 -0.00000000 -0.00000000 -0.00000000 -0.00000000 -0.00000000 -0.00000000 -0.00000000
    Gval -0.00000000 -0.00000000 -0.00000000 -0.00000000 -0.00000000 -0.00000000 -0.00000000 -0.00000000
    Gval -0.00000000 -0.00000000 -0.00000000 -0.00000000 -0.00000000 -0.00000000 -0.00000000 -0.00000000
    Gval -0.00000000 -0.00000000 -0.00000000 -0.00000000 -0.00000000 -0.00000000  0.00000000  0.00000000
    Gval  0.00000000  0.00000000  0.00000000  0.00000000  0.00000000  0.00000000  0.00000000  0.00000000
    Gval  0.00000000  0.00000000  0.00000000  0.00000000  0.00000000  0.00000000  0.00000000  0.00000000
    Gval  0.00000000  0.00000000  0.00000000  0.00000000  0.00000000  0.00000000  0.00000000  0.00000000
    Gval  0.00000000  0.00000000  0.00000000  0.00000000  0.00000000  0.00000000  0.00000000  0.00000000
    Gval  0.00000000  0.00000000  0.00000000  0.00000000  0.00000000  0.00000000  0.00000000  0.00000000
    Gval  0.00000000  0.00000000  0.00000000  0.00000000  0.00000000  0.00000000  0.00000000  0.00000000
    Gval  0.00000000  0.00000000  0.00000000  0.00000000  0.00000000  0.00000000  0.00000000  0.00000000
    Gval  0.00000000  0.00000000  0.00000000  0.00000000  0.00000000  0.00000000  0.00000212  0.00000382
    Gval  0.00000868  0.00000943  0.00001402  0.00001403  0.00001413  0.00002231  0.00002724  0.00003038
    Gval  0.00003294  0.00003410  0.00003819  0.00004093  0.00004248  0.00004364  0.00004643  0.00004779
    Gval  0.00005119  0.00005219  0.00005810  0.00006887  0.00007072  0.00007214  0.00007630  0.00008250
    Gval  0.00009409  0.00010163  0.00011692  0.00013117  0.00013203  0.00014292  0.00014668  0.00014872
    Gval  0.00017642  0.00017856  0.00023095  0.00023736  0.00024959  0.00025016  0.00030249  0.00032311
    Gval  0.00036096  0.00038846  0.00040530  0.00042773  0.00044047  0.00044714  0.00046117  0.00046284
    Gval  0.00050592  0.00050990  0.00052134  0.00053597  0.00053600  0.00053704  0.00055616  0.00055619
    Gval  0.00055620  0.00055620  0.00057837  0.00057840  0.00058306  0.00059425  0.00059493  0.00059840
    Gval  0.00059936  0.00061617  0.00062552  0.00062600  0.00063611  0.00063694  0.00067694  0.00067734
    Gval  0.00076045  0.00084734  0.00098564  0.00098954  0.00107989  0.00108096  0.00109195  0.00110791
    Gval  0.00110979  0.00112643  0.00113630  0.00113697  0.00118089  0.00118109  0.00118121  0.00118129
    Gval  0.00118427  0.00118428  0.00158659  0.00160868  0.00166171  0.00167386  0.00167394  0.00178419
    Gval  0.00203418  0.00214988  0.00232575  0.00233068  0.00303026  0.00303124  0.00304141  0.00304149
    Gval  0.00304650  0.00304650  0.00310202  0.00310202  0.00342719  0.00342833  0.00403335  0.00403349
  2.124810001294447E-006  2.124810001294447E-006
  3.819831497489843E-006  2.124810001294447E-006
  8.682388273165024E-006  2.124810001294447E-006
  9.426649368637295E-006  2.124810001294447E-006
  1.402014279918924E-005  2.124810001294447E-006
  1.403379231435777E-005  2.124810001294447E-006
  1.412560431836123E-005  2.124810001294447E-006
  2.231032442950900E-005  2.124810001294447E-006
  2.724355845984159E-005  2.124810001294447E-006
  3.037667330335246E-005  2.124810001294447E-006
  3.293512746727691E-005  2.124810001294447E-006
  3.409649876694485E-005  2.124810001294447E-006
  3.818598210872890E-005  2.124810001294447E-006
  4.093421632762759E-005  2.124810001294447E-006
  4.248209912675217E-005  2.124810001294447E-006
  4.364165952230662E-005  2.124810001294447E-006
  4.643498709262293E-005  2.124810001294447E-006
  4.778545702425263E-005  2.124810001294447E-006
  5.119498298314788E-005  2.124810001294447E-006
  5.219079635752505E-005  2.124810001294447E-006
  5.809530457116030E-005  2.124810001294447E-006
  6.887351498517255E-005  2.124810001294447E-006
  7.071820157386629E-005  2.124810001294447E-006
  7.213857327504006E-005  2.124810001294447E-006
  7.630284152455547E-005  2.124810001294447E-006
  8.250499112610413E-005  2.124810001294447E-006
  9.409055037165029E-005  2.124810001294447E-006
  1.016327266374907E-004  2.124810001294447E-006
  1.169209788243794E-004  2.124810001294447E-006
  1.311713094672942E-004  2.124810001294447E-006
  1.320265869530888E-004  2.124810001294447E-006
  1.429164814831983E-004  2.124810001294447E-006
  1.466752913992353E-004  2.124810001294447E-006
  1.487235370137511E-004  2.124810001294447E-006
  1.764187474295800E-004  2.124810001294447E-006
  1.785601047186017E-004  2.124810001294447E-006
  2.309453311959849E-004  2.124810001294447E-006
  2.373592850856458E-004  2.124810001294447E-006
  2.495926853912131E-004  2.124810001294447E-006
  2.501637643038738E-004  2.124810001294447E-006
  3.024862246348912E-004  2.124810001294447E-006
  3.231145081152742E-004  2.124810001294447E-006
  3.609641429589006E-004  2.124810001294447E-006
  3.884615345444769E-004  2.124810001294447E-006
  4.053019966862203E-004  2.124810001294447E-006
  4.277269162625833E-004  2.124810001294447E-006
  4.404733311104565E-004  2.124810001294447E-006
  4.471363280648067E-004  2.124810001294447E-006
  4.611659027685648E-004  2.124810001294447E-006
  4.628410370038943E-004  2.124810001294447E-006
  5.059225996342650E-004  2.124810001294447E-006
  5.099031318987382E-004  2.124810001294447E-006
  5.213435851282746E-004  2.124810001294447E-006
  5.359710824796838E-004  2.124810001294447E-006
  5.360041923329599E-004  2.124810001294447E-006
  5.370361333957398E-004  2.124810001294447E-006
  5.561600816405074E-004  2.124810001294447E-006
  5.561876914186919E-004  2.124810001294447E-006
  5.561958550267740E-004  2.124810001294447E-006
  5.561985071318404E-004  2.124810001294447E-006
  5.783725677770773E-004  2.124810001294447E-006
  5.784001673012366E-004  2.124810001294447E-006
  5.830640873729244E-004  2.124810001294447E-006
  5.942478999558797E-004  2.124810001294447E-006
  5.949332863147014E-004  2.124810001294447E-006
  5.983953876268691E-004  2.124810001294447E-006
  5.993614776360124E-004  2.124810001294447E-006
  6.161682346064570E-004  2.124810001294447E-006
  6.255179550795635E-004  2.124810001294447E-006
  6.260038904979422E-004  2.124810001294447E-006
  6.361128949797313E-004  2.124810001294447E-006
  6.369408438497834E-004  2.124810001294447E-006
  6.769357176126606E-004  2.124810001294447E-006
  6.773367904509733E-004  2.124810001294447E-006
  7.604474132769098E-004  2.124810001294447E-006
  8.473378879119067E-004  2.124810001294447E-006
  9.856368629717280E-004  2.124810001294447E-006
  9.895417457861917E-004  2.124810001294447E-006
  1.079889342637586E-003  2.124810001294447E-006
  1.080961143746658E-003  2.124810001294447E-006
  1.091952311984015E-003  2.124810001294447E-006
  1.107914400032455E-003  2.124810001294447E-006
  1.109793193049665E-003  2.124810001294447E-006
  1.126434570570616E-003  2.124810001294447E-006
  1.136296846396606E-003  2.124810001294447E-006
  1.136972773744641E-003  2.124810001294447E-006
  1.180893867614905E-003  2.124810001294447E-006
  1.181086501991299E-003  2.124810001294447E-006
  1.181206786139599E-003  2.124810001294447E-006
  1.181293206466118E-003  2.124810001294447E-006
  1.184271964648041E-003  2.124810001294447E-006
  1.184275359341501E-003  2.124810001294447E-006
  1.586590479023329E-003  2.124810001294447E-006
  1.608684248213404E-003  2.124810001294447E-006
  1.661713601218089E-003  2.124810001294447E-006
  1.673863626027565E-003  2.124810001294447E-006
  1.673939091970433E-003  2.124810001294447E-006
  1.784185513945137E-003  2.124810001294447E-006
  2.034178193804394E-003  2.124810001294447E-006
  2.149879047992262E-003  2.124810001294447E-006
  2.325749592131732E-003  2.124810001294447E-006
  2.330681540642205E-003  2.124810001294447E-006
  3.030255602164508E-003  2.124810001294447E-006
  3.031244986080031E-003  2.124810001294447E-006
  3.041414226973314E-003  2.124810001294447E-006
  3.041492510982242E-003  2.124810001294447E-006
  3.046498595918187E-003  2.124810001294447E-006
  3.046500157102719E-003  2.124810001294447E-006
  3.102018636029662E-003  2.124810001294447E-006
  3.102020710223882E-003  2.124810001294447E-006
  3.427187036278396E-003  2.124810001294447E-006
  3.428328291059362E-003  2.124810001294447E-006
  4.033350808924025E-003  2.124810001294447E-006
  4.033492525357891E-003  2.124810001294447E-006
 cut=1d-8, nber non-redundant internal coords=         114
 Check on Eigenvals of non-red overlap matrix:
  0.00000212  0.00000382  0.00000868  0.00000943  0.00001402  0.00001403  0.00001413  0.00002231
  0.00002724  0.00003038  0.00003294  0.00003410  0.00003819  0.00004093  0.00004248  0.00004364
  0.00004643  0.00004779  0.00005119  0.00005219  0.00005810  0.00006887  0.00007072  0.00007214
  0.00007630  0.00008250  0.00009409  0.00010163  0.00011692  0.00013117  0.00013203  0.00014292
  0.00014668  0.00014872  0.00017642  0.00017856  0.00023095  0.00023736  0.00024959  0.00025016
  0.00030249  0.00032311  0.00036096  0.00038846  0.00040530  0.00042773  0.00044047  0.00044714
  0.00046117  0.00046284  0.00050592  0.00050990  0.00052134  0.00053597  0.00053600  0.00053704
  0.00055616  0.00055619  0.00055620  0.00055620  0.00057837  0.00057840  0.00058306  0.00059425
  0.00059493  0.00059840  0.00059936  0.00061617  0.00062552  0.00062600  0.00063611  0.00063694
  0.00067694  0.00067734  0.00076045  0.00084734  0.00098564  0.00098954  0.00107989  0.00108096
  0.00109195  0.00110791  0.00110979  0.00112643  0.00113630  0.00113697  0.00118089  0.00118109
  0.00118121  0.00118129  0.00118427  0.00118428  0.00158659  0.00160868  0.00166171  0.00167386
  0.00167394  0.00178419  0.00203418  0.00214988  0.00232575  0.00233068  0.00303026  0.00303124
  0.00304141  0.00304149  0.00304650  0.00304650  0.00310202  0.00310202  0.00342719  0.00342833
  0.00403335  0.00403349
 Checking for correct frequencies
 recalc frequencies=
    -0.0   -0.0   -0.0   -0.0    0.0    0.0   33.3   57.4   83.3  104.1
   111.1  130.7  150.0  167.5  172.7  207.6  226.8  241.0  242.2  243.2
   269.8  280.3  286.2  297.6  316.1  370.4  376.5  404.5  422.8  440.5
   451.7  492.0  492.4  523.0  536.2  571.6  579.4  630.5  653.1  665.6
   691.9  700.4  722.2  725.7  729.8  759.0  770.9  786.4  787.8  799.4
   839.3  894.7  904.7  907.1  907.8  911.9  912.7  953.6  953.8  978.3
   983.1  994.2 1031.5 1031.8 1065.3 1095.1 1104.7 1106.3 1149.4 1150.1
  1164.5 1167.7 1230.7 1233.4 1255.0 1262.9 1284.9 1292.6 1333.3 1361.6
  1370.4 1390.9 1404.9 1405.0 1426.3 1429.0 1450.9 1466.5 1474.6 1475.2
  1484.5 1484.6 1489.0 1489.0 1505.1 1505.6 1508.1 1511.9 1521.3 1537.9
  1540.6 1639.5 3036.6 3036.6 3039.5 3039.6 3105.5 3105.5 3110.0 3110.0
  3113.4 3113.5 3115.1 3115.1 3182.5 3183.3 3216.7 3216.7 3239.7 3239.8
 recalc symmetries=
                                                                       
                                                                       
                                                                       
                                                                       
                                                                       
                                                                       
                                                                       
                                                                       
                                                                       
                                                                       
                                                                       
                                                                       
 recalc freqs check OK
 Zero-point lengths:
 10.0000 10.0000 10.0000 10.0000 10.0000 10.0000 42.9345 32.7090 27.1617 24.2943
 23.5177 21.6852 20.2436 19.1541 18.8632 17.2047 16.4622 15.9680 15.9290 15.8955
 15.0929 14.8081 14.6535 14.3718 13.9450 12.8820 12.7765 12.3270 12.0562 11.8126
 11.6641 11.1765 11.1716 10.8409 10.7064 10.3689 10.2995  9.8733  9.7010  9.6089
  9.4251  9.3672  9.2252  9.2029  9.1772  8.9987  8.9289  8.8403  8.8327  8.7682
  8.5572  8.2880  8.2421  8.2312  8.2283  8.2096  8.2062  8.0279  8.0274  7.9263
  7.9068  7.8626  7.7192  7.7177  7.5957  7.4916  7.4588  7.4534  7.3124  7.3102
  7.2648  7.2549  7.0667  7.0591  6.9979  6.9760  6.9160  6.8954  6.7894  6.7184
  6.6969  6.6475  6.6141  6.6138  6.5643  6.5580  6.5084  6.4738  6.4560  6.4547
  6.4344  6.4342  6.4247  6.4245  6.3903  6.3890  6.3838  6.3759  6.3561  6.3217
  6.3161  6.1226  4.4988  4.4988  4.4967  4.4967  4.4487  4.4487  4.4455  4.4454
  4.4430  4.4430  4.4418  4.4418  4.3945  4.3940  4.3711  4.3711  4.3556  4.3555
 highest evec of mol 2
  0.0001  0.0000  0.0003
  0.0001 -0.0002  0.0001
  0.0001  0.0000  0.0003
 -0.0000  0.0002 -0.0000
  0.0000  0.0003  0.0001
 -0.0002  0.0002 -0.0004
  0.0000 -0.0002  0.0000
 -0.0000 -0.0003 -0.0001
  0.0002 -0.0002  0.0004
 -0.0011 -0.0008 -0.0027
 -0.0006  0.0010 -0.0013
  0.0590  0.1067  0.1555
  0.0203 -0.0556  0.0486
 -0.0020 -0.0010 -0.0050
 -0.0001  0.0002 -0.0001
 -0.0001 -0.0000 -0.0003
 -0.0001 -0.0000 -0.0003
  0.0020  0.0010  0.0050
 -0.0202  0.0555 -0.0485
 -0.0591 -0.1065 -0.1551
  0.0006 -0.0010  0.0013
  0.0011  0.0008  0.0027
 -0.0001 -0.0000 -0.0001
 -0.0000 -0.0000  0.0000
 -0.0003  0.0003 -0.0007
  0.0001 -0.0000 -0.0001
 -0.0003  0.0003 -0.0007
  0.0000 -0.0000 -0.0000
 -0.0000 -0.0010 -0.0001
  0.0000  0.0010  0.0001
 -0.1955 -0.3217 -0.5133
 -0.0654  0.1460 -0.1586
 -0.0001  0.0000  0.0001
 -0.0000  0.0000  0.0000
  0.0003 -0.0003  0.0007
  0.0001  0.0000  0.0001
  0.0003 -0.0003  0.0007
  0.0000  0.0000 -0.0000
  0.0654 -0.1457  0.1582
  0.1956  0.3212  0.5122
 Enter nber and list of atoms to keep of mol #2
 keep list:          40           1           2           3           4
           5           6           7           8           9          10
          11          12          13          14          15          16
          17          18          19          20          21          22
          23          24          25          26          27          28
          29          30          31          32          33          34
          35          36          37          38          39          40
 reordering atoms
           1  -2.45670305652553     
           2  -2.33245358937307     
           3  -2.45615524173729     
           4  -1.03017333903000     
           5  0.262214411454123     
           6   1.30168773322713     
           7   1.03017272554022     
           8 -0.262216018540649     
           9  -1.30168807292190     
          10  -2.71046182026533     
          11  -3.84099195800281     
          12  -5.15331745139051     
          13  -4.74732079140043     
          14  -3.34933199562535     
          15   2.33245499972547     
          16   2.45634204364110     
          17   2.45652704226232     
          18   3.34933237619882     
          19   4.74732032834792     
          20   5.15331659042875     
          21   3.84098906709383     
          22   2.71046082834621     
          23  -1.67805732492242     
          24  -2.36799530602152     
          25  -3.42385364411407     
          26  -1.67701080058247     
          27  -3.42294883623864     
          28  -2.36781469937473     
          29  0.491879778147142     
          30 -0.491882886875839     
          31  -6.16680688241690     
          32  -5.44553626476467     
          33   1.67727944444033     
          34   2.36793855116995     
          35   3.42324706090574     
          36   1.67780086392842     
          37   3.42356585778392     
          38   2.36789127268964     
          39   5.44553903747894     
          40   6.16680512121564     
           1           1
           2           2
           3           3
           4           4
           5           5
           6           6
           7           7
           8           8
           9           9
          10          10
          11          11
          12          12
          13          13
          14          14
          15          15
          16          16
          17          17
          18          18
          19          19
          20          20
          21          21
          22          22
          23          23
          24          24
          25          25
          26          26
          27          27
          28          28
          29          29
          30          30
          31          31
          32          32
          33          33
          34          34
          35          35
          36          36
          37          37
          38          38
          39          39
          40          40
 initial cartes coords mol 1
   6   1.26618  -2.65162  -2.45629
   6   0.00026  -1.77225  -2.33858
   6  -1.26516  -2.65234  -2.45574
   6   0.00028  -0.95943  -1.03269
   6   0.00041  -1.41931   0.25696
   6   0.00029  -0.46821   1.31241
   6   0.00012   0.95943   1.03269
   6  -0.00006   1.41932  -0.25696
   6   0.00003   0.46821  -1.31241
   6  -0.00005   0.60451  -2.71413
  16  -0.00039   1.92579  -3.86112
   6  -0.00063   0.77332  -5.18665
   6  -0.00042  -0.54159  -4.75880
   6  -0.00008  -0.64827  -3.36107
   6   0.00035   1.77225   2.33858
   6   1.26643   2.65148   2.45579
   6  -1.26492   2.65248   2.45624
   6   0.00010   0.64827   3.36107
   6  -0.00056   0.54158   4.75880
   6  -0.00090  -0.77332   5.18665
  16  -0.00033  -1.92579   3.86112
   6   0.00026  -0.60451   2.71413
   1   1.28605  -3.40901  -1.66660
   1   2.17071  -2.04617  -2.37274
   1   1.28591  -3.16733  -3.42106
   1  -1.28451  -3.40920  -1.66554
   1  -1.28464  -3.16868  -3.42018
   1  -2.17002  -2.04732  -2.37253
   1   0.00054  -2.48102   0.48089
   1  -0.00021   2.48102  -0.48089
   1  -0.00083   1.14267  -6.20083
   1  -0.00053  -1.37478  -5.45010
   1   1.28632   3.40831   1.66557
   1   2.17084   2.04580   2.37260
   1   1.28623   3.16779   3.42024
   1  -1.28424   3.40990   1.66658
   1  -1.28430   3.16823   3.42100
   1  -2.16989   2.04769   2.37269
   1  -0.00079   1.37477   5.45010
   1  -0.00133  -1.14267   6.20083
 initial cartes coords mol 2
   6   1.27142  -2.63949  -2.45670
   6   0.00050  -1.76830  -2.33245
   6  -1.26895  -2.64137  -2.45616
   6   0.00044  -0.95853  -1.03017
   6   0.00046  -1.41515   0.26221
   6   0.00030  -0.45673   1.30169
   6   0.00031   0.95853   1.03017
   6   0.00011   1.41515  -0.26222
   6   0.00012   0.45673  -1.30169
   6  -0.00012   0.60421  -2.71046
  16  -0.00091   1.92098  -3.84099
   6  -0.00078   0.78281  -5.15332
   6  -0.00066  -0.53819  -4.74732
   6  -0.00012  -0.64303  -3.34933
   6   0.00055   1.76830   2.33245
   6   1.27157   2.63940   2.45634
   6  -1.26880   2.64147   2.45653
   6   0.00000   0.64303   3.34933
   6  -0.00067   0.53819   4.74732
   6  -0.00092  -0.78282   5.15332
  16  -0.00090  -1.92098   3.84099
   6   0.00006  -0.60421   2.71046
   1   1.28736  -3.40545  -1.67806
   1   2.17837  -2.03830  -2.36800
   1   1.28829  -3.14687  -3.42385
   1  -1.28375  -3.40686  -1.67701
   1  -1.28516  -3.14947  -3.42295
   1  -2.17686  -2.04157  -2.36781
   1   0.00042  -2.47450   0.49188
   1  -0.00014   2.47450  -0.49188
   1  -0.00107   1.15760  -6.16681
   1  -0.00082  -1.36380  -5.44554
   1   1.28754   3.40493   1.67728
   1   2.17844   2.03806   2.36794
   1   1.28845   3.14724   3.42325
   1  -1.28357   3.40738   1.67780
   1  -1.28497   3.14910   3.42357
   1  -2.17679   2.04183   2.36789
   1  -0.00085   1.36379   5.44554
   1  -0.00137  -1.15760   6.16681
 loop 1 0
 mod cartes coords mol 2
   6   1.27142  -2.63949  -2.45670
   6   0.00050  -1.76830  -2.33245
   6  -1.26895  -2.64137  -2.45616
   6   0.00044  -0.95853  -1.03017
   6   0.00046  -1.41515   0.26221
   6   0.00030  -0.45673   1.30169
   6   0.00031   0.95853   1.03017
   6   0.00011   1.41515  -0.26222
   6   0.00012   0.45673  -1.30169
   6  -0.00012   0.60421  -2.71046
  16  -0.00091   1.92098  -3.84099
   6  -0.00078   0.78281  -5.15332
   6  -0.00066  -0.53819  -4.74732
   6  -0.00012  -0.64303  -3.34933
   6   0.00055   1.76830   2.33245
   6   1.27157   2.63940   2.45634
   6  -1.26880   2.64147   2.45653
   6   0.00000   0.64303   3.34933
   6  -0.00067   0.53819   4.74732
   6  -0.00092  -0.78282   5.15332
  16  -0.00090  -1.92098   3.84099
   6   0.00006  -0.60421   2.71046
   1   1.28736  -3.40545  -1.67806
   1   2.17837  -2.03830  -2.36800
   1   1.28829  -3.14687  -3.42385
   1  -1.28375  -3.40686  -1.67701
   1  -1.28516  -3.14947  -3.42295
   1  -2.17686  -2.04157  -2.36781
   1   0.00042  -2.47450   0.49188
   1  -0.00014   2.47450  -0.49188
   1  -0.00107   1.15760  -6.16681
   1  -0.00082  -1.36380  -5.44554
   1   1.28754   3.40493   1.67728
   1   2.17844   2.03806   2.36794
   1   1.28845   3.14724   3.42325
   1  -1.28357   3.40738   1.67780
   1  -1.28497   3.14910   3.42357
   1  -2.17679   2.04183   2.36789
   1  -0.00085   1.36379   5.44554
   1  -0.00137  -1.15760   6.16681
 read in order, maxerr=  0.04 for atom  40
 final axis swaps:           1           1           1
 final xyz swap pattern=           1
 reorder list:
   1   2   3   4   5   6   7   8   9  10  11  12  13  14  15  16  17  18  19  20
  21  22  23  24  25  26  27  28  29  30  31  32  33  34  35  36  37  38  39  40
 axis signs=           1           1           1
  6     1.271424 -2.639488 -2.456703     1.266184 -2.651621 -2.456286
  6     0.000500 -1.768304 -2.332454     0.000255 -1.772249 -2.338581
  6    -1.268952 -2.641373 -2.456155    -1.265163 -2.652336 -2.455740
  6     0.000442 -0.958525 -1.030173     0.000284 -0.959430 -1.032688
  6     0.000457 -1.415147  0.262214     0.000407 -1.419314  0.256956
  6     0.000298 -0.456727  1.301688     0.000292 -0.468209  1.312414
  6     0.000306  0.958527  1.030173     0.000117  0.959432  1.032688
  6     0.000112  1.415149 -0.262216    -0.000057  1.419315 -0.256956
  6     0.000121  0.456727 -1.301688     0.000026  0.468211 -1.312414
  6    -0.000122  0.604214 -2.710462    -0.000045  0.604506 -2.714129
 16    -0.000907  1.920977 -3.840992    -0.000389  1.925792 -3.861121
  6    -0.000779  0.782815 -5.153317    -0.000634  0.773316 -5.186653
  6    -0.000659 -0.538192 -4.747321    -0.000425 -0.541586 -4.758805
  6    -0.000120 -0.643026 -3.349332    -0.000084 -0.648268 -3.361069
  6     0.000552  1.768305  2.332455     0.000352  1.772249  2.338582
  6     1.271571  2.639401  2.456342     1.266428  2.651480  2.455788
  6    -1.268801  2.641466  2.456527    -1.264916  2.652479  2.456243
  6     0.000002  0.643025  3.349332     0.000099  0.648269  3.361069
  6    -0.000670  0.538189  4.747320    -0.000556  0.541584  4.758805
  6    -0.000917 -0.782819  5.153317    -0.000900 -0.773318  5.186652
 16    -0.000902 -1.920978  3.840989    -0.000333 -1.925793  3.861119
  6     0.000057 -0.604214  2.710461     0.000260 -0.604506  2.714129
  1     1.287362 -3.405447 -1.678057     1.286046 -3.409011 -1.666601
  1     2.178371 -2.038304 -2.367995     2.170709 -2.046166 -2.372742
  1     1.288289 -3.146866 -3.423854     1.285906 -3.167332 -3.421059
  1    -1.283755 -3.406855 -1.677011    -1.284514 -3.409200 -1.665538
  1    -1.285157 -3.149469 -3.422949    -1.284640 -3.168681 -3.420180
  1    -2.176863 -2.041568 -2.367815    -2.170016 -2.047318 -2.372530
  1     0.000424 -2.474498  0.491880     0.000545 -2.481016  0.480888
  1    -0.000138  2.474499 -0.491883    -0.000211  2.481017 -0.480888
  1    -0.001070  1.157595 -6.166807    -0.000832  1.142667 -6.200831
  1    -0.000823 -1.363798 -5.445536    -0.000528 -1.374775 -5.450099
  1     1.287537  3.404932  1.677279     1.286319  3.408310  1.665566
  1     2.178445  2.038058  2.367939     2.170839  2.045804  2.372597
  1     1.288453  3.147244  3.423247     1.286234  3.167785  3.420243
  1    -1.283574  3.407377  1.677801    -1.284242  3.409902  1.666576
  1    -1.284971  3.149098  3.423566    -1.284301  3.168234  3.421000
  1    -2.176792  2.041828  2.367891    -2.169886  2.047687  2.372687
  1    -0.000852  1.363792  5.445539    -0.000789  1.374772  5.450101
  1    -0.001373 -1.157600  6.166805    -0.001327 -1.142669  6.200830
 generating redundant internal coords
         300        3600          40
 Adding extra bonds for z output only
           6           6           6           6           6           6
           6           6           6           6          16           6
           6           6           6           6           6           6
           6           6          16           6           1           1
           1           1           1           1           1           1
           1           1           1           1           1           1
           1           1           1           1
 search for int coords
   1 str   2   1   1.546
   2 str   3   2   1.546
   3 str   4   2   1.534
   4 str   5   4   1.371
   5 str   6   5   1.414
   6 str   7   6   1.441
   7 str   8   7   1.371
   8 str   9   4   1.441
[...]
                 0.6076    36.9          93      1489.
  91      1483.  0.8476    71.8   100.3  91      1484.
                -0.5296    28.0          94      1489.
  92      1484. -0.5302    28.1   100.2  91      1484.
                -0.8474    71.8          94      1489.
  93      1484.  0.6082    37.0   100.2  92      1485.
                 0.7934    62.9          93      1489.
  94      1487. -0.9576    91.7   100.2  90      1475.
  95      1493. -0.6047    36.6   100.4  97      1508.
                 0.6403    41.0          99      1521.
  96      1497. -0.9757    95.2   100.1  96      1506.
  97      1499.  0.9181    84.3   100.1  95      1505.
                 0.3869    15.0          97      1508.
  98      1509. -0.9368    87.8   100.2  98      1512.
                -0.3166    10.0         101      1541.
  99      1509. -0.6647    44.2   100.3  97      1508.
                -0.6971    48.6          99      1521.
 100      1527. -0.8355    69.8   100.1 101      1541.
 101      1530.  0.9741    94.9   100.3 100      1538.
 102      1655.  0.9828    96.6   100.1 102      1640.
 103      3017.  0.9899    98.0   100.0 104      3037.
 104      3017. -0.9900    98.0   100.0 103      3037.
 105      3021.  0.9905    98.1   100.0 105      3039.
 106      3022. -0.9909    98.2   100.0 106      3040.
 107      3079. -0.9783    95.7   100.0 107      3105.
 108      3079.  0.9783    95.7   100.0 108      3105.
 109      3084. -0.9952    99.0   100.0 110      3110.
 110      3084. -0.9955    99.1   100.0 109      3110.
 111      3104.  0.9908    98.2   100.0 111      3113.
 112      3104. -0.9908    98.2   100.0 112      3113.
 113      3106. -0.9901    98.0   100.0 113      3115.
 114      3106.  0.9900    98.0   100.0 114      3115.
 115      3163.  1.0000   100.0   100.0 115      3182.
 116      3164. -0.9999   100.0   100.0 116      3183.
 117      3194.  0.9878    97.6   100.0 117      3217.
 118      3195. -0.9880    97.6   100.0 118      3217.
 119      3240.  0.9878    97.6   100.0 119      3240.
 120      3240.  0.9880    97.6   100.0 120      3240.
 nber times 1st assigned=           1           0
 nber times 1st assigned=           2           0
 nber times 1st assigned=           3           0
 nber times 1st assigned=           4           0
 nber times 1st assigned=           5           0
 nber times 1st assigned=           6           0
 nber times 1st assigned=           7           0
 nber times 1st assigned=           8           0
 nber times 1st assigned=           9           0
 nber times 1st assigned=          10           0
 nber times 1st assigned=          11           0
 nber times 1st assigned=          12           0
 nber times 1st assigned=          13           0
 nber times 1st assigned=          14           0
 nber times 1st assigned=          15           0
 nber times 1st assigned=          16           0
 nber times 1st assigned=          17           0
 nber times 1st assigned=          18           0
 nber times 1st assigned=          19           0
 nber times 1st assigned=          20           0
 nber times 1st assigned=          21           0
 nber times 1st assigned=          22           0
 nber times 1st assigned=          23           0
 nber times 1st assigned=          24           0
 nber times 1st assigned=          25           0
 nber times 1st assigned=          26           0
 nber times 1st assigned=          27           0
 nber times 1st assigned=          28           0
 nber times 1st assigned=          29           0
 nber times 1st assigned=          30           0
 nber times 1st assigned=          31           0
 nber times 1st assigned=          32           0
 nber times 1st assigned=          33           0
 nber times 1st assigned=          34           0
 nber times 1st assigned=          35           0
 nber times 1st assigned=          36           0
 nber times 1st assigned=          37           0
 nber times 1st assigned=          38           0
 nber times 1st assigned=          39           0
 nber times 1st assigned=          40           0
 nber times 1st assigned=          41           0
 nber times 1st assigned=          42           0
 nber times 1st assigned=          43           0
 nber times 1st assigned=          44           0
 nber times 1st assigned=          45           0
 nber times 1st assigned=          46           0
 nber times 1st assigned=          47           0
 nber times 1st assigned=          48           0
 nber times 1st assigned=          49           0
 nber times 1st assigned=          50           0
 nber times 1st assigned=          51           0
 nber times 1st assigned=          52           0
 nber times 1st assigned=          53           0
 nber times 1st assigned=          54           0
 nber times 1st assigned=          55           0
 nber times 1st assigned=          56           0
 nber times 1st assigned=          57           0
 nber times 1st assigned=          58           0
 nber times 1st assigned=          59           0
 nber times 1st assigned=          60           0
 nber times 1st assigned=          61           0
 nber times 1st assigned=          62           0
 nber times 1st assigned=          63           0
 nber times 1st assigned=          64           0
 nber times 1st assigned=          65           0
 nber times 1st assigned=          66           0
 nber times 1st assigned=          67           0
 nber times 1st assigned=          68           0
 nber times 1st assigned=          69           0
 nber times 1st assigned=          70           0
 nber times 1st assigned=          71           0
 nber times 1st assigned=          72           0
 nber times 1st assigned=          73           0
 nber times 1st assigned=          74           0
 nber times 1st assigned=          75           0
 nber times 1st assigned=          76           0
 nber times 1st assigned=          77           0
 nber times 1st assigned=          78           0
 nber times 1st assigned=          79           0
 nber times 1st assigned=          80           0
 nber times 1st assigned=          81           0
 nber times 1st assigned=          82           0
 nber times 1st assigned=          83           0
 nber times 1st assigned=          84           0
 nber times 1st assigned=          85           0
 nber times 1st assigned=          86           0
 nber times 1st assigned=          87           0
 nber times 1st assigned=          88           0
 nber times 1st assigned=          89           0
 nber times 1st assigned=          90           0
 nber times 1st assigned=          91           0
 nber times 1st assigned=          92           0
 nber times 1st assigned=          93           0
 nber times 1st assigned=          94           0
 nber times 1st assigned=          95           0
 nber times 1st assigned=          96           0
 nber times 1st assigned=          97           0
 nber times 1st assigned=          98           0
 nber times 1st assigned=          99           0
 nber times 1st assigned=         100           0
 nber times 1st assigned=         101           0
 nber times 1st assigned=         102           0
 nber times 1st assigned=         103           0
 nber times 1st assigned=         104           0
 nber times 1st assigned=         105           0
 nber times 1st assigned=         106           0
 nber times 1st assigned=         107           0
 nber times 1st assigned=         108           0
 nber times 1st assigned=         109           0
 nber times 1st assigned=         110           0
 nber times 1st assigned=         111           0
 nber times 1st assigned=         112           0
 nber times 1st assigned=         113           0
 nber times 1st assigned=         114           0
 nber times 1st assigned=         115           0
 nber times 1st assigned=         116           0
 nber times 1st assigned=         117           0
 nber times 1st assigned=         118           0
 nber times 1st assigned=         119           0
 nber times 1st assigned=         120           0
 modes represented=   114.245729877002     
 p1=
   -0.    0.    0.   -0.    0.    0.   -0.   -0.    0.    0.   -0.    0.   -0.   -0.   -7.    0.    0.    0.    0.    0.
   -4.    0.   -0.    6.    0.    0.    2.    0.    0.   -0.   -0.   -0.   -1.   -0.   -0.   -1.   -0.    1.    0.    0.
   -1.   -0.    0.   -0.    3.    0.    0.    0.    2.   -0.    2.   -0.   -0.   -0.   -0.   -0.    2.    0.   -0.   -0.
   -0.   -0.   -0.   -0.   -1.    0.    0.   -0.   -0.   -0.    0.    0.    0.    0.    1.   -0.   -0.   -0.    0.    1.
    0.   -1.   -0.   -0.   -0.    0.   -0.    1.   -0.    0.    0.    0.   -0.    1.    0.    0.   -0.   -0.    0.    1.
   -0.   -1.   -0.    0.    0.    0.   -0.   -0.    0.   -0.    0.    0.   -0.   -0.    0.   -0.   -0.   -0.   -0.    0.
 p2=
    0.    0.   -0.    0.   -0.    0.    0.    0.    0.   -0.    0.    0.   -0.   -0.   -7.   -0.   -0.    0.   -0.   -0.
    4.   -0.    0.    7.   -0.   -2.   -0.    0.    0.   -0.    0.   -1.   -0.    0.   -0.   -1.   -0.   -1.    1.   -0.
    0.    0.    3.   -0.    0.   -0.   -0.    2.   -0.    0.   -2.   -0.   -2.   -0.   -0.    0.    0.    0.    0.    0.
    0.    0.    0.   -0.   -1.   -0.   -0.   -0.    0.   -0.   -0.   -0.    0.   -0.   -0.    0.    1.   -0.   -0.   -0.
   -0.    2.    0.    0.   -0.    0.    0.    1.    0.    1.    0.   -0.    0.    0.    0.   -0.   -0.   -0.   -0.    0.
    0.    1.    0.   -0.   -0.    0.    0.    0.    0.    0.    0.    0.    0.    0.   -0.   -0.   -0.   -0.   -0.   -0.

 Displacement: in terms of nc of 1 THEN of nc of 2

   1     freq=    -0. Q= -0.000 lam=    -0.0     freq=    -0. Q= -0.000 lam=    -0.0
   2     freq=     0. Q=  0.000 lam=     0.0     freq=    -0. Q=  0.000 lam=    -0.0
   3     freq=     0. Q=  0.000 lam=     0.0     freq=    -0. Q=  0.000 lam=    -0.0
   4     freq=     0. Q= -0.000 lam=     0.0     freq=    -0. Q= -0.000 lam=    -0.0
   5     freq=     0. Q=  0.000 lam=     0.0     freq=     0. Q=  0.000 lam=     0.0
   6     freq=     0. Q=  0.000 lam=     0.0     freq=     0. Q=  0.000 lam=     0.0
   7     freq=    29. Q= -0.007 lam=     0.0     freq=    33. Q= -0.008 lam=     0.0
   8     freq=    55. Q= -0.004 lam=     0.0     freq=    57. Q= -0.004 lam=     0.0
   9     freq=    69. Q=  0.001 lam=     0.0     freq=    83. Q=  0.001 lam=     0.0
  10     freq=    99. Q=  0.000 lam=     0.0     freq=   104. Q=  0.001 lam=     0.0
  11     freq=   109. Q= -0.000 lam=     0.0     freq=   111. Q= -0.000 lam=     0.0
  12     freq=   121. Q=  0.001 lam=     0.0     freq=   131. Q=  0.001 lam=     0.0
  13     freq=   149. Q= -0.003 lam=     0.0     freq=   150. Q= -0.001 lam=     0.0
  14     freq=   151. Q= -0.001 lam=     0.0     freq=   168. Q= -0.003 lam=     0.0
  15     freq=   169. Q= -0.377 lam=    12.1     freq=   173. Q= -0.378 lam=    12.3
  16     freq=   205. Q=  0.014 lam=     0.0     freq=   208. Q=  0.010 lam=     0.0
  17     freq=   212. Q=  0.001 lam=     0.0     freq=   227. Q=  0.001 lam=     0.0
  18     freq=   237. Q=  0.001 lam=     0.0     freq=   241. Q=  0.000 lam=     0.0
  19     freq=   237. Q=  0.002 lam=     0.0     freq=   242. Q=  0.001 lam=     0.0
  20     freq=   238. Q=  0.000 lam=     0.0     freq=   243. Q=  0.004 lam=     0.0
  21     freq=   268. Q= -0.251 lam=     8.4     freq=   270. Q= -0.244 lam=     8.0
  22     freq=   280. Q=  0.000 lam=     0.0     freq=   280. Q=  0.000 lam=     0.0
  23     freq=   285. Q= -0.002 lam=     0.0     freq=   286. Q= -0.003 lam=     0.0
  24     freq=   297. Q=  0.451 lam=    30.3     freq=   298. Q=  0.463 lam=    31.8
  25     freq=   312. Q=  0.000 lam=     0.0     freq=   316. Q=  0.000 lam=     0.0
  26     freq=   357. Q=  0.002 lam=     0.0     freq=   370. Q=  0.141 lam=     3.7
  27     freq=   363. Q=  0.147 lam=     3.9     freq=   376. Q=  0.002 lam=     0.0
  28     freq=   391. Q=  0.000 lam=     0.0     freq=   404. Q=  0.000 lam=     0.0
  29     freq=   414. Q=  0.003 lam=     0.0     freq=   423. Q=  0.000 lam=     0.0
  30     freq=   417. Q= -0.000 lam=     0.0     freq=   440. Q= -0.004 lam=     0.0
  31     freq=   426. Q= -0.000 lam=     0.0     freq=   452. Q= -0.000 lam=     0.0
  32     freq=   466. Q= -0.002 lam=     0.0     freq=   492. Q= -0.069 lam=     1.2
  33     freq=   483. Q= -0.064 lam=     1.0     freq=   492. Q= -0.001 lam=     0.0
  34     freq=   498. Q= -0.000 lam=     0.0     freq=   523. Q= -0.000 lam=     0.0
  35     freq=   510. Q= -0.000 lam=     0.0     freq=   536. Q= -0.000 lam=     0.0
  36     freq=   560. Q= -0.096 lam=     2.6     freq=   572. Q= -0.102 lam=     3.0
  37     freq=   574. Q= -0.000 lam=     0.0     freq=   579. Q= -0.000 lam=     0.0
  38     freq=   615. Q=  0.067 lam=     1.4     freq=   630. Q=  0.087 lam=     2.4
  39     freq=   630. Q=  0.002 lam=     0.0     freq=   653. Q=  0.066 lam=     1.4
  40     freq=   631. Q=  0.000 lam=     0.0     freq=   666. Q=  0.000 lam=     0.0
  41     freq=   645. Q= -0.053 lam=     0.9     freq=   692. Q= -0.002 lam=     0.0
  42     freq=   652. Q= -0.000 lam=     0.0     freq=   700. Q= -0.000 lam=     0.0
  43     freq=   666. Q=  0.001 lam=     0.0     freq=   722. Q=  0.329 lam=    39.0
  44     freq=   683. Q= -0.000 lam=     0.0     freq=   726. Q= -0.001 lam=     0.0
  45     freq=   709. Q=  0.350 lam=    43.4     freq=   730. Q=  0.000 lam=     0.0
  46     freq=   713. Q=  0.001 lam=     0.0     freq=   759. Q=  0.001 lam=     0.0
  47     freq=   715. Q=  0.000 lam=     0.0     freq=   771. Q=  0.000 lam=     0.0
  48     freq=   758. Q=  0.001 lam=     0.0     freq=   786. Q=  0.220 lam=    19.0
  49     freq=   765. Q=  0.226 lam=    19.5     freq=   788. Q=  0.002 lam=     0.0
  50     freq=   783. Q= -0.000 lam=     0.0     freq=   799. Q= -0.000 lam=     0.0
  51     freq=   823. Q=  0.178 lam=    13.0     freq=   839. Q=  0.198 lam=    16.4
  52     freq=   867. Q= -0.001 lam=     0.0     freq=   895. Q= -0.000 lam=     0.0
  53     freq=   868. Q= -0.000 lam=     0.0     freq=   905. Q= -0.300 lam=    40.8
  54     freq=   869. Q= -0.001 lam=     0.0     freq=   907. Q= -0.003 lam=     0.0
  55     freq=   872. Q= -0.000 lam=     0.0     freq=   908. Q= -0.003 lam=     0.0
  56     freq=   885. Q= -0.000 lam=     0.0     freq=   912. Q= -0.001 lam=     0.0
  57     freq=   898. Q=  0.280 lam=    35.2     freq=   913. Q=  0.001 lam=     0.0
  58     freq=   940. Q=  0.000 lam=     0.0     freq=   954. Q=  0.000 lam=     0.0
  59     freq=   940. Q= -0.000 lam=     0.0     freq=   954. Q= -0.000 lam=     0.0
  60     freq=   963. Q= -0.000 lam=     0.0     freq=   978. Q= -0.000 lam=     0.0
  61     freq=   967. Q= -0.030 lam=     0.4     freq=   983. Q= -0.017 lam=     0.1
  62     freq=   978. Q= -0.000 lam=     0.0     freq=   994. Q= -0.000 lam=     0.0
  63     freq=  1023. Q= -0.000 lam=     0.0     freq=  1031. Q= -0.000 lam=     0.0
  64     freq=  1023. Q= -0.000 lam=     0.0     freq=  1032. Q= -0.000 lam=     0.0
  65     freq=  1052. Q= -0.079 lam=     3.3     freq=  1065. Q= -0.070 lam=     2.6
  66     freq=  1076. Q=  0.000 lam=     0.0     freq=  1095. Q=  0.000 lam=     0.0
  67     freq=  1092. Q=  0.000 lam=     0.0     freq=  1105. Q=  0.000 lam=     0.0
  68     freq=  1092. Q= -0.007 lam=     0.0     freq=  1106. Q= -0.021 lam=     0.3
  69     freq=  1150. Q= -0.000 lam=     0.0     freq=  1149. Q= -0.000 lam=     0.0
  70     freq=  1151. Q= -0.001 lam=     0.0     freq=  1150. Q= -0.001 lam=     0.0
  71     freq=  1156. Q=  0.010 lam=     0.1     freq=  1165. Q=  0.000 lam=     0.0
  72     freq=  1160. Q=  0.000 lam=     0.0     freq=  1168. Q=  0.017 lam=     0.2
  73     freq=  1212. Q=  0.000 lam=     0.0     freq=  1231. Q=  0.000 lam=     0.0
  74     freq=  1217. Q=  0.030 lam=     0.6     freq=  1233. Q=  0.008 lam=     0.0
  75     freq=  1244. Q=  0.094 lam=     5.5     freq=  1255. Q=  0.066 lam=     2.8
  76     freq=  1245. Q= -0.000 lam=     0.0     freq=  1263. Q= -0.000 lam=     0.0
  77     freq=  1268. Q= -0.043 lam=     1.2     freq=  1285. Q= -0.073 lam=     3.5
  78     freq=  1275. Q= -0.000 lam=     0.0     freq=  1293. Q= -0.000 lam=     0.0
  79     freq=  1313. Q=  0.000 lam=     0.0     freq=  1333. Q=  0.000 lam=     0.0
  80     freq=  1326. Q=  0.151 lam=    15.2     freq=  1362. Q=  0.027 lam=     0.5
  81     freq=  1351. Q=  0.000 lam=     0.0     freq=  1370. Q=  0.000 lam=     0.0
  82     freq=  1367. Q= -0.148 lam=    15.0     freq=  1391. Q= -0.271 lam=    50.9
  83     freq=  1394. Q= -0.000 lam=     0.0     freq=  1405. Q= -0.001 lam=     0.0
  84     freq=  1394. Q= -0.001 lam=     0.0     freq=  1405. Q= -0.002 lam=     0.0
  85     freq=  1415. Q= -0.000 lam=     0.0     freq=  1426. Q= -0.000 lam=     0.0
  86     freq=  1416. Q=  0.014 lam=     0.1     freq=  1429. Q=  0.061 lam=     2.6
  87     freq=  1430. Q= -0.000 lam=     0.0     freq=  1451. Q= -0.000 lam=     0.0
  88     freq=  1443. Q=  0.108 lam=     8.4     freq=  1466. Q=  0.192 lam=    26.9
  89     freq=  1475. Q= -0.000 lam=     0.0     freq=  1475. Q= -0.000 lam=     0.0
  90     freq=  1483. Q=  0.000 lam=     0.0     freq=  1475. Q=  0.129 lam=    12.3
  91     freq=  1483. Q=  0.001 lam=     0.0     freq=  1484. Q=  0.000 lam=     0.0
  92     freq=  1484. Q=  0.000 lam=     0.0     freq=  1485. Q=  0.000 lam=     0.0
  93     freq=  1484. Q= -0.000 lam=     0.0     freq=  1489. Q= -0.000 lam=     0.0
  94     freq=  1487. Q=  0.129 lam=    12.3     freq=  1489. Q=  0.000 lam=     0.0
  95     freq=  1493. Q=  0.000 lam=     0.0     freq=  1505. Q=  0.000 lam=     0.0
  96     freq=  1497. Q=  0.034 lam=     0.8     freq=  1506. Q=  0.027 lam=     0.6
  97     freq=  1499. Q= -0.000 lam=     0.0     freq=  1508. Q= -0.000 lam=     0.0
  98     freq=  1509. Q= -0.015 lam=     0.2     freq=  1512. Q= -0.052 lam=     2.1
  99     freq=  1509. Q=  0.001 lam=     0.0     freq=  1521. Q=  0.000 lam=     0.0
 100     freq=  1527. Q=  0.173 lam=    22.7     freq=  1538. Q=  0.000 lam=     0.0
 101     freq=  1530. Q= -0.000 lam=     0.0     freq=  1541. Q= -0.046 lam=     1.6
 102     freq=  1655. Q= -0.217 lam=    39.0     freq=  1640. Q= -0.162 lam=    21.5
 103     freq=  3017. Q= -0.000 lam=     0.0     freq=  3037. Q= -0.001 lam=     0.0
 104     freq=  3017. Q=  0.000 lam=     0.0     freq=  3037. Q=  0.000 lam=     0.0
 105     freq=  3021. Q=  0.000 lam=     0.0     freq=  3039. Q=  0.000 lam=     0.0
 106     freq=  3022. Q=  0.047 lam=     3.3     freq=  3040. Q=  0.043 lam=     2.9
 107     freq=  3079. Q= -0.000 lam=     0.0     freq=  3105. Q= -0.000 lam=     0.0
 108     freq=  3079. Q= -0.000 lam=     0.0     freq=  3105. Q= -0.000 lam=     0.0
 109     freq=  3084. Q=  0.002 lam=     0.0     freq=  3110. Q=  0.000 lam=     0.0
 110     freq=  3084. Q= -0.000 lam=     0.0     freq=  3110. Q= -0.004 lam=     0.0
 111     freq=  3104. Q=  0.000 lam=     0.0     freq=  3113. Q=  0.000 lam=     0.0
 112     freq=  3104. Q=  0.000 lam=     0.0     freq=  3113. Q=  0.001 lam=     0.0
 113     freq=  3106. Q= -0.000 lam=     0.0     freq=  3115. Q= -0.000 lam=     0.0
 114     freq=  3106. Q= -0.025 lam=     1.0     freq=  3115. Q= -0.031 lam=     1.5
 115     freq=  3163. Q=  0.000 lam=     0.0     freq=  3182. Q=  0.000 lam=     0.0
 116     freq=  3164. Q= -0.011 lam=     0.2     freq=  3183. Q= -0.012 lam=     0.2
 117     freq=  3194. Q= -0.000 lam=     0.0     freq=  3217. Q= -0.000 lam=     0.0
 118     freq=  3195. Q= -0.019 lam=     0.6     freq=  3217. Q= -0.024 lam=     0.9
 119     freq=  3240. Q= -0.000 lam=     0.0     freq=  3240. Q= -0.000 lam=     0.0
 120     freq=  3240. Q=  0.021 lam=     0.7     freq=  3240. Q=  0.019 lam=     0.6

 total reorg energy (cm**-1, kcal/mol)=      302.      313.      0.86      0.90
 Nber of molecules processed=           2
