 Enter ifcurve (0=recti, 1=orth curvi, 2=apprx curvi, -1 = skip
 And atom ordering flag, 0= never changes, 1= use the first order thenceforth,
  2= deduce it (does read on fail), 3= always read it
 Reading file: 
 ./thiophene-donors_6_C0S1.log                                                  
                                          
  Entering Gaussian System, Link 0=g16                                          
  
 Gaussian format, type: g94, g98, g03= F F F
  #P Geom=AllCheck Guess=TCheck SCRF=Check GenChk RB3LYP TD(FC,Read)/6-3    
 energy type= TD      
 Original G94 input coords:
  6  2.759744  0.425147 -0.000015
  6  3.060091 -0.914209 -0.000001
 16  1.625071 -1.929000  0.000012
  6  0.585778 -0.521110 -0.000003
  6  1.367960  0.695901 -0.000017
  6  0.676674  1.924518 -0.000031
  6 -0.768378  1.993404 -0.000031
  6 -1.229792  3.334095 -0.000045
  6 -0.220054  4.263887 -0.000056
 16  1.376297  3.528522 -0.000049
  6 -1.486749  0.780421 -0.000018
  6 -0.823875 -0.505465 -0.000003
  6 -1.754249 -1.575407  0.000011
  6 -3.064341 -1.165843  0.000004
 16 -3.225660  0.584320 -0.000015
  1  3.521619  1.193732 -0.000024
  1  4.033116 -1.378958  0.000004
  1 -2.276341  3.609618 -0.000047
  1 -0.304081  5.338927 -0.000068
  1 -1.469591 -2.619509  0.000023
  1 -3.953341 -1.776129  0.000010
 nber atoms=          21
  Total Energy, E(TD-HF/TD-DFT) =  -1655.49697185                               
  
          32          49 "  -1655.49697185"
After scan for Atom:   Atom  AN      X      Y      Z        X      Y      Z        X      Y      Z   
After scan for Atom:   Atom  AN      X      Y      Z        X      Y      Z        X      Y      Z   
After scan for Atom:   Atom  AN      X      Y      Z        X      Y      Z        X      Y      Z   
After scan for Atom:   Atom  AN      X      Y      Z        X      Y      Z        X      Y      Z   
After scan for Atom:   Atom  AN      X      Y      Z        X      Y      Z        X      Y      Z   
After scan for Atom:   Atom  AN      X      Y      Z        X      Y      Z        X      Y      Z   
After scan for Atom:   Atom  AN      X      Y      Z        X      Y      Z        X      Y      Z   
After scan for Atom:   Atom  AN      X      Y      Z        X      Y      Z        X      Y      Z   
After scan for Atom:   Atom  AN      X      Y      Z        X      Y      Z        X      Y      Z   
After scan for Atom:   Atom  AN      X      Y      Z        X      Y      Z        X      Y      Z   
After scan for Atom:   Atom  AN      X      Y      Z        X      Y      Z        X      Y      Z   
After scan for Atom:   Atom  AN      X      Y      Z        X      Y      Z        X      Y      Z   
After scan for Atom:   Atom  AN      X      Y      Z        X      Y      Z        X      Y      Z   
After scan for Atom:   Atom  AN      X      Y      Z        X      Y      Z        X      Y      Z   
After scan for Atom:   Atom  AN      X      Y      Z        X      Y      Z        X      Y      Z   
After scan for Atom:   Atom  AN      X      Y      Z        X      Y      Z        X      Y      Z   
After scan for Atom:   Atom  AN      X      Y      Z        X      Y      Z        X      Y      Z   
After scan for Atom:   Atom  AN      X      Y      Z        X      Y      Z        X      Y      Z   
After scan for Atom:   Atom  AN      X      Y      Z        X      Y      Z        X      Y      Z   
 g94    frequencies=
     0.0    0.0    0.0    0.0    0.0    0.0   84.0   84.2  108.0  122.1
   200.4  200.4  262.4  262.5  346.7  346.7  361.1  392.9  393.0  419.8
   523.5  563.3  563.3  599.8  634.7  634.7  637.7  637.7  642.5  663.4
   702.7  702.7  729.6  840.1  840.1  844.4  844.4  845.3  863.2 1055.4
  1055.5 1092.1 1092.1 1094.9 1106.1 1261.3 1265.4 1265.4 1332.9 1332.9
  1383.9 1416.6 1416.6 1442.5 1508.9 1538.2 1538.2 3200.4 3200.4 3200.7
  3249.5 3249.5 3252.0
 g94    symmetries=
                                                 A      A      A      A
       A      A      A      A      A      A      A      A      A      A
       A      A      A      A      A      A      A      A      A      A
       A      A      A      A      A      A      A      A      A      A
       A      A      A      A      A      A      A      A      A      A
       A      A      A      A      A      A      A      A      A      A
       A      A      A
 atomic masses:
 12.0000 12.0000 31.9721 12.0000 12.0000 12.0000 12.0000 12.0000 12.0000 31.9721
 12.0000 12.0000 12.0000 12.0000 31.9721  1.0078  1.0078  1.0078  1.0078  1.0078
  1.0078
 looking for force constants in 
 ./thiophene-donors_6_C0S1.fchk                                                 
  
 Cartesian Force Constants                  R   N=        2016                  
  
 n3=          63        2016
 g94-fc frequencies=
    -0.0    0.0    0.0    0.3    3.3    3.6   84.0   84.2  108.0  122.1
   200.4  200.4  262.4  262.5  346.7  346.7  361.1  393.0  393.0  419.9
   523.5  563.3  563.3  599.8  634.7  634.7  637.7  637.7  642.5  663.5
   702.7  702.7  729.6  840.1  840.1  844.4  844.5  845.3  863.2 1055.5
  1055.5 1092.1 1092.1 1094.9 1106.1 1261.3 1265.4 1265.4 1332.9 1332.9
  1383.9 1416.6 1416.6 1442.5 1509.0 1538.2 1538.2 3200.4 3200.5 3200.8
  3249.6 3249.6 3252.1
 at 99999: n3=          63
 symm operator            1 :  F  nop=           0
 symm operator            2 :  F  nop=           0
 symm operator            3 :  F  nop=           0
 symm operator            4 :  F  nop=           0
 symm operator            5 :  T  nop=           1
 symm operator            6 :  F  nop=           1
 symm operator            7 :  F  nop=           1
 The point group of the molecule is  CS
 enforcing symm op           5  jsymt=           1           1          -1
 cartesian coord symmetries:
 A' :   42 A" :   21
 Symmetry rotation matrix:
   1.00000   0.00000   0.00000
   0.00000   1.00000   0.00000
   0.00000   0.00000   1.00000

 Projecting out zero-frequency components
 generating redundant internal coords
         300        3600          21
 search for int coords
   1 str   2   1   1.373
   2 str   3   2   1.758
   3 str   4   3   1.750
   4 str   5   1   1.418
   5 str   5   4   1.447
   6 str   6   5   1.410
   7 str   7   6   1.447
   8 str   8   7   1.418
   9 str   9   8   1.373
  10 str  10   6   1.750
  11 str  10   9   1.758
  12 str  11   7   1.410
  13 str  12   4   1.410
  14 str  12  11   1.447
  15 str  13  12   1.418
  16 str  14  13   1.373
  17 str  15  11   1.750
  18 str  15  14   1.758
  19 str  16   1   1.082
  20 str  17   2   1.078
  21 str  18   8   1.082
  22 str  19   9   1.078
  23 str  20  13   1.082
  24 str  21  14   1.078
 nber stretches=          24
  25 ben   1   2   3
  26 prop tor   1   2   3   4
  27 ben   1   2  17
  28 ben   1   5   4
  29 ben   1   5   6
  30 prop tor   1   5   6   7
  31 prop tor   1   5   6  10
  32 ben   2   1   5
  33 prop tor   2   1   5   4
  34 prop tor   2   1   5   6
  35 ben   2   1  16
  36 ben   2   3   4
  37 prop tor   2   3   4   5
  38 prop tor   2   3   4  12
  39 ben   3   2  17
  40 ben   3   4   5
  41 prop tor   3   4   5   1
  42 prop tor   3   4   5   6
  43 ben   3   4  12
  44 prop tor   3   4  12  11
  45 prop tor   3   4  12  13
  46 ben   4   5   6
  47 prop tor   4   5   6   7
  48 prop tor   4   5   6  10
  49 ben   4  12  11
  50 ben   4  12  13
  51 prop tor   4  12  13  14
  52 prop tor   4  12  13  20
  53 prop tor   5   1   2   3
  54 prop tor   5   1   2  17
  55 ben   5   1  16
  56 ben   5   4  12
  57 prop tor   5   4  12  11
  58 prop tor   5   4  12  13
  59 ben   5   6   7
  60 prop tor   5   6   7   8
  61 prop tor   5   6   7  11
  62 ben   5   6  10
  63 prop tor   5   6  10   9
  64 ben   6   7   8
  65 prop tor   6   7   8   9
  66 prop tor   6   7   8  18
  67 ben   6   7  11
  68 prop tor   6   7  11  12
  69 prop tor   6   7  11  15
  70 ben   6  10   9
  71 ben   7   6  10
  72 prop tor   7   6  10   9
  73 ben   7   8   9
  74 prop tor   7   8   9  10
  75 prop tor   7   8   9  19
  76 ben   7   8  18
  77 ben   7  11  12
  78 prop tor   7  11  12   4
  79 prop tor   7  11  12  13
  80 ben   7  11  15
  81 prop tor   7  11  15  14
  82 ben   8   7  11
  83 prop tor   8   7  11  12
  84 prop tor   8   7  11  15
  85 ben   8   9  10
  86 prop tor   8   9  10   6
  87 ben   8   9  19
  88 ben   9   8  18
  89 prop tor  10   6   7   8
  90 prop tor  10   6   7  11
  91 ben  10   9  19
  92 prop tor  11   7   8   9
  93 prop tor  11   7   8  18
  94 ben  11  12  13
  95 prop tor  11  12  13  14
  96 prop tor  11  12  13  20
  97 ben  11  15  14
  98 prop tor  12   4   5   1
  99 prop tor  12   4   5   6
 100 ben  12  11  15
 101 prop tor  12  11  15  14
 102 ben  12  13  14
 103 prop tor  12  13  14  15
 104 prop tor  12  13  14  21
 105 ben  12  13  20
 106 ben  13  14  15
 107 prop tor  13  14  15  11
 108 ben  13  14  21
 109 ben  14  13  20
 110 prop tor  15  11  12   4
 111 prop tor  15  11  12  13
 112 ben  15  14  21
 113 prop tor  16   1   2   3
 114 prop tor  16   1   2  17
 115 prop tor  16   1   5   4
 116 prop tor  16   1   5   6
 117 prop tor  17   2   3   4
 118 prop tor  18   8   9  10
 119 prop tor  18   8   9  19
 120 prop tor  19   9  10   6
 121 prop tor  20  13  14  15
 122 prop tor  20  13  14  21
 123 prop tor  21  14  15  11
 nber bend=              39
 nber lin bend=           0
 nber prop tor=          60
 nber impr tor=           0
 nber tot redund int=         123
 Eigenvalues of G in red int coords
    Gval -0.00000000 -0.00000000 -0.00000000 -0.00000000 -0.00000000 -0.00000000 -0.00000000 -0.00000000
    Gval -0.00000000 -0.00000000 -0.00000000 -0.00000000 -0.00000000 -0.00000000 -0.00000000 -0.00000000
    Gval -0.00000000 -0.00000000 -0.00000000 -0.00000000 -0.00000000 -0.00000000 -0.00000000 -0.00000000
    Gval -0.00000000 -0.00000000 -0.00000000 -0.00000000 -0.00000000 -0.00000000 -0.00000000 -0.00000000
    Gval -0.00000000 -0.00000000 -0.00000000  0.00000000  0.00000000  0.00000000  0.00000000  0.00000000
    Gval  0.00000000  0.00000000  0.00000000  0.00000000  0.00000000  0.00000000  0.00000000  0.00000000
    Gval  0.00000000  0.00000000  0.00000000  0.00000000  0.00000000  0.00000000  0.00000000  0.00000000
    Gval  0.00000000  0.00000000  0.00000000  0.00000000  0.00000000  0.00000000  0.00000000  0.00000000
    Gval  0.00000000  0.00000000  0.00000696  0.00000696  0.00000921  0.00002057  0.00002057  0.00003411
    Gval  0.00004593  0.00004593  0.00004723  0.00004723  0.00004962  0.00006313  0.00006313  0.00006929
    Gval  0.00008728  0.00009554  0.00009707  0.00009707  0.00009732  0.00012867  0.00012867  0.00016426
    Gval  0.00018956  0.00020194  0.00020194  0.00029795  0.00029795  0.00031401  0.00032478  0.00032478
    Gval  0.00044039  0.00044039  0.00045544  0.00047588  0.00059668  0.00059671  0.00059671  0.00062342
    Gval  0.00062453  0.00062454  0.00062637  0.00062637  0.00108098  0.00108176  0.00108176  0.00118220
    Gval  0.00118261  0.00118261  0.00138299  0.00138299  0.00188136  0.00220731  0.00220732  0.00241452
    Gval  0.00391129  0.00391129  0.00391349
  6.963369648596813E-006  6.963369648596813E-006
  6.963375039445711E-006  6.963369648596813E-006
  9.206002498670895E-006  6.963369648596813E-006
  2.057137922688187E-005  6.963369648596813E-006
  2.057138844779091E-005  6.963369648596813E-006
  3.411432907321703E-005  6.963369648596813E-006
  4.593200459347518E-005  6.963369648596813E-006
  4.593203816963199E-005  6.963369648596813E-006
  4.722906938940776E-005  6.963369648596813E-006
  4.722925010074243E-005  6.963369648596813E-006
  4.961949576485578E-005  6.963369648596813E-006
  6.312840139535213E-005  6.963369648596813E-006
  6.312845426158476E-005  6.963369648596813E-006
  6.929082821294814E-005  6.963369648596813E-006
  8.727550669829080E-005  6.963369648596813E-006
  9.554412718642698E-005  6.963369648596813E-006
  9.706769063028912E-005  6.963369648596813E-006
  9.706785385632940E-005  6.963369648596813E-006
  9.731941799568610E-005  6.963369648596813E-006
  1.286725016745986E-004  6.963369648596813E-006
  1.286725744825980E-004  6.963369648596813E-006
  1.642645075114018E-004  6.963369648596813E-006
  1.895618922682867E-004  6.963369648596813E-006
  2.019430968134765E-004  6.963369648596813E-006
  2.019431521401921E-004  6.963369648596813E-006
  2.979483192459694E-004  6.963369648596813E-006
  2.979490943393606E-004  6.963369648596813E-006
  3.140133320594276E-004  6.963369648596813E-006
  3.247766987125677E-004  6.963369648596813E-006
  3.247774424919892E-004  6.963369648596813E-006
  4.403913788293098E-004  6.963369648596813E-006
  4.403930197334763E-004  6.963369648596813E-006
  4.554388783633658E-004  6.963369648596813E-006
  4.758757402525293E-004  6.963369648596813E-006
  5.966835240508151E-004  6.963369648596813E-006
  5.967071141453545E-004  6.963369648596813E-006
  5.967071576410284E-004  6.963369648596813E-006
  6.234232710581164E-004  6.963369648596813E-006
  6.245322949232318E-004  6.963369648596813E-006
  6.245368306908725E-004  6.963369648596813E-006
  6.263729747135036E-004  6.963369648596813E-006
  6.263731024449279E-004  6.963369648596813E-006
  1.080979830631563E-003  6.963369648596813E-006
  1.081763792591416E-003  6.963369648596813E-006
  1.081764309997894E-003  6.963369648596813E-006
  1.182201447830378E-003  6.963369648596813E-006
  1.182606251300462E-003  6.963369648596813E-006
  1.182607685681272E-003  6.963369648596813E-006
  1.382986262222078E-003  6.963369648596813E-006
  1.382992209150116E-003  6.963369648596813E-006
  1.881363379610999E-003  6.963369648596813E-006
  2.207307847585334E-003  6.963369648596813E-006
  2.207319665625674E-003  6.963369648596813E-006
  2.414524581686426E-003  6.963369648596813E-006
  3.911285215848882E-003  6.963369648596813E-006
  3.911292468381311E-003  6.963369648596813E-006
  3.913494858988702E-003  6.963369648596813E-006
 cut=1d-8, nber non-redundant internal coords=          57
 Check on Eigenvals of non-red overlap matrix:
  0.00000696  0.00000696  0.00000921  0.00002057  0.00002057  0.00003411  0.00004593  0.00004593
  0.00004723  0.00004723  0.00004962  0.00006313  0.00006313  0.00006929  0.00008728  0.00009554
  0.00009707  0.00009707  0.00009732  0.00012867  0.00012867  0.00016426  0.00018956  0.00020194
  0.00020194  0.00029795  0.00029795  0.00031401  0.00032478  0.00032478  0.00044039  0.00044039
  0.00045544  0.00047588  0.00059668  0.00059671  0.00059671  0.00062342  0.00062453  0.00062454
  0.00062637  0.00062637  0.00108098  0.00108176  0.00108176  0.00118220  0.00118261  0.00118261
  0.00138299  0.00138299  0.00188136  0.00220731  0.00220732  0.00241452  0.00391129  0.00391129
  0.00391349
 Checking for correct frequencies
 recalc frequencies=
    -0.0    0.0    0.0    0.0    0.0    0.0   84.0   84.2  108.0  122.1
   200.4  200.4  262.4  262.5  346.7  346.7  361.1  393.0  393.0  419.9
   523.5  563.3  563.3  599.8  634.7  634.7  637.7  637.7  642.5  663.5
   702.7  702.7  729.6  840.1  840.1  844.4  844.5  845.3  863.2 1055.5
  1055.5 1092.1 1092.1 1094.9 1106.1 1261.3 1265.4 1265.4 1332.9 1332.9
  1383.9 1416.6 1416.6 1442.5 1509.0 1538.2 1538.2 3200.4 3200.5 3200.8
  3249.6 3249.6 3252.1
 recalc symmetries=
     A'     A"     A'     A'     A"     A"     A"     A"     A"     A" 
     A'     A'     A"     A"     A'     A'     A'     A"     A"     A" 
     A'     A"     A"     A"     A'     A'     A"     A"     A'     A" 
     A'     A'     A'     A'     A'     A"     A"     A"     A'     A' 
     A'     A'     A'     A'     A'     A'     A'     A'     A'     A' 
     A'     A'     A'     A'     A'     A'     A'     A'     A'     A' 
     A'     A'     A' 
 recalc freqs check OK
 Zero-point lengths:
 10.0000 10.0000 10.0000 10.0000 10.0000 10.0000 27.0448 27.0230 23.8502 22.4314
 17.5127 17.5117 15.3029 15.3017 13.3140 13.3137 13.0461 12.5061 12.5058 12.0990
 10.8355 10.4454 10.4451 10.1225  9.8401  9.8400  9.8174  9.8171  9.7805  9.6248
  9.3520  9.3519  9.1781  8.5534  8.5533  8.5312  8.5311  8.5268  8.4378  7.6309
  7.6308  7.5018  7.5017  7.4922  7.4542  6.9805  6.9692  6.9691  6.7904  6.7904
  6.6642  6.5867  6.5867  6.5273  6.3820  6.3210  6.3210  4.3822  4.3821  4.3819
  4.3489  4.3489  4.3472
 highest evec of mol 1
 -0.0170 -0.0282  0.0000
 -0.1481  0.0788  0.0000
  0.0008  0.0009  0.0000
  0.0019 -0.0000  0.0000
  0.0029 -0.0008  0.0000
 -0.0010  0.0017  0.0000
 -0.0007  0.0029  0.0000
  0.0328 -0.0006  0.0000
  0.0058 -0.1672  0.0000
 -0.0012  0.0003  0.0000
 -0.0010 -0.0017  0.0000
 -0.0022 -0.0021  0.0000
 -0.0159  0.0287  0.0000
  0.1420  0.0887  0.0000
  0.0004 -0.0012  0.0000
  0.0586  0.0616  0.0000
  0.4916 -0.2372  0.0000
 -0.0823  0.0199  0.0000
 -0.0402  0.5428  0.0000
  0.0239 -0.0813  0.0000
 -0.4503 -0.3065  0.0000
 generating redundant internal coords
         300        3600          21
 Adding extra bonds for z output only
           6           6          16           6           6           6
           6           6           6          16           6           6
           6           6          16           1           1           1
           1           1           1
 search for int coords
   1 str   2   1   1.373
   2 str   3   2   1.758
   3 str   4   3   1.750
   4 str   5   1   1.418
   5 str   5   4   1.447
   6 str   6   5   1.410
   7 str   7   6   1.447
   8 str   8   7   1.418
   9 str   9   8   1.373
  10 str  10   6   1.750
  11 str  10   9   1.758
  12 str  11   7   1.410
  13 str  12   4   1.410
  14 str  12  11   1.447
  15 str  13  12   1.418
  16 str  14  13   1.373
  17 str  15  11   1.750
  18 str  15  14   1.758
  19 str  16   1   1.082
  20 str  17   2   1.078
  21 str  18   8   1.082
  22 str  19   9   1.078
  23 str  20  13   1.082
  24 str  21  14   1.078
 nber stretches=          24
  25 ben   1   2   3
  26 prop tor   1   2   3   4
  27 ben   1   2  17
  28 ben   1   5   4
  29 ben   1   5   6
  30 prop tor   1   5   6   7
  31 prop tor   1   5   6  10
  32 ben   2   1   5
  33 prop tor   2   1   5   4
  34 prop tor   2   1   5   6
  35 ben   2   1  16
  36 ben   2   3   4
  37 prop tor   2   3   4   5
  38 prop tor   2   3   4  12
  39 ben   3   2  17
  40 ben   3   4   5
  41 prop tor   3   4   5   1
  42 prop tor   3   4   5   6
  43 ben   3   4  12
  44 prop tor   3   4  12  11
  45 prop tor   3   4  12  13
  46 ben   4   5   6
  47 prop tor   4   5   6   7
  48 prop tor   4   5   6  10
  49 ben   4  12  11
  50 ben   4  12  13
  51 prop tor   4  12  13  14
  52 prop tor   4  12  13  20
  53 prop tor   5   1   2   3
  54 prop tor   5   1   2  17
  55 ben   5   1  16
  56 ben   5   4  12
  57 prop tor   5   4  12  11
  58 prop tor   5   4  12  13
  59 ben   5   6   7
  60 prop tor   5   6   7   8
  61 prop tor   5   6   7  11
  62 ben   5   6  10
  63 prop tor   5   6  10   9
  64 ben   6   7   8
  65 prop tor   6   7   8   9
  66 prop tor   6   7   8  18
  67 ben   6   7  11
  68 prop tor   6   7  11  12
  69 prop tor   6   7  11  15
  70 ben   6  10   9
  71 ben   7   6  10
  72 prop tor   7   6  10   9
  73 ben   7   8   9
  74 prop tor   7   8   9  10
  75 prop tor   7   8   9  19
  76 ben   7   8  18
  77 ben   7  11  12
  78 prop tor   7  11  12   4
  79 prop tor   7  11  12  13
  80 ben   7  11  15
  81 prop tor   7  11  15  14
  82 ben   8   7  11
  83 prop tor   8   7  11  12
  84 prop tor   8   7  11  15
  85 ben   8   9  10
  86 prop tor   8   9  10   6
  87 ben   8   9  19
  88 ben   9   8  18
  89 prop tor  10   6   7   8
  90 prop tor  10   6   7  11
  91 ben  10   9  19
  92 prop tor  11   7   8   9
  93 prop tor  11   7   8  18
  94 ben  11  12  13
  95 prop tor  11  12  13  14
  96 prop tor  11  12  13  20
  97 ben  11  15  14
  98 prop tor  12   4   5   1
  99 prop tor  12   4   5   6
 100 ben  12  11  15
 101 prop tor  12  11  15  14
 102 ben  12  13  14
 103 prop tor  12  13  14  15
 104 prop tor  12  13  14  21
 105 ben  12  13  20
 106 ben  13  14  15
 107 prop tor  13  14  15  11
 108 ben  13  14  21
 109 ben  14  13  20
 110 prop tor  15  11  12   4
 111 prop tor  15  11  12  13
 112 ben  15  14  21
 113 prop tor  16   1   2   3
 114 prop tor  16   1   2  17
 115 prop tor  16   1   5   4
 116 prop tor  16   1   5   6
 117 prop tor  17   2   3   4
 118 prop tor  18   8   9  10
 119 prop tor  18   8   9  19
 120 prop tor  19   9  10   6
 121 prop tor  20  13  14  15
 122 prop tor  20  13  14  21
 123 prop tor  21  14  15  11
 nber bend=              39
 nber lin bend=           0
 nber prop tor=          60
 nber impr tor=           0
 nber tot redund int=         123
 Reading file: 
 ./thiophene-donors_6_C1S0.log                                                  
                                          
  Entering Gaussian System, Link 0=g16                                          
  
 Gaussian format, type: g94, g98, g03= F F F
  #P Geom=AllCheck Guess=TCheck SCRF=Check GenChk UB3LYP/6-311G(d,p) Fre    
 energy type= B3LYP   
 Original G94 input coords:
  6  2.737241  0.429924 -0.000018
  6  3.016349 -0.921457  0.000011
 16  1.621158 -1.933049 -0.000003
  6  0.580738 -0.513994 -0.000007
  6  1.354780  0.694970 -0.000018
  6  0.654772  1.936593 -0.000031
  6 -0.747164  1.999644 -0.000032
  6 -1.231030  3.345458 -0.000054
  6 -0.217922  4.260686 -0.000048
 16  1.346847  3.524928 -0.000053
  6 -1.472511  0.778666 -0.000020
  6 -0.806742 -0.502247 -0.000007
  6 -1.746035 -1.593848 -0.000004
  6 -3.026591 -1.172174  0.000028
 16 -3.179884  0.588856 -0.000034
  1  3.511470  1.184958 -0.000026
  1  3.996447 -1.377560  0.000022
  1 -2.276402  3.623009 -0.000061
  1 -0.294234  5.337502 -0.000053
  1 -1.463180 -2.637480 -0.000001
  1 -3.928207 -1.766525  0.000049
 nber atoms=          21
  SCF Done:  E(UB3LYP) =  -1655.37067211     A.U. after    1 cycles             
  
          23          40 "  -1655.37067211"
After scan for Atom:   Atom  AN      X      Y      Z        X      Y      Z        X      Y      Z   
After scan for Atom:   Atom  AN      X      Y      Z        X      Y      Z        X      Y      Z   
After scan for Atom:   Atom  AN      X      Y      Z        X      Y      Z        X      Y      Z   
After scan for Atom:   Atom  AN      X      Y      Z        X      Y      Z        X      Y      Z   
After scan for Atom:   Atom  AN      X      Y      Z        X      Y      Z        X      Y      Z   
After scan for Atom:   Atom  AN      X      Y      Z        X      Y      Z        X      Y      Z   
After scan for Atom:   Atom  AN      X      Y      Z        X      Y      Z        X      Y      Z   
After scan for Atom:   Atom  AN      X      Y      Z        X      Y      Z        X      Y      Z   
After scan for Atom:   Atom  AN      X      Y      Z        X      Y      Z        X      Y      Z   
After scan for Atom:   Atom  AN      X      Y      Z        X      Y      Z        X      Y      Z   
After scan for Atom:   Atom  AN      X      Y      Z        X      Y      Z        X      Y      Z   
After scan for Atom:   Atom  AN      X      Y      Z        X      Y      Z        X      Y      Z   
After scan for Atom:   Atom  AN      X      Y      Z        X      Y      Z        X      Y      Z   
After scan for Atom:   Atom  AN      X      Y      Z        X      Y      Z        X      Y      Z   
After scan for Atom:   Atom  AN      X      Y      Z        X      Y      Z        X      Y      Z   
After scan for Atom:   Atom  AN      X      Y      Z        X      Y      Z        X      Y      Z   
After scan for Atom:   Atom  AN      X      Y      Z        X      Y      Z        X      Y      Z   
After scan for Atom:   Atom  AN      X      Y      Z        X      Y      Z        X      Y      Z   
After scan for Atom:   Atom  AN      X      Y      Z        X      Y      Z        X      Y      Z   
 g94    frequencies=
     0.0    0.0    0.0    0.0    0.0    0.0   90.8  102.3  120.7  154.7
   158.0  205.4  237.5  308.5  322.2  368.3  384.8  455.7  468.6  481.0
   528.9  554.9  617.0  624.7  647.5  649.8  659.5  707.3  746.1  749.6
   754.7  760.2  777.4  854.6  872.8  877.5  906.1  910.4  915.6 1058.4
  1063.1 1085.7 1117.7 1122.9 1140.2 1227.9 1267.9 1301.8 1320.6 1351.8
  1382.3 1418.8 1453.7 1456.2 1501.0 1553.2 1594.9 3215.6 3216.5 3216.9
  3237.8 3247.9 3250.1
 g94    symmetries=
                                                 A      A      A      A
       A      A      A      A      A      A      A      A      A      A
       A      A      A      A      A      A      A      A      A      A
       A      A      A      A      A      A      A      A      A      A
       A      A      A      A      A      A      A      A      A      A
       A      A      A      A      A      A      A      A      A      A
       A      A      A
 atomic masses:
 12.0000 12.0000 31.9721 12.0000 12.0000 12.0000 12.0000 12.0000 12.0000 31.9721
 12.0000 12.0000 12.0000 12.0000 31.9721  1.0078  1.0078  1.0078  1.0078  1.0078
  1.0078
 looking for force constants in 
 ./thiophene-donors_6_C1S0.fchk                                                 
  
 Cartesian Force Constants                  R   N=        2016                  
  
 n3=          63        2016
 g94-fc frequencies=
    -3.1   -2.0   -0.0    0.0    0.0    2.2   90.8  102.3  120.7  154.7
   158.0  205.4  237.5  308.5  322.2  368.3  384.8  455.7  468.6  481.0
   528.9  554.9  617.1  624.7  647.5  649.8  659.5  707.3  746.1  749.6
   754.8  760.2  777.4  854.6  872.8  877.5  906.1  910.5  915.6 1058.4
  1063.1 1085.7 1117.7 1123.0 1140.2 1227.9 1267.9 1301.8 1320.6 1351.9
  1382.3 1418.8 1453.8 1456.3 1501.1 1553.2 1594.9 3215.7 3216.6 3217.0
  3237.9 3248.0 3250.1
 at 99999: n3=          63
 symm operator            1 :  F  nop=           0
 symm operator            2 :  F  nop=           0
 symm operator            3 :  F  nop=           0
 symm operator            4 :  F  nop=           0
 symm operator            5 :  T  nop=           1
 symm operator            6 :  F  nop=           1
 symm operator            7 :  F  nop=           1
 The point group of the molecule is  CS
 enforcing symm op           5  jsymt=           1           1          -1
 cartesian coord symmetries:
 A' :   42 A" :   21
 Symmetry rotation matrix:
   1.00000   0.00000   0.00000
   0.00000   1.00000   0.00000
   0.00000   0.00000   1.00000

 Projecting out zero-frequency components
 generating redundant internal coords
         300        3600          21
 search for int coords
   1 str   2   1   1.380
   2 str   3   2   1.723
   3 str   4   3   1.760
   4 str   5   1   1.408
   5 str   5   4   1.436
   6 str   6   5   1.425
   7 str   7   6   1.403
   8 str   8   7   1.430
   9 str   9   8   1.365
  10 str  10   6   1.733
  11 str  10   9   1.729
  12 str  11   7   1.420
  13 str  12   4   1.388
  14 str  12  11   1.444
  15 str  13  12   1.440
  16 str  14  13   1.348
  17 str  15  11   1.718
  18 str  15  14   1.768
  19 str  16   1   1.081
  20 str  17   2   1.081
  21 str  18   8   1.082
  22 str  19   9   1.080
  23 str  20  13   1.081
  24 str  21  14   1.080
 nber stretches=          24
  25 ben   1   2   3
  26 prop tor   1   2   3   4
  27 ben   1   2  17
  28 ben   1   5   4
  29 ben   1   5   6
  30 prop tor   1   5   6   7
  31 prop tor   1   5   6  10
  32 ben   2   1   5
  33 prop tor   2   1   5   4
  34 prop tor   2   1   5   6
  35 ben   2   1  16
  36 ben   2   3   4
  37 prop tor   2   3   4   5
  38 prop tor   2   3   4  12
  39 ben   3   2  17
  40 ben   3   4   5
  41 prop tor   3   4   5   1
  42 prop tor   3   4   5   6
  43 ben   3   4  12
  44 prop tor   3   4  12  11
  45 prop tor   3   4  12  13
  46 ben   4   5   6
  47 prop tor   4   5   6   7
  48 prop tor   4   5   6  10
  49 ben   4  12  11
  50 ben   4  12  13
  51 prop tor   4  12  13  14
  52 prop tor   4  12  13  20
  53 prop tor   5   1   2   3
  54 prop tor   5   1   2  17
  55 ben   5   1  16
  56 ben   5   4  12
  57 prop tor   5   4  12  11
  58 prop tor   5   4  12  13
  59 ben   5   6   7
  60 prop tor   5   6   7   8
  61 prop tor   5   6   7  11
  62 ben   5   6  10
  63 prop tor   5   6  10   9
  64 ben   6   7   8
  65 prop tor   6   7   8   9
  66 prop tor   6   7   8  18
  67 ben   6   7  11
  68 prop tor   6   7  11  12
  69 prop tor   6   7  11  15
  70 ben   6  10   9
  71 ben   7   6  10
  72 prop tor   7   6  10   9
  73 ben   7   8   9
  74 prop tor   7   8   9  10
  75 prop tor   7   8   9  19
  76 ben   7   8  18
  77 ben   7  11  12
  78 prop tor   7  11  12   4
  79 prop tor   7  11  12  13
  80 ben   7  11  15
  81 prop tor   7  11  15  14
  82 ben   8   7  11
  83 prop tor   8   7  11  12
  84 prop tor   8   7  11  15
  85 ben   8   9  10
  86 prop tor   8   9  10   6
  87 ben   8   9  19
  88 ben   9   8  18
  89 prop tor  10   6   7   8
  90 prop tor  10   6   7  11
  91 ben  10   9  19
  92 prop tor  11   7   8   9
  93 prop tor  11   7   8  18
  94 ben  11  12  13
  95 prop tor  11  12  13  14
  96 prop tor  11  12  13  20
  97 ben  11  15  14
  98 prop tor  12   4   5   1
  99 prop tor  12   4   5   6
 100 ben  12  11  15
 101 prop tor  12  11  15  14
 102 ben  12  13  14
 103 prop tor  12  13  14  15
 104 prop tor  12  13  14  21
 105 ben  12  13  20
 106 ben  13  14  15
 107 prop tor  13  14  15  11
 108 ben  13  14  21
 109 ben  14  13  20
 110 prop tor  15  11  12   4
 111 prop tor  15  11  12  13
 112 ben  15  14  21
 113 prop tor  16   1   2   3
 114 prop tor  16   1   2  17
 115 prop tor  16   1   5   4
 116 prop tor  16   1   5   6
 117 prop tor  17   2   3   4
 118 prop tor  18   8   9  10
 119 prop tor  18   8   9  19
 120 prop tor  19   9  10   6
 121 prop tor  20  13  14  15
 122 prop tor  20  13  14  21
 123 prop tor  21  14  15  11
 nber bend=              39
 nber lin bend=           0
 nber prop tor=          60
 nber impr tor=           0
 nber tot redund int=         123
 Eigenvalues of G in red int coords
    Gval -0.00000000 -0.00000000 -0.00000000 -0.00000000 -0.00000000 -0.00000000 -0.00000000 -0.00000000
    Gval -0.00000000 -0.00000000 -0.00000000 -0.00000000 -0.00000000 -0.00000000 -0.00000000 -0.00000000
    Gval -0.00000000 -0.00000000 -0.00000000 -0.00000000 -0.00000000 -0.00000000 -0.00000000 -0.00000000
    Gval -0.00000000 -0.00000000 -0.00000000 -0.00000000 -0.00000000 -0.00000000 -0.00000000  0.00000000
    Gval  0.00000000  0.00000000  0.00000000  0.00000000  0.00000000  0.00000000  0.00000000  0.00000000
    Gval  0.00000000  0.00000000  0.00000000  0.00000000  0.00000000  0.00000000  0.00000000  0.00000000
    Gval  0.00000000  0.00000000  0.00000000  0.00000000  0.00000000  0.00000000  0.00000000  0.00000000
    Gval  0.00000000  0.00000000  0.00000000  0.00000000  0.00000000  0.00000000  0.00000000  0.00000000
    Gval  0.00000000  0.00000000  0.00000697  0.00000701  0.00000921  0.00002065  0.00002071  0.00003423
    Gval  0.00004585  0.00004601  0.00004750  0.00004782  0.00004961  0.00006314  0.00006336  0.00007005
    Gval  0.00008781  0.00009634  0.00009726  0.00009749  0.00009768  0.00012860  0.00012985  0.00016511
    Gval  0.00019161  0.00020288  0.00020428  0.00029854  0.00030405  0.00031318  0.00032632  0.00032857
    Gval  0.00043722  0.00044621  0.00046007  0.00047394  0.00059668  0.00059672  0.00059676  0.00061927
    Gval  0.00062331  0.00062592  0.00062664  0.00063265  0.00107895  0.00108039  0.00108103  0.00117967
    Gval  0.00118445  0.00118693  0.00137862  0.00139949  0.00188692  0.00218474  0.00219915  0.00241369
    Gval  0.00389818  0.00394789  0.00396583
  6.973734088564601E-006  6.973734088564601E-006
  7.008244730126816E-006  6.973734088564601E-006
  9.212592600728718E-006  6.973734088564601E-006
  2.064596587107773E-005  6.973734088564601E-006
  2.070752663148343E-005  6.973734088564601E-006
  3.422997889786229E-005  6.973734088564601E-006
  4.585155301745836E-005  6.973734088564601E-006
  4.601002801357268E-005  6.973734088564601E-006
  4.750306104746348E-005  6.973734088564601E-006
  4.782346366036034E-005  6.973734088564601E-006
  4.960544069648658E-005  6.973734088564601E-006
  6.313741846683028E-005  6.973734088564601E-006
  6.336462751023565E-005  6.973734088564601E-006
  7.005061492278048E-005  6.973734088564601E-006
  8.780618551923874E-005  6.973734088564601E-006
  9.633833442565745E-005  6.973734088564601E-006
  9.726312286039531E-005  6.973734088564601E-006
  9.748744107188658E-005  6.973734088564601E-006
  9.768218951701034E-005  6.973734088564601E-006
  1.286026383323573E-004  6.973734088564601E-006
  1.298483159706663E-004  6.973734088564601E-006
  1.651119912668816E-004  6.973734088564601E-006
  1.916128467386080E-004  6.973734088564601E-006
  2.028797422205820E-004  6.973734088564601E-006
  2.042842134704121E-004  6.973734088564601E-006
  2.985442215809737E-004  6.973734088564601E-006
  3.040519371952410E-004  6.973734088564601E-006
  3.131803887683176E-004  6.973734088564601E-006
  3.263177615117405E-004  6.973734088564601E-006
  3.285729794492326E-004  6.973734088564601E-006
  4.372239328308959E-004  6.973734088564601E-006
  4.462134072631964E-004  6.973734088564601E-006
  4.600734195337309E-004  6.973734088564601E-006
  4.739375286267887E-004  6.973734088564601E-006
  5.966816654533780E-004  6.973734088564601E-006
  5.967249882546346E-004  6.973734088564601E-006
  5.967630836305524E-004  6.973734088564601E-006
  6.192749046649288E-004  6.973734088564601E-006
  6.233063493641068E-004  6.973734088564601E-006
  6.259161627176842E-004  6.973734088564601E-006
  6.266382839889259E-004  6.973734088564601E-006
  6.326479199477886E-004  6.973734088564601E-006
  1.078948678157503E-003  6.973734088564601E-006
  1.080389304941694E-003  6.973734088564601E-006
  1.081026001492257E-003  6.973734088564601E-006
  1.179667173087708E-003  6.973734088564601E-006
  1.184450835261996E-003  6.973734088564601E-006
  1.186932540466200E-003  6.973734088564601E-006
  1.378624026802623E-003  6.973734088564601E-006
  1.399494389888206E-003  6.973734088564601E-006
  1.886920892134350E-003  6.973734088564601E-006
  2.184741584629347E-003  6.973734088564601E-006
  2.199148161998294E-003  6.973734088564601E-006
  2.413689086226490E-003  6.973734088564601E-006
  3.898175662265626E-003  6.973734088564601E-006
  3.947891197358308E-003  6.973734088564601E-006
  3.965833089277243E-003  6.973734088564601E-006
 cut=1d-8, nber non-redundant internal coords=          57
 Check on Eigenvals of non-red overlap matrix:
  0.00000697  0.00000701  0.00000921  0.00002065  0.00002071  0.00003423  0.00004585  0.00004601
  0.00004750  0.00004782  0.00004961  0.00006314  0.00006336  0.00007005  0.00008781  0.00009634
  0.00009726  0.00009749  0.00009768  0.00012860  0.00012985  0.00016511  0.00019161  0.00020288
  0.00020428  0.00029854  0.00030405  0.00031318  0.00032632  0.00032857  0.00043722  0.00044621
  0.00046007  0.00047394  0.00059668  0.00059672  0.00059676  0.00061927  0.00062331  0.00062592
  0.00062664  0.00063265  0.00107895  0.00108039  0.00108103  0.00117967  0.00118445  0.00118693
  0.00137862  0.00139949  0.00188692  0.00218474  0.00219915  0.00241369  0.00389818  0.00394789
  0.00396583
 Checking for correct frequencies
 recalc frequencies=
    -0.0   -0.0    0.0    0.0    0.0    0.0   90.8  102.3  120.7  154.7
   158.0  205.4  237.5  308.5  322.2  368.3  384.8  455.7  468.6  481.0
   528.9  554.9  617.1  624.7  647.5  649.8  659.5  707.3  746.1  749.6
   754.8  760.2  777.4  854.6  872.8  877.5  906.1  910.5  915.6 1058.4
  1063.1 1085.7 1117.7 1123.0 1140.2 1227.9 1267.9 1301.8 1320.6 1351.9
  1382.3 1418.8 1453.8 1456.3 1501.1 1553.2 1594.9 3215.7 3216.6 3217.0
  3237.9 3248.0 3250.1
 recalc symmetries=
     A'     A'     A"     A'     A"     A"     A"     A"     A"     A' 
     A"     A'     A'     A"     A"     A'     A'     A"     A"     A" 
     A'     A'     A"     A"     A"     A'     A'     A'     A'     A" 
     A"     A'     A"     A'     A'     A'     A"     A"     A"     A' 
     A'     A'     A'     A'     A'     A'     A'     A'     A'     A' 
     A'     A'     A'     A'     A'     A'     A'     A'     A'     A' 
     A'     A'     A' 
 recalc freqs check OK
 Zero-point lengths:
 10.0000 10.0000 10.0000 10.0000 10.0000 10.0000 26.0133 24.5150 22.5627 19.9316
 19.7220 17.2994 16.0875 14.1145 13.8106 12.9174 12.6383 11.6129 11.4524 11.3034
 10.7798 10.5237  9.9801  9.9190  9.7426  9.7253  9.6534  9.3214  9.0761  9.0550
  9.0238  8.9916  8.8912  8.4803  8.3914  8.3690  8.2358  8.2161  8.1930  7.6203
  7.6033  7.5238  7.4154  7.3980  7.3417  7.0748  6.9623  6.8711  6.8219  6.7426
  6.6679  6.5816  6.5020  6.4965  6.3987  6.2905  6.2076  4.3718  4.3712  4.3709
  4.3568  4.3500  4.3486
 highest evec of mol 2
 -0.0006 -0.0002  0.0000
 -0.0003 -0.0001  0.0000
  0.0001 -0.0002  0.0000
 -0.0005 -0.0002  0.0000
 -0.0004  0.0004  0.0000
  0.0010 -0.0040  0.0000
  0.0022 -0.0055  0.0000
 -0.0769  0.0043  0.0000
 -0.0075  0.2899  0.0000
  0.0024 -0.0009  0.0000
  0.0001  0.0008  0.0000
  0.0008  0.0001  0.0000
  0.0003 -0.0013  0.0000
 -0.0035 -0.0023  0.0000
  0.0001  0.0001  0.0000
  0.0013  0.0012  0.0000
  0.0008 -0.0004  0.0000
  0.2046 -0.0512  0.0000
  0.0631 -0.9280  0.0000
 -0.0010  0.0035  0.0000
  0.0113  0.0074  0.0000
 Enter nber and list of atoms to keep of mol #2
 keep list:          21           1           2           3           4
           5           6           7           8           9          10
          11          12          13          14          15          16
          17          18          19          20          21
 reordering atoms
           1  0.645552745299328     
           2   2.02116790143521     
           3   2.85119520658017     
           4   1.31365278187580     
           5  0.210458865834449     
           6  -1.10865225363956     
           7  -1.34574715990824     
           8  -2.74133003295606     
           9  -3.52331056530820     
          10  -2.59847024426197     
          11 -0.224570412187960     
          12   1.12926244461193     
          13   2.09543345004977     
          14   1.51761679830588     
          15 -0.248796995219056     
          16 -7.219375373034399E-003
          17   2.59574009664314     
          18  -3.14686563287067     
          19  -4.60124963531948     
          20   3.16616031589644     
          21   1.99509691929563     
           1           1
           2           2
           3           3
           4           4
           5           5
           6           6
           7           7
           8           8
           9           9
          10          10
          11          11
          12          12
          13          13
          14          14
          15          15
          16          16
          17          17
          18          18
          19          19
          20          20
          21          21
 initial cartes coords mol 1
   6  -0.00000   2.18584   1.82982
   6  -0.00000   1.68954   3.10958
  16   0.00000  -0.06749   3.15345
   6   0.00000  -0.14683   1.40531
   6   0.00000   1.18053   0.82995
   6  -0.00000   1.29044  -0.57550
   6   0.00000   0.12849  -1.43735
   6   0.00000   0.49175  -2.80790
   6   0.00000   1.84819  -3.01797
  16  -0.00000   2.76471  -1.51828
   6  -0.00000  -1.14362  -0.82981
   6   0.00000  -1.30902   0.60740
   6   0.00000  -2.67759   0.97808
   6  -0.00000  -3.53774  -0.09160
  16  -0.00000  -2.69721  -1.63518
   1  -0.00000   3.24664   1.61563
   1  -0.00000   2.23898   4.03741
   1   0.00000  -0.22414  -3.61949
   1   0.00000   2.37700  -3.95773
   1   0.00000  -3.02251   2.00385
   1  -0.00000  -4.61599  -0.07969
 initial cartes coords mol 2
   6  -0.00000   2.75174   0.64555
   6   0.00001   2.86043   2.02117
  16  -0.00001   1.35016   2.85120
   6   0.00000   0.49450   1.31365
   6   0.00000   1.41303   0.21046
   6   0.00000   0.87304  -1.10865
   6   0.00000  -0.51014  -1.34575
   6  -0.00000  -0.82269  -2.74133
   6   0.00001   0.29648  -3.52331
  16  -0.00000   1.75747  -2.59847
   6   0.00000  -1.38185  -0.22457
   6   0.00000  -0.88072   1.12926
   6  -0.00001  -1.94861   2.09543
   6   0.00003  -3.16671   1.51762
  16  -0.00001  -3.09957  -0.24880
   1  -0.00000   3.61394  -0.00722
   1   0.00002   3.77612   2.59574
   1  -0.00001  -1.82538  -3.14687
   1   0.00002   0.35482  -4.60125
   1  -0.00001  -1.79788   3.16616
   1   0.00005  -4.13530   1.99510
 loop 1 0
 mod cartes coords mol 2
   6  -0.00000   2.75174   0.64555
   6   0.00001   2.86043   2.02117
  16  -0.00001   1.35016   2.85120
   6   0.00000   0.49450   1.31365
   6   0.00000   1.41303   0.21046
   6   0.00000   0.87304  -1.10865
   6   0.00000  -0.51014  -1.34575
   6  -0.00000  -0.82269  -2.74133
   6   0.00001   0.29648  -3.52331
  16  -0.00000   1.75747  -2.59847
   6   0.00000  -1.38185  -0.22457
   6   0.00000  -0.88072   1.12926
   6  -0.00001  -1.94861   2.09543
   6   0.00003  -3.16671   1.51762
  16  -0.00001  -3.09957  -0.24880
   1  -0.00000   3.61394  -0.00722
   1   0.00002   3.77612   2.59574
   1  -0.00001  -1.82538  -3.14687
   1   0.00002   0.35482  -4.60125
   1  -0.00001  -1.79788   3.16616
   1   0.00005  -4.13530   1.99510
 read in order, maxerr=  2.13 for atom  21
 loop 1 1
 mod cartes coords mol 2
   6   0.00000   2.75174   0.64555
   6  -0.00001   2.86043   2.02117
  16   0.00001   1.35016   2.85120
   6  -0.00000   0.49450   1.31365
   6  -0.00000   1.41303   0.21046
   6  -0.00000   0.87304  -1.10865
   6  -0.00000  -0.51014  -1.34575
   6   0.00000  -0.82269  -2.74133
   6  -0.00001   0.29648  -3.52331
  16   0.00000   1.75747  -2.59847
   6  -0.00000  -1.38185  -0.22457
   6  -0.00000  -0.88072   1.12926
   6   0.00001  -1.94861   2.09543
   6  -0.00003  -3.16671   1.51762
  16   0.00001  -3.09957  -0.24880
   1   0.00000   3.61394  -0.00722
   1  -0.00002   3.77612   2.59574
   1   0.00001  -1.82538  -3.14687
   1  -0.00002   0.35482  -4.60125
   1   0.00001  -1.79788   3.16616
   1  -0.00005  -4.13530   1.99510
 read in order, maxerr=  2.13 for atom  21
 loop 1 2
 mod cartes coords mol 2
   6  -0.00000  -2.75174   0.64555
   6   0.00001  -2.86043   2.02117
  16  -0.00001  -1.35016   2.85120
   6   0.00000  -0.49450   1.31365
   6   0.00000  -1.41303   0.21046
   6   0.00000  -0.87304  -1.10865
   6   0.00000   0.51014  -1.34575
   6  -0.00000   0.82269  -2.74133
   6   0.00001  -0.29648  -3.52331
  16  -0.00000  -1.75747  -2.59847
   6   0.00000   1.38185  -0.22457
   6   0.00000   0.88072   1.12926
   6  -0.00001   1.94861   2.09543
   6   0.00003   3.16671   1.51762
  16  -0.00001   3.09957  -0.24880
   1  -0.00000  -3.61394  -0.00722
   1   0.00002  -3.77612   2.59574
   1  -0.00001   1.82538  -3.14687
   1   0.00002  -0.35482  -4.60125
   1  -0.00001   1.79788   3.16616
   1   0.00005   4.13530   1.99510
 read in order, maxerr=  8.99 for atom  21
 loop 1 3
 mod cartes coords mol 2
   6   0.00000  -2.75174   0.64555
   6  -0.00001  -2.86043   2.02117
  16   0.00001  -1.35016   2.85120
   6  -0.00000  -0.49450   1.31365
   6  -0.00000  -1.41303   0.21046
   6  -0.00000  -0.87304  -1.10865
   6  -0.00000   0.51014  -1.34575
   6   0.00000   0.82269  -2.74133
   6  -0.00001  -0.29648  -3.52331
  16   0.00000  -1.75747  -2.59847
   6  -0.00000   1.38185  -0.22457
   6  -0.00000   0.88072   1.12926
   6   0.00001   1.94861   2.09543
   6  -0.00003   3.16671   1.51762
  16   0.00001   3.09957  -0.24880
   1   0.00000  -3.61394  -0.00722
   1  -0.00002  -3.77612   2.59574
   1   0.00001   1.82538  -3.14687
   1  -0.00002  -0.35482  -4.60125
   1   0.00001   1.79788   3.16616
   1  -0.00005   4.13530   1.99510
 read in order, maxerr=  8.99 for atom  21
 loop 1 4
 mod cartes coords mol 2
   6  -0.00000   2.75174  -0.64555
   6   0.00001   2.86043  -2.02117
  16  -0.00001   1.35016  -2.85120
   6   0.00000   0.49450  -1.31365
   6   0.00000   1.41303  -0.21046
   6   0.00000   0.87304   1.10865
   6   0.00000  -0.51014   1.34575
   6  -0.00000  -0.82269   2.74133
   6   0.00001   0.29648   3.52331
  16  -0.00000   1.75747   2.59847
   6   0.00000  -1.38185   0.22457
   6   0.00000  -0.88072  -1.12926
   6  -0.00001  -1.94861  -2.09543
   6   0.00003  -3.16671  -1.51762
  16  -0.00001  -3.09957   0.24880
   1  -0.00000   3.61394   0.00722
   1   0.00002   3.77612  -2.59574
   1  -0.00001  -1.82538   3.14687
   1   0.00002   0.35482   4.60125
   1  -0.00001  -1.79788  -3.16616
   1   0.00005  -4.13530  -1.99510
 read in order, maxerr=  8.79 for atom  19
 loop 1 5
 mod cartes coords mol 2
   6   0.00000   2.75174  -0.64555
   6  -0.00001   2.86043  -2.02117
  16   0.00001   1.35016  -2.85120
   6  -0.00000   0.49450  -1.31365
   6  -0.00000   1.41303  -0.21046
   6  -0.00000   0.87304   1.10865
   6  -0.00000  -0.51014   1.34575
   6   0.00000  -0.82269   2.74133
   6  -0.00001   0.29648   3.52331
  16   0.00000   1.75747   2.59847
   6  -0.00000  -1.38185   0.22457
   6  -0.00000  -0.88072  -1.12926
   6   0.00001  -1.94861  -2.09543
   6  -0.00003  -3.16671  -1.51762
  16   0.00001  -3.09957   0.24880
   1   0.00000   3.61394   0.00722
   1  -0.00002   3.77612  -2.59574
   1   0.00001  -1.82538   3.14687
   1  -0.00002   0.35482   4.60125
   1   0.00001  -1.79788  -3.16616
   1  -0.00005  -4.13530  -1.99510
 read in order, maxerr=  8.79 for atom  19
 loop 1 6
 mod cartes coords mol 2
   6  -0.00000  -2.75174  -0.64555
   6   0.00001  -2.86043  -2.02117
  16  -0.00001  -1.35016  -2.85120
   6   0.00000  -0.49450  -1.31365
   6   0.00000  -1.41303  -0.21046
   6   0.00000  -0.87304   1.10865
   6   0.00000   0.51014   1.34575
   6  -0.00000   0.82269   2.74133
   6   0.00001  -0.29648   3.52331
  16  -0.00000  -1.75747   2.59847
   6   0.00000   1.38185   0.22457
   6   0.00000   0.88072  -1.12926
   6  -0.00001   1.94861  -2.09543
   6   0.00003   3.16671  -1.51762
  16  -0.00001   3.09957   0.24880
   1  -0.00000  -3.61394   0.00722
   1   0.00002  -3.77612  -2.59574
   1  -0.00001   1.82538   3.14687
   1   0.00002  -0.35482   4.60125
   1  -0.00001   1.79788  -3.16616
   1   0.00005   4.13530  -1.99510
 read in order, maxerr=  8.98 for atom  19
 loop 1 7
 mod cartes coords mol 2
   6   0.00000  -2.75174  -0.64555
   6  -0.00001  -2.86043  -2.02117
  16   0.00001  -1.35016  -2.85120
   6  -0.00000  -0.49450  -1.31365
   6  -0.00000  -1.41303  -0.21046
   6  -0.00000  -0.87304   1.10865
   6  -0.00000   0.51014   1.34575
   6   0.00000   0.82269   2.74133
   6  -0.00001  -0.29648   3.52331
  16   0.00000  -1.75747   2.59847
   6  -0.00000   1.38185   0.22457
   6  -0.00000   0.88072  -1.12926
   6   0.00001   1.94861  -2.09543
   6  -0.00003   3.16671  -1.51762
  16   0.00001   3.09957   0.24880
   1   0.00000  -3.61394   0.00722
   1  -0.00002  -3.77612  -2.59574
   1   0.00001   1.82538   3.14687
   1  -0.00002  -0.35482   4.60125
   1   0.00001   1.79788  -3.16616
   1  -0.00005   4.13530  -1.99510
 read in order, maxerr=  8.98 for atom  19
 loop 2 0
 mod cartes coords mol 2
   6  -0.00000   0.64555   2.75174
   6   0.00001   2.02117   2.86043
  16  -0.00001   2.85120   1.35016
   6   0.00000   1.31365   0.49450
   6   0.00000   0.21046   1.41303
   6   0.00000  -1.10865   0.87304
   6   0.00000  -1.34575  -0.51014
   6  -0.00000  -2.74133  -0.82269
   6   0.00001  -3.52331   0.29648
  16  -0.00000  -2.59847   1.75747
   6   0.00000  -0.22457  -1.38185
   6   0.00000   1.12926  -0.88072
   6  -0.00001   2.09543  -1.94861
   6   0.00003   1.51762  -3.16671
  16  -0.00001  -0.24880  -3.09957
   1  -0.00000  -0.00722   3.61394
   1   0.00002   2.59574   3.77612
   1  -0.00001  -3.14687  -1.82538
   1   0.00002  -4.60125   0.35482
   1  -0.00001   3.16616  -1.79788
   1   0.00005   1.99510  -4.13530
 read in order, maxerr=  8.20 for atom  19
 loop 2 1
 mod cartes coords mol 2
   6   0.00000   0.64555   2.75174
   6  -0.00001   2.02117   2.86043
  16   0.00001   2.85120   1.35016
   6  -0.00000   1.31365   0.49450
   6  -0.00000   0.21046   1.41303
   6  -0.00000  -1.10865   0.87304
   6  -0.00000  -1.34575  -0.51014
   6   0.00000  -2.74133  -0.82269
   6  -0.00001  -3.52331   0.29648
  16   0.00000  -2.59847   1.75747
   6  -0.00000  -0.22457  -1.38185
   6  -0.00000   1.12926  -0.88072
   6   0.00001   2.09543  -1.94861
   6  -0.00003   1.51762  -3.16671
  16   0.00001  -0.24880  -3.09957
   1   0.00000  -0.00722   3.61394
   1  -0.00002   2.59574   3.77612
   1   0.00001  -3.14687  -1.82538
   1  -0.00002  -4.60125   0.35482
   1   0.00001   3.16616  -1.79788
   1  -0.00005   1.99510  -4.13530
 read in order, maxerr=  8.20 for atom  19
 loop 2 2
 mod cartes coords mol 2
   6  -0.00000   0.64555  -2.75174
   6   0.00001   2.02117  -2.86043
  16  -0.00001   2.85120  -1.35016
   6   0.00000   1.31365  -0.49450
   6   0.00000   0.21046  -1.41303
   6   0.00000  -1.10865  -0.87304
   6   0.00000  -1.34575   0.51014
   6  -0.00000  -2.74133   0.82269
   6   0.00001  -3.52331  -0.29648
  16  -0.00000  -2.59847  -1.75747
   6   0.00000  -0.22457   1.38185
   6   0.00000   1.12926   0.88072
   6  -0.00001   2.09543   1.94861
   6   0.00003   1.51762   3.16671
  16  -0.00001  -0.24880   3.09957
   1  -0.00000  -0.00722  -3.61394
   1   0.00002   2.59574  -3.77612
   1  -0.00001  -3.14687   1.82538
   1   0.00002  -4.60125  -0.35482
   1  -0.00001   3.16616   1.79788
   1   0.00005   1.99510   4.13530
 read in order, maxerr=  7.85 for atom  19
 loop 2 3
 mod cartes coords mol 2
   6   0.00000   0.64555  -2.75174
   6  -0.00001   2.02117  -2.86043
  16   0.00001   2.85120  -1.35016
   6  -0.00000   1.31365  -0.49450
   6  -0.00000   0.21046  -1.41303
   6  -0.00000  -1.10865  -0.87304
   6  -0.00000  -1.34575   0.51014
   6   0.00000  -2.74133   0.82269
   6  -0.00001  -3.52331  -0.29648
  16   0.00000  -2.59847  -1.75747
   6  -0.00000  -0.22457   1.38185
   6  -0.00000   1.12926   0.88072
   6   0.00001   2.09543   1.94861
   6  -0.00003   1.51762   3.16671
  16   0.00001  -0.24880   3.09957
   1   0.00000  -0.00722  -3.61394
   1  -0.00002   2.59574  -3.77612
   1   0.00001  -3.14687   1.82538
   1  -0.00002  -4.60125  -0.35482
   1   0.00001   3.16616   1.79788
   1  -0.00005   1.99510   4.13530
 read in order, maxerr=  7.85 for atom  19
 loop 2 4
 mod cartes coords mol 2
   6  -0.00000  -0.64555   2.75174
   6   0.00001  -2.02117   2.86043
  16  -0.00001  -2.85120   1.35016
   6   0.00000  -1.31365   0.49450
   6   0.00000  -0.21046   1.41303
   6   0.00000   1.10865   0.87304
   6   0.00000   1.34575  -0.51014
   6  -0.00000   2.74133  -0.82269
   6   0.00001   3.52331   0.29648
  16  -0.00000   2.59847   1.75747
   6   0.00000   0.22457  -1.38185
   6   0.00000  -1.12926  -0.88072
   6  -0.00001  -2.09543  -1.94861
   6   0.00003  -1.51762  -3.16671
  16  -0.00001   0.24880  -3.09957
   1  -0.00000   0.00722   3.61394
   1   0.00002  -2.59574   3.77612
   1  -0.00001   3.14687  -1.82538
   1   0.00002   4.60125   0.35482
   1  -0.00001  -3.16616  -1.79788
   1   0.00005  -1.99510  -4.13530
 read in order, maxerr=  4.85 for atom  19
 loop 2 5
 mod cartes coords mol 2
   6   0.00000  -0.64555   2.75174
   6  -0.00001  -2.02117   2.86043
  16   0.00001  -2.85120   1.35016
   6  -0.00000  -1.31365   0.49450
   6  -0.00000  -0.21046   1.41303
   6  -0.00000   1.10865   0.87304
   6  -0.00000   1.34575  -0.51014
   6   0.00000   2.74133  -0.82269
   6  -0.00001   3.52331   0.29648
  16   0.00000   2.59847   1.75747
   6  -0.00000   0.22457  -1.38185
   6  -0.00000  -1.12926  -0.88072
   6   0.00001  -2.09543  -1.94861
   6  -0.00003  -1.51762  -3.16671
  16   0.00001   0.24880  -3.09957
   1   0.00000   0.00722   3.61394
   1  -0.00002  -2.59574   3.77612
   1   0.00001   3.14687  -1.82538
   1  -0.00002   4.60125   0.35482
   1   0.00001  -3.16616  -1.79788
   1  -0.00005  -1.99510  -4.13530
 read in order, maxerr=  4.85 for atom  19
 loop 2 6
 mod cartes coords mol 2
   6  -0.00000  -0.64555  -2.75174
   6   0.00001  -2.02117  -2.86043
  16  -0.00001  -2.85120  -1.35016
   6   0.00000  -1.31365  -0.49450
   6   0.00000  -0.21046  -1.41303
   6   0.00000   1.10865  -0.87304
   6   0.00000   1.34575   0.51014
   6  -0.00000   2.74133   0.82269
   6   0.00001   3.52331  -0.29648
  16  -0.00000   2.59847  -1.75747
   6   0.00000   0.22457   1.38185
   6   0.00000  -1.12926   0.88072
   6  -0.00001  -2.09543   1.94861
   6   0.00003  -1.51762   3.16671
  16  -0.00001   0.24880   3.09957
   1  -0.00000   0.00722  -3.61394
   1   0.00002  -2.59574  -3.77612
   1  -0.00001   3.14687   1.82538
   1   0.00002   4.60125  -0.35482
   1  -0.00001  -3.16616   1.79788
   1   0.00005  -1.99510   4.13530
 read in order, maxerr=  9.19 for atom  17
 loop 2 7
 mod cartes coords mol 2
   6   0.00000  -0.64555  -2.75174
   6  -0.00001  -2.02117  -2.86043
  16   0.00001  -2.85120  -1.35016
   6  -0.00000  -1.31365  -0.49450
   6  -0.00000  -0.21046  -1.41303
   6  -0.00000   1.10865  -0.87304
   6  -0.00000   1.34575   0.51014
   6   0.00000   2.74133   0.82269
   6  -0.00001   3.52331  -0.29648
  16   0.00000   2.59847  -1.75747
   6  -0.00000   0.22457   1.38185
   6  -0.00000  -1.12926   0.88072
   6   0.00001  -2.09543   1.94861
   6  -0.00003  -1.51762   3.16671
  16   0.00001   0.24880   3.09957
   1   0.00000   0.00722  -3.61394
   1  -0.00002  -2.59574  -3.77612
   1   0.00001   3.14687   1.82538
   1  -0.00002   4.60125  -0.35482
   1   0.00001  -3.16616   1.79788
   1  -0.00005  -1.99510   4.13530
 read in order, maxerr=  9.19 for atom  17
 loop 3 0
 mod cartes coords mol 2
   6   2.75174  -0.00000   0.64555
   6   2.86043   0.00001   2.02117
  16   1.35016  -0.00001   2.85120
   6   0.49450   0.00000   1.31365
   6   1.41303   0.00000   0.21046
   6   0.87304   0.00000  -1.10865
   6  -0.51014   0.00000  -1.34575
   6  -0.82269  -0.00000  -2.74133
   6   0.29648   0.00001  -3.52331
  16   1.75747  -0.00000  -2.59847
   6  -1.38185   0.00000  -0.22457
   6  -0.88072   0.00000   1.12926
   6  -1.94861  -0.00001   2.09543
   6  -3.16671   0.00003   1.51762
  16  -3.09957  -0.00001  -0.24880
   1   3.61394  -0.00000  -0.00722
   1   3.77612   0.00002   2.59574
   1  -1.82538  -0.00001  -3.14687
   1   0.35482   0.00002  -4.60125
   1  -1.79788  -0.00001   3.16616
   1  -4.13530   0.00005   1.99510
 read in order, maxerr=  6.54 for atom  21
 loop 3 1
 mod cartes coords mol 2
   6   2.75174   0.00000   0.64555
   6   2.86043  -0.00001   2.02117
  16   1.35016   0.00001   2.85120
   6   0.49450  -0.00000   1.31365
   6   1.41303  -0.00000   0.21046
   6   0.87304  -0.00000  -1.10865
   6  -0.51014  -0.00000  -1.34575
   6  -0.82269   0.00000  -2.74133
   6   0.29648  -0.00001  -3.52331
  16   1.75747   0.00000  -2.59847
   6  -1.38185  -0.00000  -0.22457
   6  -0.88072  -0.00000   1.12926
   6  -1.94861   0.00001   2.09543
   6  -3.16671  -0.00003   1.51762
  16  -3.09957   0.00001  -0.24880
   1   3.61394   0.00000  -0.00722
   1   3.77612  -0.00002   2.59574
   1  -1.82538   0.00001  -3.14687
   1   0.35482  -0.00002  -4.60125
   1  -1.79788   0.00001   3.16616
   1  -4.13530  -0.00005   1.99510
 read in order, maxerr=  6.54 for atom  21
 loop 3 2
 mod cartes coords mol 2
   6  -2.75174  -0.00000   0.64555
   6  -2.86043   0.00001   2.02117
  16  -1.35016  -0.00001   2.85120
   6  -0.49450   0.00000   1.31365
   6  -1.41303   0.00000   0.21046
   6  -0.87304   0.00000  -1.10865
   6   0.51014   0.00000  -1.34575
   6   0.82269  -0.00000  -2.74133
   6  -0.29648   0.00001  -3.52331
  16  -1.75747  -0.00000  -2.59847
   6   1.38185   0.00000  -0.22457
   6   0.88072   0.00000   1.12926
   6   1.94861  -0.00001   2.09543
   6   3.16671   0.00003   1.51762
  16   3.09957  -0.00001  -0.24880
   1  -3.61394  -0.00000  -0.00722
   1  -3.77612   0.00002   2.59574
   1   1.82538  -0.00001  -3.14687
   1  -0.35482   0.00002  -4.60125
   1   1.79788  -0.00001   3.16616
   1   4.13530   0.00005   1.99510
 read in order, maxerr=  6.54 for atom  21
 loop 3 3
 mod cartes coords mol 2
   6  -2.75174   0.00000   0.64555
   6  -2.86043  -0.00001   2.02117
  16  -1.35016   0.00001   2.85120
   6  -0.49450  -0.00000   1.31365
   6  -1.41303  -0.00000   0.21046
   6  -0.87304  -0.00000  -1.10865
   6   0.51014  -0.00000  -1.34575
   6   0.82269   0.00000  -2.74133
   6  -0.29648  -0.00001  -3.52331
  16  -1.75747   0.00000  -2.59847
   6   1.38185  -0.00000  -0.22457
   6   0.88072  -0.00000   1.12926
   6   1.94861   0.00001   2.09543
   6   3.16671  -0.00003   1.51762
  16   3.09957   0.00001  -0.24880
   1  -3.61394   0.00000  -0.00722
   1  -3.77612  -0.00002   2.59574
   1   1.82538   0.00001  -3.14687
   1  -0.35482  -0.00002  -4.60125
   1   1.79788   0.00001   3.16616
   1   4.13530  -0.00005   1.99510
 read in order, maxerr=  6.54 for atom  21
 loop 3 4
 mod cartes coords mol 2
   6   2.75174  -0.00000  -0.64555
   6   2.86043   0.00001  -2.02117
  16   1.35016  -0.00001  -2.85120
   6   0.49450   0.00000  -1.31365
   6   1.41303   0.00000  -0.21046
   6   0.87304   0.00000   1.10865
   6  -0.51014   0.00000   1.34575
   6  -0.82269  -0.00000   2.74133
   6   0.29648   0.00001   3.52331
  16   1.75747  -0.00000   2.59847
   6  -1.38185   0.00000   0.22457
   6  -0.88072   0.00000  -1.12926
   6  -1.94861  -0.00001  -2.09543
   6  -3.16671   0.00003  -1.51762
  16  -3.09957  -0.00001   0.24880
   1   3.61394  -0.00000   0.00722
   1   3.77612   0.00002  -2.59574
   1  -1.82538  -0.00001   3.14687
   1   0.35482   0.00002   4.60125
   1  -1.79788  -0.00001  -3.16616
   1  -4.13530   0.00005  -1.99510
 read in order, maxerr=  8.89 for atom  19
 loop 3 5
 mod cartes coords mol 2
   6   2.75174   0.00000  -0.64555
   6   2.86043  -0.00001  -2.02117
  16   1.35016   0.00001  -2.85120
   6   0.49450  -0.00000  -1.31365
   6   1.41303  -0.00000  -0.21046
   6   0.87304  -0.00000   1.10865
   6  -0.51014  -0.00000   1.34575
   6  -0.82269   0.00000   2.74133
   6   0.29648  -0.00001   3.52331
  16   1.75747   0.00000   2.59847
   6  -1.38185  -0.00000   0.22457
   6  -0.88072  -0.00000  -1.12926
   6  -1.94861   0.00001  -2.09543
   6  -3.16671  -0.00003  -1.51762
  16  -3.09957   0.00001   0.24880
   1   3.61394   0.00000   0.00722
   1   3.77612  -0.00002  -2.59574
   1  -1.82538   0.00001   3.14687
   1   0.35482  -0.00002   4.60125
   1  -1.79788   0.00001  -3.16616
   1  -4.13530  -0.00005  -1.99510
 read in order, maxerr=  8.89 for atom  19
 loop 3 6
 mod cartes coords mol 2
   6  -2.75174  -0.00000  -0.64555
   6  -2.86043   0.00001  -2.02117
  16  -1.35016  -0.00001  -2.85120
   6  -0.49450   0.00000  -1.31365
   6  -1.41303   0.00000  -0.21046
   6  -0.87304   0.00000   1.10865
   6   0.51014   0.00000   1.34575
   6   0.82269  -0.00000   2.74133
   6  -0.29648   0.00001   3.52331
  16  -1.75747  -0.00000   2.59847
   6   1.38185   0.00000   0.22457
   6   0.88072   0.00000  -1.12926
   6   1.94861  -0.00001  -2.09543
   6   3.16671   0.00003  -1.51762
  16   3.09957  -0.00001   0.24880
   1  -3.61394  -0.00000   0.00722
   1  -3.77612   0.00002  -2.59574
   1   1.82538  -0.00001   3.14687
   1  -0.35482   0.00002   4.60125
   1   1.79788  -0.00001  -3.16616
   1   4.13530   0.00005  -1.99510
 read in order, maxerr=  8.89 for atom  19
 loop 3 7
 mod cartes coords mol 2
   6  -2.75174   0.00000  -0.64555
   6  -2.86043  -0.00001  -2.02117
  16  -1.35016   0.00001  -2.85120
   6  -0.49450  -0.00000  -1.31365
   6  -1.41303  -0.00000  -0.21046
   6  -0.87304  -0.00000   1.10865
   6   0.51014  -0.00000   1.34575
   6   0.82269   0.00000   2.74133
   6  -0.29648  -0.00001   3.52331
  16  -1.75747   0.00000   2.59847
   6   1.38185  -0.00000   0.22457
   6   0.88072  -0.00000  -1.12926
   6   1.94861   0.00001  -2.09543
   6   3.16671  -0.00003  -1.51762
  16   3.09957   0.00001   0.24880
   1  -3.61394   0.00000   0.00722
   1  -3.77612  -0.00002  -2.59574
   1   1.82538   0.00001   3.14687
   1  -0.35482  -0.00002   4.60125
   1   1.79788   0.00001  -3.16616
   1   4.13530  -0.00005  -1.99510
 read in order, maxerr=  8.89 for atom  19
 loop 4 0
 mod cartes coords mol 2
   6   0.64555  -0.00000   2.75174
   6   2.02117   0.00001   2.86043
  16   2.85120  -0.00001   1.35016
   6   1.31365   0.00000   0.49450
   6   0.21046   0.00000   1.41303
   6  -1.10865   0.00000   0.87304
   6  -1.34575   0.00000  -0.51014
   6  -2.74133  -0.00000  -0.82269
   6  -3.52331   0.00001   0.29648
  16  -2.59847  -0.00000   1.75747
   6  -0.22457   0.00000  -1.38185
   6   1.12926   0.00000  -0.88072
   6   2.09543  -0.00001  -1.94861
   6   1.51762   0.00003  -3.16671
  16  -0.24880  -0.00001  -3.09957
   1  -0.00722  -0.00000   3.61394
   1   2.59574   0.00002   3.77612
   1  -3.14687  -0.00001  -1.82538
   1  -4.60125   0.00002   0.35482
   1   3.16616  -0.00001  -1.79788
   1   1.99510   0.00005  -4.13530
 read in order, maxerr=  6.74 for atom  19
 loop 4 1
 mod cartes coords mol 2
   6   0.64555   0.00000   2.75174
   6   2.02117  -0.00001   2.86043
  16   2.85120   0.00001   1.35016
   6   1.31365  -0.00000   0.49450
   6   0.21046  -0.00000   1.41303
   6  -1.10865  -0.00000   0.87304
   6  -1.34575  -0.00000  -0.51014
   6  -2.74133   0.00000  -0.82269
   6  -3.52331  -0.00001   0.29648
  16  -2.59847   0.00000   1.75747
   6  -0.22457  -0.00000  -1.38185
   6   1.12926  -0.00000  -0.88072
   6   2.09543   0.00001  -1.94861
   6   1.51762  -0.00003  -3.16671
  16  -0.24880   0.00001  -3.09957
   1  -0.00722   0.00000   3.61394
   1   2.59574  -0.00002   3.77612
   1  -3.14687   0.00001  -1.82538
   1  -4.60125  -0.00002   0.35482
   1   3.16616   0.00001  -1.79788
   1   1.99510  -0.00005  -4.13530
 read in order, maxerr=  6.74 for atom  19
 loop 4 2
 mod cartes coords mol 2
   6   0.64555  -0.00000  -2.75174
   6   2.02117   0.00001  -2.86043
  16   2.85120  -0.00001  -1.35016
   6   1.31365   0.00000  -0.49450
   6   0.21046   0.00000  -1.41303
   6  -1.10865   0.00000  -0.87304
   6  -1.34575   0.00000   0.51014
   6  -2.74133  -0.00000   0.82269
   6  -3.52331   0.00001  -0.29648
  16  -2.59847  -0.00000  -1.75747
   6  -0.22457   0.00000   1.38185
   6   1.12926   0.00000   0.88072
   6   2.09543  -0.00001   1.94861
   6   1.51762   0.00003   3.16671
  16  -0.24880  -0.00001   3.09957
   1  -0.00722  -0.00000  -3.61394
   1   2.59574   0.00002  -3.77612
   1  -3.14687  -0.00001   1.82538
   1  -4.60125   0.00002  -0.35482
   1   3.16616  -0.00001   1.79788
   1   1.99510   0.00005   4.13530
 read in order, maxerr=  8.53 for atom  17
 loop 4 3
 mod cartes coords mol 2
   6   0.64555   0.00000  -2.75174
   6   2.02117  -0.00001  -2.86043
  16   2.85120   0.00001  -1.35016
   6   1.31365  -0.00000  -0.49450
   6   0.21046  -0.00000  -1.41303
   6  -1.10865  -0.00000  -0.87304
   6  -1.34575  -0.00000   0.51014
   6  -2.74133   0.00000   0.82269
   6  -3.52331  -0.00001  -0.29648
  16  -2.59847   0.00000  -1.75747
   6  -0.22457  -0.00000   1.38185
   6   1.12926  -0.00000   0.88072
   6   2.09543   0.00001   1.94861
   6   1.51762  -0.00003   3.16671
  16  -0.24880   0.00001   3.09957
   1  -0.00722   0.00000  -3.61394
   1   2.59574  -0.00002  -3.77612
   1  -3.14687   0.00001   1.82538
   1  -4.60125  -0.00002  -0.35482
   1   3.16616   0.00001   1.79788
   1   1.99510  -0.00005   4.13530
 read in order, maxerr=  8.53 for atom  17
 loop 4 4
 mod cartes coords mol 2
   6  -0.64555  -0.00000   2.75174
   6  -2.02117   0.00001   2.86043
  16  -2.85120  -0.00001   1.35016
   6  -1.31365   0.00000   0.49450
   6  -0.21046   0.00000   1.41303
   6   1.10865   0.00000   0.87304
   6   1.34575   0.00000  -0.51014
   6   2.74133  -0.00000  -0.82269
   6   3.52331   0.00001   0.29648
  16   2.59847  -0.00000   1.75747
   6   0.22457   0.00000  -1.38185
   6  -1.12926   0.00000  -0.88072
   6  -2.09543  -0.00001  -1.94861
   6  -1.51762   0.00003  -3.16671
  16   0.24880  -0.00001  -3.09957
   1   0.00722  -0.00000   3.61394
   1  -2.59574   0.00002   3.77612
   1   3.14687  -0.00001  -1.82538
   1   4.60125   0.00002   0.35482
   1  -3.16616  -0.00001  -1.79788
   1  -1.99510   0.00005  -4.13530
 read in order, maxerr=  6.74 for atom  19
 loop 4 5
 mod cartes coords mol 2
   6  -0.64555   0.00000   2.75174
   6  -2.02117  -0.00001   2.86043
  16  -2.85120   0.00001   1.35016
   6  -1.31365  -0.00000   0.49450
   6  -0.21046  -0.00000   1.41303
   6   1.10865  -0.00000   0.87304
   6   1.34575  -0.00000  -0.51014
   6   2.74133   0.00000  -0.82269
   6   3.52331  -0.00001   0.29648
  16   2.59847   0.00000   1.75747
   6   0.22457  -0.00000  -1.38185
   6  -1.12926  -0.00000  -0.88072
   6  -2.09543   0.00001  -1.94861
   6  -1.51762  -0.00003  -3.16671
  16   0.24880   0.00001  -3.09957
   1   0.00722   0.00000   3.61394
   1  -2.59574  -0.00002   3.77612
   1   3.14687   0.00001  -1.82538
   1   4.60125  -0.00002   0.35482
   1  -3.16616   0.00001  -1.79788
   1  -1.99510  -0.00005  -4.13530
 read in order, maxerr=  6.74 for atom  19
 loop 4 6
 mod cartes coords mol 2
   6  -0.64555  -0.00000  -2.75174
   6  -2.02117   0.00001  -2.86043
  16  -2.85120  -0.00001  -1.35016
   6  -1.31365   0.00000  -0.49450
   6  -0.21046   0.00000  -1.41303
   6   1.10865   0.00000  -0.87304
   6   1.34575   0.00000   0.51014
   6   2.74133  -0.00000   0.82269
   6   3.52331   0.00001  -0.29648
  16   2.59847  -0.00000  -1.75747
   6   0.22457   0.00000   1.38185
   6  -1.12926   0.00000   0.88072
   6  -2.09543  -0.00001   1.94861
   6  -1.51762   0.00003   3.16671
  16   0.24880  -0.00001   3.09957
   1   0.00722  -0.00000  -3.61394
   1  -2.59574   0.00002  -3.77612
   1   3.14687  -0.00001   1.82538
   1   4.60125   0.00002  -0.35482
   1  -3.16616  -0.00001   1.79788
   1  -1.99510   0.00005   4.13530
 read in order, maxerr=  8.53 for atom  17
 loop 4 7
 mod cartes coords mol 2
   6  -0.64555   0.00000  -2.75174
   6  -2.02117  -0.00001  -2.86043
  16  -2.85120   0.00001  -1.35016
   6  -1.31365  -0.00000  -0.49450
   6  -0.21046  -0.00000  -1.41303
   6   1.10865  -0.00000  -0.87304
   6   1.34575  -0.00000   0.51014
   6   2.74133   0.00000   0.82269
   6   3.52331  -0.00001  -0.29648
  16   2.59847   0.00000  -1.75747
   6   0.22457  -0.00000   1.38185
   6  -1.12926  -0.00000   0.88072
   6  -2.09543   0.00001   1.94861
   6  -1.51762  -0.00003   3.16671
  16   0.24880   0.00001   3.09957
   1   0.00722   0.00000  -3.61394
   1  -2.59574  -0.00002  -3.77612
   1   3.14687   0.00001   1.82538
   1   4.60125  -0.00002  -0.35482
   1  -3.16616   0.00001   1.79788
   1  -1.99510  -0.00005   4.13530
 read in order, maxerr=  8.53 for atom  17
 loop 5 0
 mod cartes coords mol 2
   6   2.75174   0.64555  -0.00000
   6   2.86043   2.02117   0.00001
  16   1.35016   2.85120  -0.00001
   6   0.49450   1.31365   0.00000
   6   1.41303   0.21046   0.00000
   6   0.87304  -1.10865   0.00000
   6  -0.51014  -1.34575   0.00000
   6  -0.82269  -2.74133  -0.00000
   6   0.29648  -3.52331   0.00001
  16   1.75747  -2.59847  -0.00000
   6  -1.38185  -0.22457   0.00000
   6  -0.88072   1.12926   0.00000
   6  -1.94861   2.09543  -0.00001
   6  -3.16671   1.51762   0.00003
  16  -3.09957  -0.24880  -0.00001
   1   3.61394  -0.00722  -0.00000
   1   3.77612   2.59574   0.00002
   1  -1.82538  -3.14687  -0.00001
   1   0.35482  -4.60125   0.00002
   1  -1.79788   3.16616  -0.00001
   1  -4.13530   1.99510   0.00005
 read in order, maxerr=  8.03 for atom  19
 loop 5 1
 mod cartes coords mol 2
   6   2.75174   0.64555   0.00000
   6   2.86043   2.02117  -0.00001
  16   1.35016   2.85120   0.00001
   6   0.49450   1.31365  -0.00000
   6   1.41303   0.21046  -0.00000
   6   0.87304  -1.10865  -0.00000
   6  -0.51014  -1.34575  -0.00000
   6  -0.82269  -2.74133   0.00000
   6   0.29648  -3.52331  -0.00001
  16   1.75747  -2.59847   0.00000
   6  -1.38185  -0.22457  -0.00000
   6  -0.88072   1.12926  -0.00000
   6  -1.94861   2.09543   0.00001
   6  -3.16671   1.51762  -0.00003
  16  -3.09957  -0.24880   0.00001
   1   3.61394  -0.00722   0.00000
   1   3.77612   2.59574  -0.00002
   1  -1.82538  -3.14687   0.00001
   1   0.35482  -4.60125  -0.00002
   1  -1.79788   3.16616   0.00001
   1  -4.13530   1.99510  -0.00005
 read in order, maxerr=  8.03 for atom  19
 loop 5 2
 mod cartes coords mol 2
   6  -2.75174   0.64555  -0.00000
   6  -2.86043   2.02117   0.00001
  16  -1.35016   2.85120  -0.00001
   6  -0.49450   1.31365   0.00000
   6  -1.41303   0.21046   0.00000
   6  -0.87304  -1.10865   0.00000
   6   0.51014  -1.34575   0.00000
   6   0.82269  -2.74133  -0.00000
   6  -0.29648  -3.52331   0.00001
  16  -1.75747  -2.59847  -0.00000
   6   1.38185  -0.22457   0.00000
   6   0.88072   1.12926   0.00000
   6   1.94861   2.09543  -0.00001
   6   3.16671   1.51762   0.00003
  16   3.09957  -0.24880  -0.00001
   1  -3.61394  -0.00722  -0.00000
   1  -3.77612   2.59574   0.00002
   1   1.82538  -3.14687  -0.00001
   1  -0.35482  -4.60125   0.00002
   1   1.79788   3.16616  -0.00001
   1   4.13530   1.99510   0.00005
 read in order, maxerr=  8.03 for atom  19
 loop 5 3
 mod cartes coords mol 2
   6  -2.75174   0.64555   0.00000
   6  -2.86043   2.02117  -0.00001
  16  -1.35016   2.85120   0.00001
   6  -0.49450   1.31365  -0.00000
   6  -1.41303   0.21046  -0.00000
   6  -0.87304  -1.10865  -0.00000
   6   0.51014  -1.34575  -0.00000
   6   0.82269  -2.74133   0.00000
   6  -0.29648  -3.52331  -0.00001
  16  -1.75747  -2.59847   0.00000
   6   1.38185  -0.22457  -0.00000
   6   0.88072   1.12926  -0.00000
   6   1.94861   2.09543   0.00001
   6   3.16671   1.51762  -0.00003
  16   3.09957  -0.24880   0.00001
   1  -3.61394  -0.00722   0.00000
   1  -3.77612   2.59574  -0.00002
   1   1.82538  -3.14687   0.00001
   1  -0.35482  -4.60125  -0.00002
   1   1.79788   3.16616   0.00001
   1   4.13530   1.99510  -0.00005
 read in order, maxerr=  8.03 for atom  19
 loop 5 4
 mod cartes coords mol 2
   6   2.75174  -0.64555  -0.00000
   6   2.86043  -2.02117   0.00001
  16   1.35016  -2.85120  -0.00001
   6   0.49450  -1.31365   0.00000
   6   1.41303  -0.21046   0.00000
   6   0.87304   1.10865   0.00000
   6  -0.51014   1.34575   0.00000
   6  -0.82269   2.74133  -0.00000
   6   0.29648   3.52331   0.00001
  16   1.75747   2.59847  -0.00000
   6  -1.38185   0.22457   0.00000
   6  -0.88072  -1.12926   0.00000
   6  -1.94861  -2.09543  -0.00001
   6  -3.16671  -1.51762   0.00003
  16  -3.09957   0.24880  -0.00001
   1   3.61394   0.00722  -0.00000
   1   3.77612  -2.59574   0.00002
   1  -1.82538   3.14687  -0.00001
   1   0.35482   4.60125   0.00002
   1  -1.79788  -3.16616  -0.00001
   1  -4.13530  -1.99510   0.00005
 read in order, maxerr=  7.34 for atom  17
 loop 5 5
 mod cartes coords mol 2
   6   2.75174  -0.64555   0.00000
   6   2.86043  -2.02117  -0.00001
  16   1.35016  -2.85120   0.00001
   6   0.49450  -1.31365  -0.00000
   6   1.41303  -0.21046  -0.00000
   6   0.87304   1.10865  -0.00000
   6  -0.51014   1.34575  -0.00000
   6  -0.82269   2.74133   0.00000
   6   0.29648   3.52331  -0.00001
  16   1.75747   2.59847   0.00000
   6  -1.38185   0.22457  -0.00000
   6  -0.88072  -1.12926  -0.00000
   6  -1.94861  -2.09543   0.00001
   6  -3.16671  -1.51762  -0.00003
  16  -3.09957   0.24880   0.00001
   1   3.61394   0.00722   0.00000
   1   3.77612  -2.59574  -0.00002
   1  -1.82538   3.14687   0.00001
   1   0.35482   4.60125  -0.00002
   1  -1.79788  -3.16616   0.00001
   1  -4.13530  -1.99510  -0.00005
 read in order, maxerr=  7.34 for atom  17
 loop 5 6
 mod cartes coords mol 2
   6  -2.75174  -0.64555  -0.00000
   6  -2.86043  -2.02117   0.00001
  16  -1.35016  -2.85120  -0.00001
   6  -0.49450  -1.31365   0.00000
   6  -1.41303  -0.21046   0.00000
   6  -0.87304   1.10865   0.00000
   6   0.51014   1.34575   0.00000
   6   0.82269   2.74133  -0.00000
   6  -0.29648   3.52331   0.00001
  16  -1.75747   2.59847  -0.00000
   6   1.38185   0.22457   0.00000
   6   0.88072  -1.12926   0.00000
   6   1.94861  -2.09543  -0.00001
   6   3.16671  -1.51762   0.00003
  16   3.09957   0.24880  -0.00001
   1  -3.61394   0.00722  -0.00000
   1  -3.77612  -2.59574   0.00002
   1   1.82538   3.14687  -0.00001
   1  -0.35482   4.60125   0.00002
   1   1.79788  -3.16616  -0.00001
   1   4.13530  -1.99510   0.00005
 read in order, maxerr=  7.34 for atom  17
 loop 5 7
 mod cartes coords mol 2
   6  -2.75174  -0.64555   0.00000
   6  -2.86043  -2.02117  -0.00001
  16  -1.35016  -2.85120   0.00001
   6  -0.49450  -1.31365  -0.00000
   6  -1.41303  -0.21046  -0.00000
   6  -0.87304   1.10865  -0.00000
   6   0.51014   1.34575  -0.00000
   6   0.82269   2.74133   0.00000
   6  -0.29648   3.52331  -0.00001
  16  -1.75747   2.59847   0.00000
   6   1.38185   0.22457  -0.00000
   6   0.88072  -1.12926  -0.00000
   6   1.94861  -2.09543   0.00001
   6   3.16671  -1.51762  -0.00003
  16   3.09957   0.24880   0.00001
   1  -3.61394   0.00722   0.00000
   1  -3.77612  -2.59574  -0.00002
   1   1.82538   3.14687   0.00001
   1  -0.35482   4.60125  -0.00002
   1   1.79788  -3.16616   0.00001
   1   4.13530  -1.99510  -0.00005
 read in order, maxerr=  7.34 for atom  17
 loop 6 0
 mod cartes coords mol 2
   6   0.64555   2.75174  -0.00000
   6   2.02117   2.86043   0.00001
  16   2.85120   1.35016  -0.00001
   6   1.31365   0.49450   0.00000
   6   0.21046   1.41303   0.00000
   6  -1.10865   0.87304   0.00000
   6  -1.34575  -0.51014   0.00000
   6  -2.74133  -0.82269  -0.00000
   6  -3.52331   0.29648   0.00001
  16  -2.59847   1.75747  -0.00000
   6  -0.22457  -1.38185   0.00000
   6   1.12926  -0.88072   0.00000
   6   2.09543  -1.94861  -0.00001
   6   1.51762  -3.16671   0.00003
  16  -0.24880  -3.09957  -0.00001
   1  -0.00722   3.61394  -0.00000
   1   2.59574   3.77612   0.00002
   1  -3.14687  -1.82538  -0.00001
   1  -4.60125   0.35482   0.00002
   1   3.16616  -1.79788  -0.00001
   1   1.99510  -4.13530   0.00005
 read in order, maxerr=  6.40 for atom  19
 loop 6 1
 mod cartes coords mol 2
   6   0.64555   2.75174   0.00000
   6   2.02117   2.86043  -0.00001
  16   2.85120   1.35016   0.00001
   6   1.31365   0.49450  -0.00000
   6   0.21046   1.41303  -0.00000
   6  -1.10865   0.87304  -0.00000
   6  -1.34575  -0.51014  -0.00000
   6  -2.74133  -0.82269   0.00000
   6  -3.52331   0.29648  -0.00001
  16  -2.59847   1.75747   0.00000
   6  -0.22457  -1.38185  -0.00000
   6   1.12926  -0.88072  -0.00000
   6   2.09543  -1.94861   0.00001
   6   1.51762  -3.16671  -0.00003
  16  -0.24880  -3.09957   0.00001
   1  -0.00722   3.61394   0.00000
   1   2.59574   3.77612  -0.00002
   1  -3.14687  -1.82538   0.00001
   1  -4.60125   0.35482  -0.00002
   1   3.16616  -1.79788   0.00001
   1   1.99510  -4.13530  -0.00005
 read in order, maxerr=  6.40 for atom  19
 loop 6 2
 mod cartes coords mol 2
   6   0.64555  -2.75174  -0.00000
   6   2.02117  -2.86043   0.00001
  16   2.85120  -1.35016  -0.00001
   6   1.31365  -0.49450   0.00000
   6   0.21046  -1.41303   0.00000
   6  -1.10865  -0.87304   0.00000
   6  -1.34575   0.51014   0.00000
   6  -2.74133   0.82269  -0.00000
   6  -3.52331  -0.29648   0.00001
  16  -2.59847  -1.75747  -0.00000
   6  -0.22457   1.38185   0.00000
   6   1.12926   0.88072   0.00000
   6   2.09543   1.94861  -0.00001
   6   1.51762   3.16671   0.00003
  16  -0.24880   3.09957  -0.00001
   1  -0.00722  -3.61394  -0.00000
   1   2.59574  -3.77612   0.00002
   1  -3.14687   1.82538  -0.00001
   1  -4.60125  -0.35482   0.00002
   1   3.16616   1.79788  -0.00001
   1   1.99510   4.13530   0.00005
 read in order, maxerr=  8.98 for atom  21
 loop 6 3
 mod cartes coords mol 2
   6   0.64555  -2.75174   0.00000
   6   2.02117  -2.86043  -0.00001
  16   2.85120  -1.35016   0.00001
   6   1.31365  -0.49450  -0.00000
   6   0.21046  -1.41303  -0.00000
   6  -1.10865  -0.87304  -0.00000
   6  -1.34575   0.51014  -0.00000
   6  -2.74133   0.82269   0.00000
   6  -3.52331  -0.29648  -0.00001
  16  -2.59847  -1.75747   0.00000
   6  -0.22457   1.38185  -0.00000
   6   1.12926   0.88072  -0.00000
   6   2.09543   1.94861   0.00001
   6   1.51762   3.16671  -0.00003
  16  -0.24880   3.09957   0.00001
   1  -0.00722  -3.61394   0.00000
   1   2.59574  -3.77612  -0.00002
   1  -3.14687   1.82538   0.00001
   1  -4.60125  -0.35482  -0.00002
   1   3.16616   1.79788   0.00001
   1   1.99510   4.13530  -0.00005
 read in order, maxerr=  8.98 for atom  21
 loop 6 4
 mod cartes coords mol 2
   6  -0.64555   2.75174  -0.00000
   6  -2.02117   2.86043   0.00001
  16  -2.85120   1.35016  -0.00001
   6  -1.31365   0.49450   0.00000
   6  -0.21046   1.41303   0.00000
   6   1.10865   0.87304   0.00000
   6   1.34575  -0.51014   0.00000
   6   2.74133  -0.82269  -0.00000
   6   3.52331   0.29648   0.00001
  16   2.59847   1.75747  -0.00000
   6   0.22457  -1.38185   0.00000
   6  -1.12926  -0.88072   0.00000
   6  -2.09543  -1.94861  -0.00001
   6  -1.51762  -3.16671   0.00003
  16   0.24880  -3.09957  -0.00001
   1   0.00722   3.61394  -0.00000
   1  -2.59574   3.77612   0.00002
   1   3.14687  -1.82538  -0.00001
   1   4.60125   0.35482   0.00002
   1  -3.16616  -1.79788  -0.00001
   1  -1.99510  -4.13530   0.00005
 read in order, maxerr=  6.40 for atom  19
 loop 6 5
 mod cartes coords mol 2
   6  -0.64555   2.75174   0.00000
   6  -2.02117   2.86043  -0.00001
  16  -2.85120   1.35016   0.00001
   6  -1.31365   0.49450  -0.00000
   6  -0.21046   1.41303  -0.00000
   6   1.10865   0.87304  -0.00000
   6   1.34575  -0.51014  -0.00000
   6   2.74133  -0.82269   0.00000
   6   3.52331   0.29648  -0.00001
  16   2.59847   1.75747   0.00000
   6   0.22457  -1.38185  -0.00000
   6  -1.12926  -0.88072  -0.00000
   6  -2.09543  -1.94861   0.00001
   6  -1.51762  -3.16671  -0.00003
  16   0.24880  -3.09957   0.00001
   1   0.00722   3.61394   0.00000
   1  -2.59574   3.77612  -0.00002
   1   3.14687  -1.82538   0.00001
   1   4.60125   0.35482  -0.00002
   1  -3.16616  -1.79788   0.00001
   1  -1.99510  -4.13530  -0.00005
 read in order, maxerr=  6.40 for atom  19
 loop 6 6
 mod cartes coords mol 2
   6  -0.64555  -2.75174  -0.00000
   6  -2.02117  -2.86043   0.00001
  16  -2.85120  -1.35016  -0.00001
   6  -1.31365  -0.49450   0.00000
   6  -0.21046  -1.41303   0.00000
   6   1.10865  -0.87304   0.00000
   6   1.34575   0.51014   0.00000
   6   2.74133   0.82269  -0.00000
   6   3.52331  -0.29648   0.00001
  16   2.59847  -1.75747  -0.00000
   6   0.22457   1.38185   0.00000
   6  -1.12926   0.88072   0.00000
   6  -2.09543   1.94861  -0.00001
   6  -1.51762   3.16671   0.00003
  16   0.24880   3.09957  -0.00001
   1   0.00722  -3.61394  -0.00000
   1  -2.59574  -3.77612   0.00002
   1   3.14687   1.82538  -0.00001
   1   4.60125  -0.35482   0.00002
   1  -3.16616   1.79788  -0.00001
   1  -1.99510   4.13530   0.00005
 read in order, maxerr=  8.98 for atom  21
 loop 6 7
 mod cartes coords mol 2
   6  -0.64555  -2.75174   0.00000
   6  -2.02117  -2.86043  -0.00001
  16  -2.85120  -1.35016   0.00001
   6  -1.31365  -0.49450  -0.00000
   6  -0.21046  -1.41303  -0.00000
   6   1.10865  -0.87304  -0.00000
   6   1.34575   0.51014  -0.00000
   6   2.74133   0.82269   0.00000
   6   3.52331  -0.29648  -0.00001
  16   2.59847  -1.75747   0.00000
   6   0.22457   1.38185  -0.00000
   6  -1.12926   0.88072  -0.00000
   6  -2.09543   1.94861   0.00001
   6  -1.51762   3.16671  -0.00003
  16   0.24880   3.09957   0.00001
   1   0.00722  -3.61394   0.00000
   1  -2.59574  -3.77612  -0.00002
   1   3.14687   1.82538   0.00001
   1   4.60125  -0.35482  -0.00002
   1  -3.16616   1.79788   0.00001
   1  -1.99510   4.13530  -0.00005
 read in order, maxerr=  8.98 for atom  21
 settling for map=           1  swap=           1  maxerr=
   2.12974427001169     
 loop 1 1
 mod cartes coords mol 2
   6   0.00000   2.75174   0.64555
   6  -0.00001   2.86043   2.02117
  16   0.00001   1.35016   2.85120
   6  -0.00000   0.49450   1.31365
   6  -0.00000   1.41303   0.21046
   6  -0.00000   0.87304  -1.10865
   6  -0.00000  -0.51014  -1.34575
   6   0.00000  -0.82269  -2.74133
   6  -0.00001   0.29648  -3.52331
  16   0.00000   1.75747  -2.59847
   6  -0.00000  -1.38185  -0.22457
   6  -0.00000  -0.88072   1.12926
   6   0.00001  -1.94861   2.09543
   6  -0.00003  -3.16671   1.51762
  16   0.00001  -3.09957  -0.24880
[...]
 nber times 1st assigned=           5           0
 nber times 1st assigned=           6           0
 nber times 1st assigned=           7           0
 nber times 1st assigned=           8           0
 nber times 1st assigned=           9           0
 nber times 1st assigned=          10           0
 nber times 1st assigned=          13           0
 nber times 1st assigned=          14           0
 nber times 1st assigned=          15           3
 nber times 1st assigned=          16           0
 nber times 1st assigned=          18           0
 nber times 1st assigned=          19           0
 nber times 1st assigned=          20           0
 nber times 1st assigned=          21           0
 nber times 1st assigned=          22           0
 nber times 1st assigned=          23           0
 nber times 1st assigned=          24           0
 nber times 1st assigned=          25           0
 nber times 1st assigned=          26           0
 nber times 1st assigned=          27           0
 nber times 1st assigned=          28           0
 nber times 1st assigned=          29           0
 nber times 1st assigned=          30           0
 nber times 1st assigned=          31           0
 nber times 1st assigned=          32           0
 nber times 1st assigned=          33           0
 nber times 1st assigned=          34           0
 nber times 1st assigned=          35           0
 nber times 1st assigned=          36           0
 nber times 1st assigned=          37           0
 nber times 1st assigned=          38           0
 nber times 1st assigned=          39           0
 nber times 1st assigned=          40           0
 nber times 1st assigned=          41           0
 nber times 1st assigned=          42           0
 nber times 1st assigned=          43           0
 nber times 1st assigned=          44           0
 nber times 1st assigned=          45           0
 nber times 1st assigned=          46           0
 nber times 1st assigned=          47           0
 nber times 1st assigned=          48           0
 nber times 1st assigned=          49           0
 nber times 1st assigned=          50           0
 nber times 1st assigned=          51           0
 nber times 1st assigned=          52           0
 nber times 1st assigned=          53           0
 nber times 1st assigned=          54           0
 nber times 1st assigned=          55           0
 nber times 1st assigned=          56           0
 nber times 1st assigned=          57           0
 nber times 1st assigned=          58           0
 nber times 1st assigned=          59           0
 nber times 1st assigned=          60           0
 nber times 1st assigned=          61           0
 nber times 1st assigned=          62           0
 nber times 1st assigned=          63           0
 Dushinsky matrix written to .out file
 modes represented=   57.2020044006743     

 Dushinsky matrix, ncs 1 in terms of ncs 2

   mode   freq    coeff     %      %tot     of    at

   7 A"     84. -0.8036    64.6   100.6   7 A"     91.
                 0.5888    34.7           8 A"    102.
   8 A"     84. -0.5907    34.9   101.3   7 A"     91.
                -0.8064    65.0           8 A"    102.
   9 A"    108. -0.9955    99.1   101.1   9 A"    121.
  10 A"    122.  0.9917    98.4   100.6  11 A"    158.
  11 A'    200.  0.4035    16.3   100.3  10 A'    155.
                -0.8335    69.5          12 A'    205.
                 0.3708    13.7          13 A'    237.
  12 A'    200.  0.5883    34.6   101.0  10 A'    155.
                 0.5490    30.1          12 A'    205.
                 0.5921    35.1          13 A'    237.
  13 A"    262.  0.8792    77.3   100.5  14 A"    308.
                 0.4579    21.0          15 A"    322.
  14 A"    262.  0.4598    21.1   101.3  14 A"    308.
                -0.8573    73.5          15 A"    322.
  15 A'    347.  0.4553    20.7   100.0  10 A'    155.
                -0.4839    23.4          13 A'    237.
                 0.6190    38.3          17 A'    385.
                -0.3495    12.2          22 A'    555.
  16 A'    347.  0.3755    14.1   101.9  10 A'    155.
                -0.4335    18.8          13 A'    237.
                -0.7254    52.6          17 A'    385.
  17 A'    361. -0.9588    91.9    99.9  16 A'    368.
  18 A"    393.  0.8528    72.7   100.9  19 A"    469.
                -0.3768    14.2          20 A"    481.
  19 A"    393.  0.7171    51.4   100.8  18 A"    456.
                -0.6652    44.2          20 A"    481.
  20 A"    420.  0.6242    39.0   100.4  18 A"    456.
                 0.4554    20.7          19 A"    469.
                 0.6242    39.0          20 A"    481.
  21 A'    523.  0.9936    98.7   100.7  21 A'    529.
  22 A"    563. -0.9397    88.3   100.3  23 A"    617.
  23 A"    563. -0.8762    76.8   100.3  24 A"    625.
  24 A"    600. -0.8432    71.1   100.2  25 A"    647.
                 0.3653    13.3          33 A"    777.
  25 A'    635.  0.5654    32.0   100.7  22 A'    555.
                 0.6021    36.3          28 A'    707.
  26 A'    635.  0.5284    27.9   100.3  26 A'    650.
                -0.7466    55.7          27 A'    660.
  27 A"    638. -0.8153    66.5    99.3  30 A"    750.
                 0.3930    15.4          31 A"    755.
  28 A"    638. -0.4607    21.2    98.6  30 A"    750.
                -0.5461    29.8          31 A"    755.
                -0.5783    33.4          33 A"    777.
  29 A'    642. -0.8141    66.3   101.0  26 A'    650.
                -0.5757    33.1          27 A'    660.
  30 A"    663.  0.4532    20.5    99.2  25 A"    647.
                -0.6015    36.2          31 A"    755.
                 0.5808    33.7          33 A"    777.
  31 A'    703.  0.4110    16.9   100.4  22 A'    555.
                -0.5629    31.7          28 A'    707.
                 0.4399    19.4          29 A'    746.
                -0.4815    23.2          32 A'    760.
  32 A'    703. -0.3834    14.7   100.6  22 A'    555.
                 0.3865    14.9          28 A'    707.
                 0.6783    46.0          29 A'    746.
  33 A'    730.  0.3301    10.9   100.2  28 A'    707.
                -0.5010    25.1          29 A'    746.
                -0.7681    59.0          32 A'    760.
  34 A'    840.  0.9230    85.2    99.9  35 A'    873.
  35 A'    840. -0.8301    68.9   100.3  34 A'    855.
                -0.3240    10.5          35 A'    873.
                 0.3973    15.8          36 A'    877.
  36 A"    844. -0.3284    10.8   100.7  37 A"    906.
                -0.8176    66.8          38 A"    910.
                -0.3888    15.1          39 A"    916.
  37 A"    844.  0.6616    43.8   101.3  37 A"    906.
                -0.6855    47.0          39 A"    916.
  38 A"    845. -0.6217    38.7   101.0  37 A"    906.
                 0.5077    25.8          38 A"    910.
                -0.5114    26.2          39 A"    916.
  39 A'    863.  0.4516    20.4   100.7  34 A'    855.
                 0.8876    78.8          36 A'    877.
  40 A'   1055. -0.5478    30.0   100.5  40 A'   1058.
                -0.3771    14.2          41 A'   1063.
                 0.7209    52.0          42 A'   1086.
  41 A'   1055.  0.8666    75.1   100.8  41 A'   1063.
                 0.3674    13.5          42 A'   1086.
  42 A'   1092. -0.6633    44.0    99.9  40 A'   1058.
                -0.4967    24.7          42 A'   1086.
                 0.4211    17.7          46 A'   1228.
  43 A'   1092.  0.4788    22.9    99.9  43 A'   1118.
                -0.8272    68.4          44 A'   1123.
  44 A'   1095. -0.6662    44.4   100.1  43 A'   1118.
                -0.4323    18.7          44 A'   1123.
                -0.5522    30.5          45 A'   1140.
  45 A'   1106. -0.5560    30.9   100.5  43 A'   1118.
                 0.7628    58.2          45 A'   1140.
  46 A'   1261.  0.9270    85.9   100.1  47 A'   1268.
  47 A'   1265. -0.7683    59.0   100.0  48 A'   1302.
                -0.3671    13.5          49 A'   1321.
  48 A'   1265.  0.3564    12.7    99.9  46 A'   1228.
                 0.7047    49.7          49 A'   1321.
  49 A'   1333. -0.5196    27.0   100.1  49 A'   1321.
                -0.6183    38.2          50 A'   1352.
                -0.4576    20.9          52 A'   1419.
  50 A'   1333.  0.3965    15.7   100.3  46 A'   1228.
                 0.4335    18.8          48 A'   1302.
                 0.3991    15.9          50 A'   1352.
                 0.4660    21.7          51 A'   1382.
                -0.3619    13.1          52 A'   1419.
  51 A'   1384.  0.4754    22.6   100.3  50 A'   1352.
                -0.7190    51.7          51 A'   1382.
                -0.3851    14.8          52 A'   1419.
  52 A'   1417.  0.7998    64.0   100.7  53 A'   1454.
                 0.3917    15.3          55 A'   1501.
  53 A'   1417. -0.4570    20.9   100.0  54 A'   1456.
                 0.7288    53.1          56 A'   1553.
  54 A'   1443. -0.3176    10.1   100.1  52 A'   1419.
                 0.6997    49.0          54 A'   1456.
                 0.5037    25.4          56 A'   1553.
  55 A'   1509. -0.3673    13.5   100.0  53 A'   1454.
                 0.3767    14.2          54 A'   1456.
                 0.7874    62.0          55 A'   1501.
  56 A'   1538. -0.3537    12.5   100.6  52 A'   1419.
                 0.7229    52.3          57 A'   1595.
  57 A'   1538. -0.3717    13.8   100.2  46 A'   1228.
                -0.3431    11.8          52 A'   1419.
                -0.6756    45.6          57 A'   1595.
  58 A'   3200.  0.7451    55.5   100.0  58 A'   3216.
                -0.3394    11.5          59 A'   3217.
                -0.5670    32.1          60 A'   3217.
  59 A'   3200.  0.5051    25.5   100.0  58 A'   3216.
                 0.8330    69.4          59 A'   3217.
  60 A'   3201.  0.4307    18.5   100.0  58 A'   3216.
                -0.3970    15.8          59 A'   3217.
                 0.7968    63.5          60 A'   3217.
  61 A'   3249.  0.6533    42.7   100.0  62 A'   3248.
                 0.7450    55.5          63 A'   3250.
  62 A'   3249.  0.7972    63.5   100.0  61 A'   3238.
                 0.4842    23.4          62 A'   3248.
                -0.3182    10.1          63 A'   3250.
  63 A'   3252. -0.5627    31.7   100.0  61 A'   3238.
                 0.5698    32.5          62 A'   3248.
                -0.5829    34.0          63 A'   3250.
 nber times 1st assigned=           1           0
 nber times 1st assigned=           2           0
 nber times 1st assigned=           3           0
 nber times 1st assigned=           4           0
 nber times 1st assigned=           5           0
 nber times 1st assigned=           6           0
 nber times 1st assigned=           7           0
 nber times 1st assigned=           8           0
 nber times 1st assigned=           9           0
 nber times 1st assigned=          10           0
 nber times 1st assigned=          11           0
 nber times 1st assigned=          12           0
 nber times 1st assigned=          13           0
 nber times 1st assigned=          14           0
 nber times 1st assigned=          15           0
 nber times 1st assigned=          16           0
 nber times 1st assigned=          17           0
 nber times 1st assigned=          18           0
 nber times 1st assigned=          19           0
 nber times 1st assigned=          20           0
 nber times 1st assigned=          21           0
 nber times 1st assigned=          22           0
 nber times 1st assigned=          23           0
 nber times 1st assigned=          24           0
 nber times 1st assigned=          25           0
 nber times 1st assigned=          26           0
 nber times 1st assigned=          27           0
 nber times 1st assigned=          28           0
 nber times 1st assigned=          29           0
 nber times 1st assigned=          30           0
 nber times 1st assigned=          31           0
 nber times 1st assigned=          32           0
 nber times 1st assigned=          33           0
 nber times 1st assigned=          34           0
 nber times 1st assigned=          35           0
 nber times 1st assigned=          36           0
 nber times 1st assigned=          37           0
 nber times 1st assigned=          38           0
 nber times 1st assigned=          39           0
 nber times 1st assigned=          40           0
 nber times 1st assigned=          41           0
 nber times 1st assigned=          42           0
 nber times 1st assigned=          43           0
 nber times 1st assigned=          44           0
 nber times 1st assigned=          45           0
 nber times 1st assigned=          46           0
 nber times 1st assigned=          47           0
 nber times 1st assigned=          48           0
 nber times 1st assigned=          49           0
 nber times 1st assigned=          50           0
 nber times 1st assigned=          51           0
 nber times 1st assigned=          52           0
 nber times 1st assigned=          53           0
 nber times 1st assigned=          54           0
 nber times 1st assigned=          55           0
 nber times 1st assigned=          56           0
 nber times 1st assigned=          57           0
 nber times 1st assigned=          58           0
 nber times 1st assigned=          59           0
 nber times 1st assigned=          60           0
 nber times 1st assigned=          61           0
 nber times 1st assigned=          62           0
 nber times 1st assigned=          63           0
 modes represented=   57.2020044006743     
 p1=
    0.   -0.   -0.    0.    0.    0.    0.   -0.   -0.   -0.   -6.    3.   -0.   -0.   -7.    7.  -10.    0.   -0.   -0.
    1.    0.    0.   -0.   -1.    3.   -0.    0.    2.    0.   -4.   -2.   -4.    1.    1.    0.    0.    0.   -2.   -0.
    0.   -0.    2.    0.    1.    1.   -1.    1.    1.   -1.    3.   -1.    0.    2.   -0.   -3.    2.   -0.    0.    0.
    0.    0.    0.
 p2=
   -0.    0.   -0.   -0.    0.   -0.    0.   -0.   -0.    1.    0.   -6.    1.    0.    0.   -6.   12.    0.    0.    0.
   -0.    0.    0.    0.   -0.    0.    4.   -0.    2.    0.    0.   -6.    0.    1.    0.    3.    0.   -0.    0.   -1.
   -1.    0.   -0.    1.   -0.    0.   -1.   -0.    0.   -0.    3.    2.   -1.   -0.    1.   -1.    3.   -0.    0.   -0.
    0.   -0.    0.

 Displacement: in terms of nc of 1 THEN of nc of 2

   1 A'  freq=    -0. Q=  0.000 lam=    -0.0 A'  freq=    -0. Q=  0.000 lam=    -0.0
   2 A"  freq=     0. Q= -0.000 lam=     0.0 A'  freq=    -0. Q= -0.000 lam=    -0.0
   3 A'  freq=     0. Q= -0.000 lam=     0.0 A"  freq=     0. Q= -0.000 lam=     0.0
   4 A'  freq=     0. Q=  0.000 lam=     0.0 A'  freq=     0. Q=  0.000 lam=     0.0
   5 A"  freq=     0. Q=  0.000 lam=     0.0 A"  freq=     0. Q=  0.000 lam=     0.0
   6 A"  freq=     0. Q=  0.000 lam=     0.0 A"  freq=     0. Q=  0.000 lam=     0.0
   7 A"  freq=    84. Q=  0.000 lam=     0.0 A"  freq=    91. Q=  0.000 lam=     0.0
   8 A"  freq=    84. Q= -0.000 lam=     0.0 A"  freq=   102. Q= -0.000 lam=     0.0
   9 A"  freq=   108. Q= -0.000 lam=     0.0 A"  freq=   121. Q= -0.000 lam=     0.0
  10 A"  freq=   122. Q= -0.000 lam=     0.0 A'  freq=   155. Q= -0.040 lam=     0.1
  11 A'  freq=   200. Q= -0.318 lam=    10.1 A"  freq=   158. Q= -0.000 lam=     0.0
  12 A'  freq=   200. Q=  0.172 lam=     3.0 A'  freq=   205. Q=  0.327 lam=    11.0
  13 A"  freq=   262. Q= -0.000 lam=     0.0 A'  freq=   237. Q= -0.036 lam=     0.2
  14 A"  freq=   262. Q= -0.000 lam=     0.0 A"  freq=   308. Q= -0.000 lam=     0.0
  15 A'  freq=   347. Q= -0.517 lam=    46.4 A"  freq=   322. Q= -0.000 lam=     0.0
  16 A'  freq=   347. Q=  0.558 lam=    53.9 A'  freq=   368. Q=  0.495 lam=    45.1
  17 A'  freq=   361. Q= -0.736 lam=    97.7 A'  freq=   385. Q= -0.979 lam=   184.5
  18 A"  freq=   393. Q=  0.000 lam=     0.0 A"  freq=   456. Q=  0.000 lam=     0.0
  19 A"  freq=   393. Q= -0.000 lam=     0.0 A"  freq=   469. Q= -0.000 lam=     0.0
  20 A"  freq=   420. Q= -0.000 lam=     0.0 A"  freq=   481. Q= -0.000 lam=     0.0
  21 A'  freq=   523. Q=  0.063 lam=     1.0 A'  freq=   529. Q=  0.041 lam=     0.4
  22 A"  freq=   563. Q=  0.000 lam=     0.0 A'  freq=   555. Q=  0.009 lam=     0.0
  23 A"  freq=   563. Q=  0.000 lam=     0.0 A"  freq=   617. Q=  0.000 lam=     0.0
  24 A"  freq=   600. Q= -0.000 lam=     0.0 A"  freq=   625. Q= -0.000 lam=     0.0
  25 A'  freq=   635. Q= -0.099 lam=     3.1 A"  freq=   647. Q= -0.000 lam=     0.0
  26 A'  freq=   635. Q=  0.339 lam=    36.5 A'  freq=   650. Q=  0.002 lam=     0.0
  27 A"  freq=   638. Q= -0.000 lam=     0.0 A'  freq=   660. Q= -0.376 lam=    46.7
  28 A"  freq=   638. Q=  0.000 lam=     0.0 A'  freq=   707. Q=  0.014 lam=     0.1
  29 A'  freq=   642. Q=  0.210 lam=    14.2 A'  freq=   746. Q=  0.216 lam=    17.4
  30 A"  freq=   663. Q=  0.000 lam=     0.0 A"  freq=   750. Q=  0.000 lam=     0.0
  31 A'  freq=   703. Q= -0.375 lam=    49.3 A"  freq=   755. Q= -0.000 lam=     0.0
  32 A'  freq=   703. Q= -0.235 lam=    19.4 A'  freq=   760. Q= -0.646 lam=   158.6
  33 A'  freq=   730. Q= -0.384 lam=    53.9 A"  freq=   777. Q= -0.000 lam=     0.0
  34 A'  freq=   840. Q=  0.070 lam=     2.1 A'  freq=   855. Q=  0.066 lam=     1.9
  35 A'  freq=   840. Q=  0.062 lam=     1.6 A'  freq=   873. Q=  0.015 lam=     0.1
  36 A"  freq=   844. Q=  0.000 lam=     0.0 A'  freq=   877. Q=  0.313 lam=    43.1
  37 A"  freq=   844. Q=  0.000 lam=     0.0 A"  freq=   906. Q=  0.000 lam=     0.0
  38 A"  freq=   845. Q=  0.000 lam=     0.0 A"  freq=   910. Q=  0.000 lam=     0.0
  39 A'  freq=   863. Q= -0.256 lam=    28.4 A"  freq=   916. Q= -0.000 lam=     0.0
  40 A'  freq=  1055. Q= -0.048 lam=     1.2 A'  freq=  1058. Q= -0.129 lam=     8.8
  41 A'  freq=  1055. Q=  0.062 lam=     2.0 A'  freq=  1063. Q=  0.072 lam=     2.8
  42 A'  freq=  1092. Q= -0.039 lam=     0.8 A'  freq=  1086. Q= -0.005 lam=     0.0
  43 A'  freq=  1092. Q=  0.225 lam=    27.6 A'  freq=  1118. Q=  0.032 lam=     0.6
  44 A'  freq=  1095. Q=  0.027 lam=     0.4 A'  freq=  1123. Q=  0.189 lam=    20.1
  45 A'  freq=  1106. Q=  0.118 lam=     7.6 A'  freq=  1140. Q=  0.044 lam=     1.1
  46 A'  freq=  1261. Q=  0.191 lam=    23.0 A'  freq=  1228. Q=  0.065 lam=     2.6
  47 A'  freq=  1265. Q= -0.139 lam=    12.3 A'  freq=  1268. Q= -0.140 lam=    12.4
  48 A'  freq=  1265. Q=  0.083 lam=     4.4 A'  freq=  1302. Q=  0.026 lam=     0.4
  49 A'  freq=  1333. Q=  0.155 lam=    16.1 A'  freq=  1321. Q=  0.030 lam=     0.6
  50 A'  freq=  1333. Q= -0.102 lam=     6.9 A'  freq=  1352. Q= -0.001 lam=     0.0
  51 A'  freq=  1384. Q=  0.388 lam=   104.3 A'  freq=  1382. Q=  0.434 lam=   130.1
  52 A'  freq=  1417. Q= -0.128 lam=    11.6 A'  freq=  1419. Q= -0.314 lam=    69.8
  53 A'  freq=  1417. Q=  0.031 lam=     0.7 A'  freq=  1454. Q=  0.115 lam=     9.7
  54 A'  freq=  1443. Q=  0.271 lam=    53.1 A'  freq=  1456. Q=  0.054 lam=     2.1
  55 A'  freq=  1509. Q= -0.072 lam=     3.9 A'  freq=  1501. Q= -0.095 lam=     6.7
  56 A'  freq=  1538. Q= -0.412 lam=   130.4 A'  freq=  1553. Q= -0.227 lam=    40.1
  57 A'  freq=  1538. Q=  0.272 lam=    56.8 A'  freq=  1595. Q=  0.528 lam=   222.4
  58 A'  freq=  3200. Q= -0.004 lam=     0.0 A'  freq=  3216. Q= -0.004 lam=     0.0
  59 A'  freq=  3200. Q=  0.002 lam=     0.0 A'  freq=  3217. Q=  0.007 lam=     0.1
  60 A'  freq=  3201. Q=  0.014 lam=     0.3 A'  freq=  3217. Q=  0.020 lam=     0.7
  61 A'  freq=  3249. Q=  0.004 lam=     0.0 A'  freq=  3238. Q=  0.028 lam=     1.3
  62 A'  freq=  3249. Q=  0.001 lam=     0.0 A'  freq=  3248. Q=  0.031 lam=     1.6
  63 A'  freq=  3252. Q=  0.043 lam=     3.0 A'  freq=  3250. Q=  0.019 lam=     0.6

 total reorg energy (cm**-1, kcal/mol)=      887.     1044.      2.54      2.98
 Nber of molecules processed=           2
