 Enter ifcurve (0=recti, 1=orth curvi, 2=apprx curvi, -1 = skip
 And atom ordering flag, 0= never changes, 1= use the first order thenceforth,
  2= deduce it (does read on fail), 3= always read it
 Reading file: 
 ./Benzene_Conj_5_C0S0.log                                                      
                                          
  Entering Gaussian System, Link 0=g16                                          
  
 Gaussian format, type: g94, g98, g03= F F F
  #P Geom=AllCheck Guess=TCheck SCRF=Check GenChk RB3LYP/6-311G(d,p) Fre    
 energy type= B3LYP   
 Original G94 input coords:
  6  6.163667 -1.409140  0.000000
  6  4.899767 -0.727864  0.000000
  6  3.693525 -1.407191  0.000000
  6  2.450616 -0.729028  0.000000
  6  1.230680 -1.408030  0.000000
  6  0.000000 -0.729599  0.000000
  6 -1.230680 -1.408030  0.000000
  6 -2.450616 -0.729028  0.000000
  6 -3.693525 -1.407191  0.000000
  6 -4.899767 -0.727864  0.000000
  6 -6.163667 -1.409140  0.000000
  6 -7.335169 -0.716572  0.000000
  6 -7.335169  0.716572  0.000000
  6 -6.163667  1.409140  0.000000
  6 -4.899767  0.727864  0.000000
  6 -3.693525  1.407191  0.000000
  6 -2.450616  0.729028  0.000000
  6 -1.230680  1.408030  0.000000
  6  0.000000  0.729599  0.000000
  6  1.230680  1.408030  0.000000
  6  2.450616  0.729028  0.000000
  6  3.693525  1.407191  0.000000
  6  4.899767  0.727864  0.000000
  6  6.163667  1.409140  0.000000
  6  7.335169  0.716572  0.000000
  6  7.335169 -0.716572  0.000000
  1  6.163802 -2.494321  0.000000
  1  3.694332 -2.492775  0.000000
  1  1.230970 -2.493533  0.000000
  1 -1.230970 -2.493533  0.000000
  1 -3.694332 -2.492775  0.000000
  1 -6.163802 -2.494321  0.000000
  1 -8.281293 -1.245651  0.000000
  1 -8.281293  1.245651  0.000000
  1 -6.163802  2.494321  0.000000
  1 -3.694332  2.492775  0.000000
  1 -1.230970  2.493533  0.000000
  1  1.230970  2.493533  0.000000
  1  3.694332  2.492775  0.000000
  1  6.163802  2.494321  0.000000
  1  8.281293  1.245651  0.000000
  1  8.281293 -1.245651  0.000000
 nber atoms=          42
 Original standard coords:
  6  0.000000  6.163667  1.409140
  6  0.000000  4.899767  0.727864
  6  0.000000  3.693525  1.407191
  6  0.000000  2.450616  0.729028
  6  0.000000  1.230680  1.408030
  6  0.000000  0.000000  0.729599
  6  0.000000 -1.230680  1.408030
  6  0.000000 -2.450616  0.729028
  6  0.000000 -3.693525  1.407191
  6  0.000000 -4.899767  0.727864
  6  0.000000 -6.163667  1.409140
  6  0.000000 -7.335169  0.716572
  6  0.000000 -7.335169 -0.716572
  6  0.000000 -6.163667 -1.409140
  6  0.000000 -4.899767 -0.727864
  6  0.000000 -3.693525 -1.407191
  6  0.000000 -2.450616 -0.729028
  6  0.000000 -1.230680 -1.408030
  6  0.000000  0.000000 -0.729599
  6  0.000000  1.230680 -1.408030
  6  0.000000  2.450616 -0.729028
  6  0.000000  3.693525 -1.407191
  6  0.000000  4.899767 -0.727864
  6  0.000000  6.163667 -1.409140
  6  0.000000  7.335169 -0.716572
  6  0.000000  7.335169  0.716572
  1  0.000000  6.163802  2.494321
  1  0.000000  3.694332  2.492775
  1  0.000000  1.230970  2.493533
  1  0.000000 -1.230970  2.493533
  1  0.000000 -3.694332  2.492775
  1  0.000000 -6.163802  2.494321
  1  0.000000 -8.281293  1.245651
  1  0.000000 -8.281293 -1.245651
  1  0.000000 -6.163802 -2.494321
  1  0.000000 -3.694332 -2.492775
  1  0.000000 -1.230970 -2.493533
  1  0.000000  1.230970 -2.493533
  1  0.000000  3.694332 -2.492775
  1  0.000000  6.163802 -2.494321
  1  0.000000  8.281293 -1.245651
  1  0.000000  8.281293  1.245651
  SCF Done:  E(RB3LYP) =  -1000.65540186     A.U. after    1 cycles             
  
          23          40 "  -1000.65540186"
After scan for Atom:   Atom  AN      X      Y      Z        X      Y      Z        X      Y      Z   
After scan for Atom:   Atom  AN      X      Y      Z        X      Y      Z        X      Y      Z   
After scan for Atom:   Atom  AN      X      Y      Z        X      Y      Z        X      Y      Z   
After scan for Atom:   Atom  AN      X      Y      Z        X      Y      Z        X      Y      Z   
After scan for Atom:   Atom  AN      X      Y      Z        X      Y      Z        X      Y      Z   
After scan for Atom:   Atom  AN      X      Y      Z        X      Y      Z        X      Y      Z   
After scan for Atom:   Atom  AN      X      Y      Z        X      Y      Z        X      Y      Z   
After scan for Atom:   Atom  AN      X      Y      Z        X      Y      Z        X      Y      Z   
After scan for Atom:   Atom  AN      X      Y      Z        X      Y      Z        X      Y      Z   
After scan for Atom:   Atom  AN      X      Y      Z        X      Y      Z        X      Y      Z   
After scan for Atom:   Atom  AN      X      Y      Z        X      Y      Z        X      Y      Z   
After scan for Atom:   Atom  AN      X      Y      Z        X      Y      Z        X      Y      Z   
After scan for Atom:   Atom  AN      X      Y      Z        X      Y      Z        X      Y      Z   
After scan for Atom:   Atom  AN      X      Y      Z        X      Y      Z        X      Y      Z   
After scan for Atom:   Atom  AN      X      Y      Z        X      Y      Z        X      Y      Z   
After scan for Atom:   Atom  AN      X      Y      Z        X      Y      Z        X      Y      Z   
After scan for Atom:   Atom  AN      X      Y      Z        X      Y      Z        X      Y      Z   
After scan for Atom:   Atom  AN      X      Y      Z        X      Y      Z        X      Y      Z   
After scan for Atom:   Atom  AN      X      Y      Z        X      Y      Z        X      Y      Z   
After scan for Atom:   Atom  AN      X      Y      Z        X      Y      Z        X      Y      Z   
After scan for Atom:   Atom  AN      X      Y      Z        X      Y      Z        X      Y      Z   
After scan for Atom:   Atom  AN      X      Y      Z        X      Y      Z        X      Y      Z   
After scan for Atom:   Atom  AN      X      Y      Z        X      Y      Z        X      Y      Z   
After scan for Atom:   Atom  AN      X      Y      Z        X      Y      Z        X      Y      Z   
After scan for Atom:   Atom  AN      X      Y      Z        X      Y      Z        X      Y      Z   
After scan for Atom:   Atom  AN      X      Y      Z        X      Y      Z        X      Y      Z   
After scan for Atom:   Atom  AN      X      Y      Z        X      Y      Z        X      Y      Z   
After scan for Atom:   Atom  AN      X      Y      Z        X      Y      Z        X      Y      Z   
After scan for Atom:   Atom  AN      X      Y      Z        X      Y      Z        X      Y      Z   
After scan for Atom:   Atom  AN      X      Y      Z        X      Y      Z        X      Y      Z   
After scan for Atom:   Atom  AN      X      Y      Z        X      Y      Z        X      Y      Z   
After scan for Atom:   Atom  AN      X      Y      Z        X      Y      Z        X      Y      Z   
After scan for Atom:   Atom  AN      X      Y      Z        X      Y      Z        X      Y      Z   
After scan for Atom:   Atom  AN      X      Y      Z        X      Y      Z        X      Y      Z   
After scan for Atom:   Atom  AN      X      Y      Z        X      Y      Z        X      Y      Z   
After scan for Atom:   Atom  AN      X      Y      Z        X      Y      Z        X      Y      Z   
After scan for Atom:   Atom  AN      X      Y      Z        X      Y      Z        X      Y      Z   
After scan for Atom:   Atom  AN      X      Y      Z        X      Y      Z        X      Y      Z   
After scan for Atom:   Atom  AN      X      Y      Z        X      Y      Z        X      Y      Z   
After scan for Atom:   Atom  AN      X      Y      Z        X      Y      Z        X      Y      Z   
 g94    frequencies=
     0.0    0.0    0.0    0.0    0.0    0.0   26.0   59.0   72.4   90.1
   122.0  140.4  190.1  193.4  223.6  224.8  276.5  296.3  308.1  369.5
   377.0  391.7  428.3  466.8  468.8  471.7  473.9  476.5  478.2  494.0
   529.6  545.6  562.5  579.0  630.9  642.8  647.9  672.0  702.9  739.0
   742.9  745.8  748.8  757.0  758.9  761.0  770.8  772.3  802.0  824.4
   831.1  839.3  843.9  846.2  863.4  866.4  887.0  899.0  901.0  905.7
   915.4  924.2  928.7  933.2  973.3  973.4  995.2  995.2 1014.5 1016.4
  1121.5 1149.5 1152.1 1183.4 1186.7 1197.6 1197.9 1205.2 1216.1 1228.1
  1261.2 1271.1 1293.8 1296.9 1305.2 1315.7 1327.3 1343.0 1351.1 1385.7
  1404.4 1418.2 1418.4 1420.6 1427.9 1434.4 1475.0 1476.2 1488.0 1530.2
  1546.6 1555.8 1575.4 1578.2 1580.7 1615.0 1629.0 1651.5 1671.2 1675.9
  3154.5 3155.1 3156.3 3156.4 3157.2 3157.6 3159.1 3159.2 3161.0 3161.0
  3162.3 3164.1 3175.8 3175.8 3188.3 3188.4
 g94    symmetries=
                                                B3     AU     B1     B1
      B2     B3     B3     AU     B1     AG     B2     B1     B3     AU
      B1     B3     B2     B3     B1     B3     B3     B1     B1     B3
      B2     AU     B1     AG     B2     AG     B2     B3     B2     AU
      B2     B1     B3     AG     B2     AG     AU     B2     B1     B1
      B2     AU     B2     B3     AU     B3     B2     AG     B1     AU
      B2     B3     B1     B3     B1     B3     AU     B2     B2     AG
      B2     B3     B1     AG     B2     AG     B3     B1     B3     B2
      B1     AG     B1     B3     B3     B1     B1     B2     B2     B3
      AG     AG     B2     B1     AG     B2     B3     AG     B2     AG
      AG     B2     B2     AG     B1     B3     B3     B1     B1     B3
      B3     B1     B2     B3     AG     B1     B3     B2     B1     AG
      B2     AG     B3     B1     B2     AG
 atomic masses:
 12.0000 12.0000 12.0000 12.0000 12.0000 12.0000 12.0000 12.0000 12.0000 12.0000
 12.0000 12.0000 12.0000 12.0000 12.0000 12.0000 12.0000 12.0000 12.0000 12.0000
 12.0000 12.0000 12.0000 12.0000 12.0000 12.0000  1.0078  1.0078  1.0078  1.0078
  1.0078  1.0078  1.0078  1.0078  1.0078  1.0078  1.0078  1.0078  1.0078  1.0078
  1.0078  1.0078
 looking for force constants in 
 ./Benzene_Conj_5_C0S0.fchk                                                     
  
 Cartesian Force Constants                  R   N=        8001                  
  
 n3=         126        8001
 g94-fc frequencies=
    -2.2   -2.1   -0.0   -0.0    0.0    5.5   26.0   59.0   72.4   90.1
   122.0  140.4  190.1  193.4  223.6  224.8  276.5  296.3  308.1  369.6
   377.0  391.7  428.3  466.8  468.9  471.7  473.9  476.5  478.3  494.0
   529.6  545.6  562.5  579.0  631.0  642.8  647.9  672.0  702.9  739.0
   742.9  745.8  748.8  757.0  758.9  761.1  770.8  772.3  802.1  824.4
   831.1  839.3  844.0  846.2  863.4  866.5  887.1  899.0  901.0  905.7
   915.5  924.3  928.7  933.3  973.3  973.4  995.2  995.2 1014.5 1016.4
  1121.5 1149.5 1152.1 1183.4 1186.8 1197.6 1197.9 1205.2 1216.1 1228.2
  1261.2 1271.1 1293.8 1296.9 1305.2 1315.8 1327.3 1343.0 1351.1 1385.7
  1404.4 1418.2 1418.5 1420.6 1427.9 1434.4 1475.0 1476.3 1488.1 1530.2
  1546.7 1555.9 1575.5 1578.2 1580.8 1615.0 1629.1 1651.6 1671.3 1676.0
  3154.6 3155.2 3156.4 3156.5 3157.3 3157.7 3159.1 3159.2 3161.1 3161.1
  3162.3 3164.2 3175.8 3175.9 3188.3 3188.5
 at 99999: n3=         126
 symm operator            1 :  T  nop=           1
 symm operator            2 :  T  nop=           2
 symm operator            3 :  T  nop=           3
 symm operator            4 :  T  nop=           4
 symm operator            5 :  T  nop=           5
 symm operator            6 :  T  nop=           6
 symm operator            7 :  T  nop=           7
 The point group of the molecule is D2H
 enforcing symm op           1  jsymt=          -1          -1           1
 enforcing symm op           2  jsymt=          -1           1          -1
 enforcing symm op           3  jsymt=           1          -1          -1
 enforcing symm op           4  jsymt=          -1          -1          -1
 enforcing symm op           5  jsymt=           1           1          -1
 enforcing symm op           6  jsymt=           1          -1           1
 enforcing symm op           7  jsymt=          -1           1           1
 cartesian coord symmetries:
 Ag :   21 Au :   10 B1g:   10 B1u:   21 B2g:   11 B2u:   21 B3g:   21 B3u:   11
 Symmetry rotation matrix:
   1.00000   0.00000   0.00000
   0.00000   1.00000   0.00000
   0.00000   0.00000   1.00000

 Projecting out zero-frequency components
 generating redundant internal coords
         300        3600          42
 search for int coords
   1 str   2   1   1.436
   2 str   3   2   1.384
   3 str   4   3   1.416
   4 str   5   4   1.396
   5 str   6   5   1.405
   6 str   7   6   1.405
   7 str   8   7   1.396
   8 str   9   8   1.416
   9 str  10   9   1.384
  10 str  11  10   1.436
  11 str  12  11   1.361
  12 str  13  12   1.433
  13 str  14  13   1.361
  14 str  15  10   1.456
  15 str  15  14   1.436
  16 str  16  15   1.384
  17 str  17   8   1.458
  18 str  17  16   1.416
  19 str  18  17   1.396
  20 str  19   6   1.459
  21 str  19  18   1.405
  22 str  20  19   1.405
  23 str  21   4   1.458
  24 str  21  20   1.396
  25 str  22  21   1.416
  26 str  23   2   1.456
  27 str  23  22   1.384
  28 str  24  23   1.436
  29 str  25  24   1.361
  30 str  26   1   1.361
  31 str  26  25   1.433
  32 str  27   1   1.085
  33 str  28   3   1.086
  34 str  29   5   1.086
  35 str  30   7   1.086
  36 str  31   9   1.086
  37 str  32  11   1.085
  38 str  33  12   1.084
  39 str  34  13   1.084
  40 str  35  14   1.085
  41 str  36  16   1.086
  42 str  37  18   1.086
  43 str  38  20   1.086
  44 str  39  22   1.086
  45 str  40  24   1.085
  46 str  41  25   1.084
  47 str  42  26   1.084
 nber stretches=          47
  48 ben   1   2   3
  49 prop tor   1   2   3   4
  50 prop tor   1   2   3  28
  51 ben   1   2  23
  52 prop tor   1   2  23  22
  53 prop tor   1   2  23  24
  54 ben   1  26  25
  55 ben   1  26  42
  56 ben   2   1  26
  57 prop tor   2   1  26  25
  58 prop tor   2   1  26  42
  59 ben   2   1  27
  60 ben   2   3   4
  61 prop tor   2   3   4   5
  62 prop tor   2   3   4  21
  63 ben   2   3  28
  64 ben   2  23  22
  65 ben   2  23  24
  66 prop tor   2  23  24  25
  67 prop tor   2  23  24  40
  68 ben   3   2  23
  69 prop tor   3   2  23  22
  70 prop tor   3   2  23  24
  71 ben   3   4   5
  72 prop tor   3   4   5   6
  73 prop tor   3   4   5  29
  74 ben   3   4  21
  75 prop tor   3   4  21  20
  76 prop tor   3   4  21  22
  77 ben   4   3  28
  78 ben   4   5   6
  79 prop tor   4   5   6   7
  80 prop tor   4   5   6  19
  81 ben   4   5  29
  82 ben   4  21  20
  83 ben   4  21  22
  84 prop tor   4  21  22  23
  85 prop tor   4  21  22  39
  86 ben   5   4  21
  87 prop tor   5   4  21  20
  88 prop tor   5   4  21  22
  89 ben   5   6   7
  90 prop tor   5   6   7   8
  91 prop tor   5   6   7  30
  92 ben   5   6  19
  93 prop tor   5   6  19  18
  94 prop tor   5   6  19  20
  95 ben   6   5  29
  96 ben   6   7   8
  97 prop tor   6   7   8   9
  98 prop tor   6   7   8  17
  99 ben   6   7  30
 100 ben   6  19  18
 101 ben   6  19  20
 102 prop tor   6  19  20  21
 103 prop tor   6  19  20  38
 104 ben   7   6  19
 105 prop tor   7   6  19  18
 106 prop tor   7   6  19  20
 107 ben   7   8   9
 108 prop tor   7   8   9  10
 109 prop tor   7   8   9  31
 110 ben   7   8  17
 111 prop tor   7   8  17  16
 112 prop tor   7   8  17  18
 113 ben   8   7  30
 114 ben   8   9  10
 115 prop tor   8   9  10  11
 116 prop tor   8   9  10  15
 117 ben   8   9  31
 118 ben   8  17  16
 119 ben   8  17  18
 120 prop tor   8  17  18  19
 121 prop tor   8  17  18  37
 122 ben   9   8  17
 123 prop tor   9   8  17  16
 124 prop tor   9   8  17  18
 125 ben   9  10  11
 126 prop tor   9  10  11  12
 127 prop tor   9  10  11  32
 128 ben   9  10  15
 129 prop tor   9  10  15  14
 130 prop tor   9  10  15  16
 131 ben  10   9  31
 132 ben  10  11  12
 133 prop tor  10  11  12  13
 134 prop tor  10  11  12  33
 135 ben  10  11  32
 136 ben  10  15  14
 137 ben  10  15  16
 138 prop tor  10  15  16  17
 139 prop tor  10  15  16  36
 140 ben  11  10  15
 141 prop tor  11  10  15  14
 142 prop tor  11  10  15  16
 143 ben  11  12  13
 144 prop tor  11  12  13  14
 145 prop tor  11  12  13  34
 146 ben  11  12  33
 147 ben  12  11  32
 148 ben  12  13  14
 149 prop tor  12  13  14  15
 150 prop tor  12  13  14  35
 151 ben  12  13  34
 152 ben  13  12  33
 153 ben  13  14  15
 154 prop tor  13  14  15  10
 155 prop tor  13  14  15  16
 156 ben  13  14  35
 157 ben  14  13  34
 158 ben  14  15  16
 159 prop tor  14  15  16  17
 160 prop tor  14  15  16  36
 161 prop tor  15  10  11  12
 162 prop tor  15  10  11  32
 163 ben  15  14  35
 164 ben  15  16  17
 165 prop tor  15  16  17   8
 166 prop tor  15  16  17  18
 167 ben  15  16  36
 168 ben  16  17  18
 169 prop tor  16  17  18  19
 170 prop tor  16  17  18  37
 171 prop tor  17   8   9  10
 172 prop tor  17   8   9  31
 173 ben  17  16  36
 174 ben  17  18  19
 175 prop tor  17  18  19   6
 176 prop tor  17  18  19  20
 177 ben  17  18  37
 178 ben  18  19  20
 179 prop tor  18  19  20  21
 180 prop tor  18  19  20  38
 181 prop tor  19   6   7   8
 182 prop tor  19   6   7  30
 183 ben  19  18  37
 184 ben  19  20  21
 185 prop tor  19  20  21   4
 186 prop tor  19  20  21  22
 187 ben  19  20  38
 188 ben  20  21  22
 189 prop tor  20  21  22  23
 190 prop tor  20  21  22  39
 191 prop tor  21   4   5   6
 192 prop tor  21   4   5  29
 193 ben  21  20  38
 194 ben  21  22  23
 195 prop tor  21  22  23   2
 196 prop tor  21  22  23  24
 197 ben  21  22  39
 198 ben  22  23  24
 199 prop tor  22  23  24  25
 200 prop tor  22  23  24  40
 201 prop tor  23   2   3   4
 202 prop tor  23   2   3  28
 203 ben  23  22  39
 204 ben  23  24  25
 205 prop tor  23  24  25  26
 206 prop tor  23  24  25  41
 207 ben  23  24  40
 208 ben  24  25  26
 209 prop tor  24  25  26   1
 210 prop tor  24  25  26  42
 211 ben  24  25  41
 212 ben  25  24  40
 213 ben  25  26  42
 214 prop tor  26   1   2   3
 215 prop tor  26   1   2  23
 216 ben  26   1  27
 217 ben  26  25  41
 218 prop tor  27   1   2   3
 219 prop tor  27   1   2  23
 220 prop tor  27   1  26  25
 221 prop tor  27   1  26  42
 222 prop tor  28   3   4   5
 223 prop tor  28   3   4  21
 224 prop tor  29   5   6   7
 225 prop tor  29   5   6  19
 226 prop tor  30   7   8   9
 227 prop tor  30   7   8  17
 228 prop tor  31   9  10  11
 229 prop tor  31   9  10  15
 230 prop tor  32  11  12  13
 231 prop tor  32  11  12  33
 232 prop tor  33  12  13  14
 233 prop tor  33  12  13  34
 234 prop tor  34  13  14  15
 235 prop tor  34  13  14  35
 236 prop tor  35  14  15  10
 237 prop tor  35  14  15  16
 238 prop tor  36  16  17   8
 239 prop tor  36  16  17  18
 240 prop tor  37  18  19   6
 241 prop tor  37  18  19  20
 242 prop tor  38  20  21   4
 243 prop tor  38  20  21  22
 244 prop tor  39  22  23   2
 245 prop tor  39  22  23  24
 246 prop tor  40  24  25  26
 247 prop tor  40  24  25  41
 248 prop tor  41  25  26   1
 249 prop tor  41  25  26  42
 nber bend=              78
 nber lin bend=           0
 nber prop tor=         124
 nber impr tor=           0
 nber tot redund int=         249
 Eigenvalues of G in red int coords
    Gval -0.00000000 -0.00000000 -0.00000000 -0.00000000 -0.00000000 -0.00000000 -0.00000000 -0.00000000
    Gval -0.00000000 -0.00000000 -0.00000000 -0.00000000 -0.00000000 -0.00000000 -0.00000000 -0.00000000
    Gval -0.00000000 -0.00000000 -0.00000000 -0.00000000 -0.00000000 -0.00000000 -0.00000000 -0.00000000
    Gval -0.00000000 -0.00000000 -0.00000000 -0.00000000 -0.00000000 -0.00000000 -0.00000000 -0.00000000
    Gval -0.00000000 -0.00000000 -0.00000000 -0.00000000 -0.00000000 -0.00000000 -0.00000000 -0.00000000
    Gval -0.00000000 -0.00000000 -0.00000000 -0.00000000 -0.00000000 -0.00000000 -0.00000000 -0.00000000
    Gval -0.00000000 -0.00000000 -0.00000000 -0.00000000 -0.00000000 -0.00000000 -0.00000000 -0.00000000
    Gval -0.00000000 -0.00000000 -0.00000000 -0.00000000 -0.00000000 -0.00000000 -0.00000000 -0.00000000
    Gval  0.00000000  0.00000000  0.00000000  0.00000000  0.00000000  0.00000000  0.00000000  0.00000000
    Gval  0.00000000  0.00000000  0.00000000  0.00000000  0.00000000  0.00000000  0.00000000  0.00000000
    Gval  0.00000000  0.00000000  0.00000000  0.00000000  0.00000000  0.00000000  0.00000000  0.00000000
    Gval  0.00000000  0.00000000  0.00000000  0.00000000  0.00000000  0.00000000  0.00000000  0.00000000
    Gval  0.00000000  0.00000000  0.00000000  0.00000000  0.00000000  0.00000000  0.00000000  0.00000000
    Gval  0.00000000  0.00000000  0.00000000  0.00000000  0.00000000  0.00000000  0.00000000  0.00000000
    Gval  0.00000000  0.00000000  0.00000000  0.00000000  0.00000000  0.00000000  0.00000000  0.00000000
    Gval  0.00000000  0.00000000  0.00000000  0.00000000  0.00000000  0.00000000  0.00000000  0.00000000
    Gval  0.00000000  0.00000106  0.00000296  0.00000313  0.00000596  0.00001147  0.00001716  0.00001990
    Gval  0.00002282  0.00002449  0.00002906  0.00003745  0.00003835  0.00004018  0.00004047  0.00004474
    Gval  0.00005145  0.00005262  0.00005812  0.00005935  0.00006477  0.00007355  0.00007366  0.00007956
    Gval  0.00007965  0.00008104  0.00008423  0.00008493  0.00009995  0.00010262  0.00010986  0.00012114
    Gval  0.00012366  0.00013494  0.00013828  0.00014092  0.00015645  0.00016889  0.00018085  0.00019564
    Gval  0.00019611  0.00020069  0.00024276  0.00026229  0.00028071  0.00031530  0.00032133  0.00032811
    Gval  0.00034487  0.00036469  0.00037568  0.00038235  0.00038386  0.00041005  0.00041310  0.00041434
    Gval  0.00041522  0.00041793  0.00044352  0.00047986  0.00052021  0.00059310  0.00059310  0.00059684
    Gval  0.00059684  0.00060801  0.00061040  0.00061625  0.00061813  0.00062465  0.00062662  0.00063413
    Gval  0.00064089  0.00064424  0.00065466  0.00065695  0.00065746  0.00071106  0.00075466  0.00075650
    Gval  0.00082287  0.00083017  0.00093319  0.00096984  0.00105057  0.00105059  0.00110622  0.00111176
    Gval  0.00111191  0.00111501  0.00111777  0.00112181  0.00112416  0.00112555  0.00112809  0.00113073
    Gval  0.00116207  0.00116207  0.00117010  0.00117010  0.00154320  0.00173823  0.00176971  0.00177000
    Gval  0.00187601  0.00196645  0.00202181  0.00256737  0.00257260  0.00274412  0.00280077  0.00293540
    Gval  0.00300641  0.00316837  0.00322163  0.00337477  0.00338063  0.00356945  0.00358022  0.00400109
    Gval  0.00400116
  1.063262312877117E-006  1.063262312877117E-006
  2.955359036540388E-006  1.063262312877117E-006
  3.126845234733005E-006  1.063262312877117E-006
  5.955479126720484E-006  1.063262312877117E-006
  1.147164631244905E-005  1.063262312877117E-006
  1.715689666584608E-005  1.063262312877117E-006
  1.989653560285235E-005  1.063262312877117E-006
  2.281704161486002E-005  1.063262312877117E-006
  2.449030302204720E-005  1.063262312877117E-006
  2.905755404996532E-005  1.063262312877117E-006
  3.745104158073653E-005  1.063262312877117E-006
  3.835332169165529E-005  1.063262312877117E-006
  4.018448099916092E-005  1.063262312877117E-006
  4.047420952927348E-005  1.063262312877117E-006
  4.474161314361997E-005  1.063262312877117E-006
  5.144702806348481E-005  1.063262312877117E-006
  5.262060472374015E-005  1.063262312877117E-006
  5.811503594232286E-005  1.063262312877117E-006
  5.934934578817731E-005  1.063262312877117E-006
  6.477053217805381E-005  1.063262312877117E-006
  7.354516946711904E-005  1.063262312877117E-006
  7.365725842508965E-005  1.063262312877117E-006
  7.956470472640066E-005  1.063262312877117E-006
  7.965250740868701E-005  1.063262312877117E-006
  8.104208344450172E-005  1.063262312877117E-006
  8.422810149000349E-005  1.063262312877117E-006
  8.493153317957675E-005  1.063262312877117E-006
  9.995243708669241E-005  1.063262312877117E-006
  1.026178328732168E-004  1.063262312877117E-006
  1.098584834215561E-004  1.063262312877117E-006
  1.211392427271300E-004  1.063262312877117E-006
  1.236642353427780E-004  1.063262312877117E-006
  1.349358734387615E-004  1.063262312877117E-006
  1.382777567622018E-004  1.063262312877117E-006
  1.409188945349415E-004  1.063262312877117E-006
  1.564452238395359E-004  1.063262312877117E-006
  1.688949605331784E-004  1.063262312877117E-006
  1.808508914769964E-004  1.063262312877117E-006
  1.956403220699173E-004  1.063262312877117E-006
  1.961126635686399E-004  1.063262312877117E-006
  2.006857527056157E-004  1.063262312877117E-006
  2.427613354017682E-004  1.063262312877117E-006
  2.622937088565794E-004  1.063262312877117E-006
  2.807098808793762E-004  1.063262312877117E-006
  3.153014996691771E-004  1.063262312877117E-006
  3.213302501549444E-004  1.063262312877117E-006
  3.281077418139642E-004  1.063262312877117E-006
  3.448704879990901E-004  1.063262312877117E-006
  3.646917017657963E-004  1.063262312877117E-006
  3.756782651101525E-004  1.063262312877117E-006
  3.823490114705296E-004  1.063262312877117E-006
  3.838561301579914E-004  1.063262312877117E-006
  4.100513403964859E-004  1.063262312877117E-006
  4.131008823719210E-004  1.063262312877117E-006
  4.143411992217102E-004  1.063262312877117E-006
  4.152223776451336E-004  1.063262312877117E-006
  4.179310348743236E-004  1.063262312877117E-006
  4.435218683275104E-004  1.063262312877117E-006
  4.798594957552615E-004  1.063262312877117E-006
  5.202139597436442E-004  1.063262312877117E-006
  5.930952604854968E-004  1.063262312877117E-006
  5.930957102160079E-004  1.063262312877117E-006
  5.968376936107447E-004  1.063262312877117E-006
  5.968394400611146E-004  1.063262312877117E-006
  6.080067712683641E-004  1.063262312877117E-006
  6.103981778360176E-004  1.063262312877117E-006
  6.162482278391445E-004  1.063262312877117E-006
  6.181336060492753E-004  1.063262312877117E-006
  6.246493837490768E-004  1.063262312877117E-006
  6.266172471505558E-004  1.063262312877117E-006
  6.341307152831901E-004  1.063262312877117E-006
  6.408942247911963E-004  1.063262312877117E-006
  6.442387018638761E-004  1.063262312877117E-006
  6.546636111597582E-004  1.063262312877117E-006
  6.569500057006876E-004  1.063262312877117E-006
  6.574555725143232E-004  1.063262312877117E-006
  7.110615427182280E-004  1.063262312877117E-006
  7.546568506762325E-004  1.063262312877117E-006
  7.565028593162127E-004  1.063262312877117E-006
  8.228693834870181E-004  1.063262312877117E-006
  8.301701561131366E-004  1.063262312877117E-006
  9.331926345530665E-004  1.063262312877117E-006
  9.698352481343595E-004  1.063262312877117E-006
  1.050568425544472E-003  1.063262312877117E-006
  1.050587931770579E-003  1.063262312877117E-006
  1.106220194930163E-003  1.063262312877117E-006
  1.111762826896388E-003  1.063262312877117E-006
  1.111912994209476E-003  1.063262312877117E-006
  1.115006204938523E-003  1.063262312877117E-006
  1.117769275428317E-003  1.063262312877117E-006
  1.121807115010600E-003  1.063262312877117E-006
  1.124158275029500E-003  1.063262312877117E-006
  1.125551852899552E-003  1.063262312877117E-006
  1.128086945826935E-003  1.063262312877117E-006
  1.130726948180290E-003  1.063262312877117E-006
  1.162070306558790E-003  1.063262312877117E-006
  1.162070991069236E-003  1.063262312877117E-006
  1.170095726782087E-003  1.063262312877117E-006
  1.170095726793775E-003  1.063262312877117E-006
  1.543196959785053E-003  1.063262312877117E-006
  1.738232354391400E-003  1.063262312877117E-006
  1.769713891370678E-003  1.063262312877117E-006
  1.769999721653846E-003  1.063262312877117E-006
  1.876007338332891E-003  1.063262312877117E-006
  1.966451474859048E-003  1.063262312877117E-006
  2.021807502102178E-003  1.063262312877117E-006
  2.567365746961622E-003  1.063262312877117E-006
  2.572602995724361E-003  1.063262312877117E-006
  2.744124828381007E-003  1.063262312877117E-006
  2.800765183377200E-003  1.063262312877117E-006
  2.935404138466606E-003  1.063262312877117E-006
  3.006411828895300E-003  1.063262312877117E-006
  3.168370056208765E-003  1.063262312877117E-006
  3.221626062217825E-003  1.063262312877117E-006
  3.374765193432531E-003  1.063262312877117E-006
  3.380632702421795E-003  1.063262312877117E-006
  3.569453954297309E-003  1.063262312877117E-006
  3.580220764874945E-003  1.063262312877117E-006
  4.001093162232613E-003  1.063262312877117E-006
  4.001163744203357E-003  1.063262312877117E-006
 cut=1d-8, nber non-redundant internal coords=         120
 Check on Eigenvals of non-red overlap matrix:
  0.00000106  0.00000296  0.00000313  0.00000596  0.00001147  0.00001716  0.00001990  0.00002282
  0.00002449  0.00002906  0.00003745  0.00003835  0.00004018  0.00004047  0.00004474  0.00005145
  0.00005262  0.00005812  0.00005935  0.00006477  0.00007355  0.00007366  0.00007956  0.00007965
  0.00008104  0.00008423  0.00008493  0.00009995  0.00010262  0.00010986  0.00012114  0.00012366
  0.00013494  0.00013828  0.00014092  0.00015645  0.00016889  0.00018085  0.00019564  0.00019611
  0.00020069  0.00024276  0.00026229  0.00028071  0.00031530  0.00032133  0.00032811  0.00034487
  0.00036469  0.00037568  0.00038235  0.00038386  0.00041005  0.00041310  0.00041434  0.00041522
  0.00041793  0.00044352  0.00047986  0.00052021  0.00059310  0.00059310  0.00059684  0.00059684
  0.00060801  0.00061040  0.00061625  0.00061813  0.00062465  0.00062662  0.00063413  0.00064089
  0.00064424  0.00065466  0.00065695  0.00065746  0.00071106  0.00075466  0.00075650  0.00082287
  0.00083017  0.00093319  0.00096984  0.00105057  0.00105059  0.00110622  0.00111176  0.00111191
  0.00111501  0.00111777  0.00112181  0.00112416  0.00112555  0.00112809  0.00113073  0.00116207
  0.00116207  0.00117010  0.00117010  0.00154320  0.00173823  0.00176971  0.00177000  0.00187601
  0.00196645  0.00202181  0.00256737  0.00257260  0.00274412  0.00280077  0.00293540  0.00300641
  0.00316837  0.00322163  0.00337477  0.00338063  0.00356945  0.00358022  0.00400109  0.00400116
 Checking for correct frequencies
 recalc frequencies=
    -0.0   -0.0   -0.0    0.0    0.0    0.0   26.0   59.0   72.4   90.1
   122.0  140.4  190.1  193.4  223.6  224.8  276.5  296.3  308.1  369.6
   377.0  391.7  428.3  466.8  468.9  471.7  473.9  476.5  478.3  494.0
   529.6  545.6  562.5  579.0  631.0  642.8  647.9  672.0  702.9  739.0
   742.9  745.8  748.8  757.0  758.9  761.1  770.8  772.3  802.1  824.4
   831.1  839.3  844.0  846.2  863.4  866.5  887.1  899.0  901.0  905.7
   915.5  924.3  928.7  933.3  973.3  973.4  995.2  995.2 1014.5 1016.4
  1121.5 1149.5 1152.1 1183.4 1186.8 1197.6 1197.9 1205.2 1216.1 1228.2
  1261.2 1271.1 1293.8 1296.9 1305.2 1315.8 1327.3 1343.0 1351.1 1385.7
  1404.4 1418.2 1418.5 1420.6 1427.9 1434.4 1475.0 1476.3 1488.1 1530.2
  1546.7 1555.9 1575.5 1578.2 1580.8 1615.0 1629.1 1651.6 1671.3 1676.0
  3154.6 3155.2 3156.4 3156.5 3157.3 3157.7 3159.1 3159.2 3161.1 3161.1
  3162.3 3164.2 3175.8 3175.9 3188.3 3188.5
 recalc symmetries=
     B1u    B3u    B2g    B1g    B2u    B3g    B3u    Au     B1g    B1u
     B2g    B3u    B3g    Au     B1g    Ag     B2g    B1u    B3u    Au 
     B1g    B3g    B2u    B3u    B1g    B3u    B3u    B1g    B1u    B3g
     B2g    Au     B1u    Ag     B2u    Ag     B2u    B3g    B2g    Au 
     B2u    B1g    B3u    Ag     B2g    Ag     Au     B2g    B1u    B1g
     B2u    Au     B2g    B3g    Au     B3u    B2g    Ag     B1g    Au 
     B2g    B3u    B1u    B3g    B1g    B3u    Au     B2g    B2u    Ag 
     B2u    B3g    B1u    Ag     B2u    Ag     B3g    B1u    B3g    B2u
     B1u    Ag     B1u    B3g    B3g    B1u    B1u    B2u    B2u    B3g
     Ag     Ag     B2u    B1u    Ag     B2u    B3g    Ag     B2u    Ag 
     Ag     B2u    B2u    Ag     B1u    B3g    B3g    B1u    B1u    B3g
     B3g    B1u    B2u    B3g    Ag     B1u    B3g    B2u    B1u    Ag 
     B2u    Ag     B3g    B1u    B2u    Ag 
 recalc freqs check OK
 Zero-point lengths:
 10.0000 10.0000 10.0000 10.0000 10.0000 10.0000 48.6465 32.2661 29.1267 26.1109
 22.4485 20.9188 17.9826 17.8261 16.5782 16.5355 14.9086 14.4024 14.1245 12.8961
 12.7681 12.5262 11.9788 11.4746 11.4493 11.4146 11.3880 11.3571 11.3361 11.1539
 10.7726 10.6136 10.4528 10.3024  9.8696  9.7784  9.7396  9.5631  9.3507  9.1195
  9.0956  9.0776  9.0597  9.0104  8.9993  8.9865  8.9292  8.9209  8.7538  8.6345
  8.5994  8.5574  8.5336  8.5224  8.4369  8.4221  8.3238  8.2682  8.2590  8.2376
  8.1936  8.1545  8.1348  8.1151  7.9464  7.9459  7.8586  7.8585  7.7832  7.7761
  7.4028  7.3120  7.3039  7.2066  7.1964  7.1636  7.1628  7.1410  7.1090  7.0741
  6.9808  6.9536  6.8923  6.8840  6.8621  6.8345  6.8047  6.7648  6.7445  6.6597
  6.6153  6.5830  6.5824  6.5775  6.5606  6.5457  6.4550  6.4523  6.4266  6.3375
  6.3037  6.2850  6.2458  6.2404  6.2354  6.1689  6.1422  6.1003  6.0642  6.0556
  4.4139  4.4135  4.4127  4.4126  4.4120  4.4118  4.4108  4.4107  4.4094  4.4094
  4.4085  4.4072  4.3991  4.3991  4.3905  4.3904
 highest evec of mol 1
  0.0000  0.0068 -0.0586
  0.0000  0.0025  0.0004
  0.0000 -0.0001 -0.0049
  0.0000 -0.0001  0.0001
  0.0000  0.0000 -0.0021
  0.0000  0.0000  0.0000
  0.0000 -0.0000 -0.0021
  0.0000  0.0001  0.0001
  0.0000  0.0001 -0.0049
  0.0000 -0.0025  0.0004
  0.0000 -0.0068 -0.0586
  0.0000  0.1199 -0.0660
  0.0000  0.1199  0.0660
  0.0000 -0.0068  0.0586
  0.0000 -0.0025 -0.0004
  0.0000  0.0001  0.0049
  0.0000  0.0001 -0.0001
  0.0000 -0.0000  0.0021
  0.0000  0.0000 -0.0000
  0.0000  0.0000  0.0021
  0.0000 -0.0001 -0.0001
  0.0000 -0.0001  0.0049
  0.0000  0.0025 -0.0004
  0.0000  0.0068  0.0586
  0.0000 -0.1199  0.0660
  0.0000 -0.1199 -0.0660
  0.0000 -0.0017  0.1811
  0.0000 -0.0005  0.0164
  0.0000 -0.0000  0.0067
  0.0000  0.0000  0.0067
  0.0000  0.0005  0.0164
  0.0000  0.0017  0.1811
  0.0000 -0.3845  0.2163
  0.0000 -0.3845 -0.2163
  0.0000  0.0017 -0.1811
  0.0000  0.0005 -0.0164
  0.0000  0.0000 -0.0067
  0.0000 -0.0000 -0.0067
  0.0000 -0.0005 -0.0164
  0.0000 -0.0017 -0.1811
  0.0000  0.3845 -0.2163
  0.0000  0.3845  0.2163
 generating redundant internal coords
         300        3600          42
 Adding extra bonds for z output only
           6           6           6           6           6           6
           6           6           6           6           6           6
           6           6           6           6           6           6
           6           6           6           6           6           6
           6           6           1           1           1           1
           1           1           1           1           1           1
           1           1           1           1           1           1
 search for int coords
   1 str   2   1   1.436
   2 str   3   2   1.384
   3 str   4   3   1.416
   4 str   5   4   1.396
   5 str   6   5   1.405
   6 str   7   6   1.405
   7 str   8   7   1.396
   8 str   9   8   1.416
   9 str  10   9   1.384
  10 str  11  10   1.436
  11 str  12  11   1.361
  12 str  13  12   1.433
  13 str  14  13   1.361
  14 str  15  10   1.456
  15 str  15  14   1.436
  16 str  16  15   1.384
  17 str  17   8   1.458
  18 str  17  16   1.416
  19 str  18  17   1.396
  20 str  19   6   1.459
  21 str  19  18   1.405
  22 str  20  19   1.405
  23 str  21   4   1.458
  24 str  21  20   1.396
  25 str  22  21   1.416
  26 str  23   2   1.456
  27 str  23  22   1.384
  28 str  24  23   1.436
  29 str  25  24   1.361
  30 str  26   1   1.361
  31 str  26  25   1.433
  32 str  27   1   1.085
  33 str  28   3   1.086
  34 str  29   5   1.086
  35 str  30   7   1.086
  36 str  31   9   1.086
  37 str  32  11   1.085
  38 str  33  12   1.084
  39 str  34  13   1.084
  40 str  35  14   1.085
  41 str  36  16   1.086
  42 str  37  18   1.086
  43 str  38  20   1.086
  44 str  39  22   1.086
  45 str  40  24   1.085
  46 str  41  25   1.084
  47 str  42  26   1.084
 nber stretches=          47
  48 ben   1   2   3
  49 prop tor   1   2   3   4
  50 prop tor   1   2   3  28
  51 ben   1   2  23
  52 prop tor   1   2  23  22
  53 prop tor   1   2  23  24
  54 ben   1  26  25
  55 ben   1  26  42
  56 ben   2   1  26
  57 prop tor   2   1  26  25
  58 prop tor   2   1  26  42
  59 ben   2   1  27
  60 ben   2   3   4
  61 prop tor   2   3   4   5
  62 prop tor   2   3   4  21
  63 ben   2   3  28
  64 ben   2  23  22
  65 ben   2  23  24
  66 prop tor   2  23  24  25
  67 prop tor   2  23  24  40
  68 ben   3   2  23
  69 prop tor   3   2  23  22
  70 prop tor   3   2  23  24
  71 ben   3   4   5
  72 prop tor   3   4   5   6
  73 prop tor   3   4   5  29
  74 ben   3   4  21
  75 prop tor   3   4  21  20
  76 prop tor   3   4  21  22
  77 ben   4   3  28
  78 ben   4   5   6
  79 prop tor   4   5   6   7
  80 prop tor   4   5   6  19
  81 ben   4   5  29
  82 ben   4  21  20
  83 ben   4  21  22
  84 prop tor   4  21  22  23
  85 prop tor   4  21  22  39
  86 ben   5   4  21
  87 prop tor   5   4  21  20
  88 prop tor   5   4  21  22
  89 ben   5   6   7
  90 prop tor   5   6   7   8
  91 prop tor   5   6   7  30
  92 ben   5   6  19
  93 prop tor   5   6  19  18
  94 prop tor   5   6  19  20
  95 ben   6   5  29
  96 ben   6   7   8
  97 prop tor   6   7   8   9
  98 prop tor   6   7   8  17
  99 ben   6   7  30
 100 ben   6  19  18
 101 ben   6  19  20
 102 prop tor   6  19  20  21
 103 prop tor   6  19  20  38
 104 ben   7   6  19
 105 prop tor   7   6  19  18
 106 prop tor   7   6  19  20
 107 ben   7   8   9
 108 prop tor   7   8   9  10
 109 prop tor   7   8   9  31
 110 ben   7   8  17
 111 prop tor   7   8  17  16
 112 prop tor   7   8  17  18
 113 ben   8   7  30
 114 ben   8   9  10
 115 prop tor   8   9  10  11
 116 prop tor   8   9  10  15
 117 ben   8   9  31
 118 ben   8  17  16
 119 ben   8  17  18
 120 prop tor   8  17  18  19
 121 prop tor   8  17  18  37
 122 ben   9   8  17
 123 prop tor   9   8  17  16
 124 prop tor   9   8  17  18
 125 ben   9  10  11
 126 prop tor   9  10  11  12
 127 prop tor   9  10  11  32
 128 ben   9  10  15
 129 prop tor   9  10  15  14
 130 prop tor   9  10  15  16
 131 ben  10   9  31
 132 ben  10  11  12
 133 prop tor  10  11  12  13
 134 prop tor  10  11  12  33
 135 ben  10  11  32
 136 ben  10  15  14
 137 ben  10  15  16
 138 prop tor  10  15  16  17
 139 prop tor  10  15  16  36
 140 ben  11  10  15
 141 prop tor  11  10  15  14
 142 prop tor  11  10  15  16
 143 ben  11  12  13
 144 prop tor  11  12  13  14
 145 prop tor  11  12  13  34
 146 ben  11  12  33
 147 ben  12  11  32
 148 ben  12  13  14
 149 prop tor  12  13  14  15
 150 prop tor  12  13  14  35
 151 ben  12  13  34
 152 ben  13  12  33
 153 ben  13  14  15
 154 prop tor  13  14  15  10
 155 prop tor  13  14  15  16
 156 ben  13  14  35
 157 ben  14  13  34
 158 ben  14  15  16
 159 prop tor  14  15  16  17
 160 prop tor  14  15  16  36
 161 prop tor  15  10  11  12
 162 prop tor  15  10  11  32
 163 ben  15  14  35
 164 ben  15  16  17
 165 prop tor  15  16  17   8
 166 prop tor  15  16  17  18
 167 ben  15  16  36
 168 ben  16  17  18
 169 prop tor  16  17  18  19
 170 prop tor  16  17  18  37
 171 prop tor  17   8   9  10
 172 prop tor  17   8   9  31
 173 ben  17  16  36
 174 ben  17  18  19
 175 prop tor  17  18  19   6
 176 prop tor  17  18  19  20
 177 ben  17  18  37
 178 ben  18  19  20
 179 prop tor  18  19  20  21
 180 prop tor  18  19  20  38
 181 prop tor  19   6   7   8
 182 prop tor  19   6   7  30
 183 ben  19  18  37
 184 ben  19  20  21
 185 prop tor  19  20  21   4
 186 prop tor  19  20  21  22
 187 ben  19  20  38
 188 ben  20  21  22
 189 prop tor  20  21  22  23
 190 prop tor  20  21  22  39
 191 prop tor  21   4   5   6
 192 prop tor  21   4   5  29
 193 ben  21  20  38
 194 ben  21  22  23
 195 prop tor  21  22  23   2
 196 prop tor  21  22  23  24
 197 ben  21  22  39
 198 ben  22  23  24
 199 prop tor  22  23  24  25
 200 prop tor  22  23  24  40
 201 prop tor  23   2   3   4
 202 prop tor  23   2   3  28
 203 ben  23  22  39
 204 ben  23  24  25
 205 prop tor  23  24  25  26
 206 prop tor  23  24  25  41
 207 ben  23  24  40
 208 ben  24  25  26
 209 prop tor  24  25  26   1
 210 prop tor  24  25  26  42
 211 ben  24  25  41
 212 ben  25  24  40
 213 ben  25  26  42
 214 prop tor  26   1   2   3
 215 prop tor  26   1   2  23
 216 ben  26   1  27
 217 ben  26  25  41
 218 prop tor  27   1   2   3
 219 prop tor  27   1   2  23
 220 prop tor  27   1  26  25
 221 prop tor  27   1  26  42
 222 prop tor  28   3   4   5
 223 prop tor  28   3   4  21
 224 prop tor  29   5   6   7
 225 prop tor  29   5   6  19
 226 prop tor  30   7   8   9
 227 prop tor  30   7   8  17
 228 prop tor  31   9  10  11
 229 prop tor  31   9  10  15
 230 prop tor  32  11  12  13
 231 prop tor  32  11  12  33
 232 prop tor  33  12  13  14
 233 prop tor  33  12  13  34
 234 prop tor  34  13  14  15
 235 prop tor  34  13  14  35
 236 prop tor  35  14  15  10
 237 prop tor  35  14  15  16
 238 prop tor  36  16  17   8
 239 prop tor  36  16  17  18
 240 prop tor  37  18  19   6
 241 prop tor  37  18  19  20
 242 prop tor  38  20  21   4
 243 prop tor  38  20  21  22
 244 prop tor  39  22  23   2
 245 prop tor  39  22  23  24
 246 prop tor  40  24  25  26
 247 prop tor  40  24  25  41
 248 prop tor  41  25  26   1
 249 prop tor  41  25  26  42
 nber bend=              78
 nber lin bend=           0
 nber prop tor=         124
 nber impr tor=           0
 nber tot redund int=         249
 Reading file: 
 ./Benzene_Conj_5_C-1S0.log                                                     
                                          
  Entering Gaussian System, Link 0=g16                                          
  
 Gaussian format, type: g94, g98, g03= F F F
  #P Geom=AllCheck Guess=TCheck SCRF=Check GenChk UB3LYP/6-311G(d,p) Fre    
 energy type= B3LYP   
 Original G94 input coords:
  6  6.186652 -1.399989  0.000000
  6  4.930159 -0.724973  0.000000
  6  3.705707 -1.401596  0.000000
  6  2.468373 -0.730629  0.000000
  6  1.234396 -1.404024  0.000000
  6  0.000000 -0.732911  0.000000
  6 -1.234396 -1.404024  0.000000
  6 -2.468373 -0.730629  0.000000
  6 -3.705707 -1.401596  0.000000
  6 -4.930159 -0.724973  0.000000
  6 -6.186652 -1.399989  0.000000
  6 -7.373662 -0.710575  0.000000
  6 -7.373662  0.710575  0.000000
  6 -6.186652  1.399989  0.000000
  6 -4.930159  0.724973  0.000000
  6 -3.705707  1.401596  0.000000
  6 -2.468373  0.730629  0.000000
  6 -1.234396  1.404024  0.000000
  6  0.000000  0.732911  0.000000
  6  1.234396  1.404024  0.000000
  6  2.468373  0.730629  0.000000
  6  3.705707  1.401596  0.000000
  6  4.930159  0.724973  0.000000
  6  6.186652  1.399989  0.000000
  6  7.373662  0.710575  0.000000
  6  7.373662 -0.710575  0.000000
  1  6.185931 -2.487067  0.000000
  1  3.707292 -2.488728  0.000000
  1  1.235068 -2.491041  0.000000
  1 -1.235068 -2.491041  0.000000
  1 -3.707292 -2.488728  0.000000
  1 -6.185931 -2.487067  0.000000
  1 -8.316663 -1.248144  0.000000
  1 -8.316663  1.248144  0.000000
  1 -6.185931  2.487067  0.000000
  1 -3.707292  2.488728  0.000000
  1 -1.235068  2.491041  0.000000
  1  1.235068  2.491041  0.000000
  1  3.707292  2.488728  0.000000
  1  6.185931  2.487067  0.000000
  1  8.316663  1.248144  0.000000
  1  8.316663 -1.248144  0.000000
 nber atoms=          42
 Original standard coords:
  6  0.000000  6.186652  1.399989
  6  0.000000  4.930159  0.724973
  6  0.000000  3.705707  1.401596
  6  0.000000  2.468373  0.730629
  6  0.000000  1.234396  1.404024
  6  0.000000  0.000000  0.732911
  6  0.000000 -1.234396  1.404024
  6  0.000000 -2.468373  0.730629
  6  0.000000 -3.705707  1.401596
  6  0.000000 -4.930159  0.724973
  6  0.000000 -6.186652  1.399989
  6  0.000000 -7.373662  0.710575
  6  0.000000 -7.373662 -0.710575
  6  0.000000 -6.186652 -1.399989
  6  0.000000 -4.930159 -0.724973
  6  0.000000 -3.705707 -1.401596
  6  0.000000 -2.468373 -0.730629
  6  0.000000 -1.234396 -1.404024
  6  0.000000  0.000000 -0.732911
  6  0.000000  1.234396 -1.404024
  6  0.000000  2.468373 -0.730629
  6  0.000000  3.705707 -1.401596
  6  0.000000  4.930159 -0.724973
  6  0.000000  6.186652 -1.399989
  6  0.000000  7.373662 -0.710575
  6  0.000000  7.373662  0.710575
  1  0.000000  6.185931  2.487067
  1  0.000000  3.707292  2.488728
  1  0.000000  1.235068  2.491041
  1  0.000000 -1.235068  2.491041
  1  0.000000 -3.707292  2.488728
  1  0.000000 -6.185931  2.487067
  1  0.000000 -8.316663  1.248144
  1  0.000000 -8.316663 -1.248144
  1  0.000000 -6.185931 -2.487067
  1  0.000000 -3.707292 -2.488728
  1  0.000000 -1.235068 -2.491041
  1  0.000000  1.235068 -2.491041
  1  0.000000  3.707292 -2.488728
  1  0.000000  6.185931 -2.487067
  1  0.000000  8.316663 -1.248144
  1  0.000000  8.316663  1.248144
  SCF Done:  E(UB3LYP) =  -1000.71897141     A.U. after    1 cycles             
  
          23          40 "  -1000.71897141"
After scan for Atom:   Atom  AN      X      Y      Z        X      Y      Z        X      Y      Z   
After scan for Atom:   Atom  AN      X      Y      Z        X      Y      Z        X      Y      Z   
After scan for Atom:   Atom  AN      X      Y      Z        X      Y      Z        X      Y      Z   
After scan for Atom:   Atom  AN      X      Y      Z        X      Y      Z        X      Y      Z   
After scan for Atom:   Atom  AN      X      Y      Z        X      Y      Z        X      Y      Z   
After scan for Atom:   Atom  AN      X      Y      Z        X      Y      Z        X      Y      Z   
After scan for Atom:   Atom  AN      X      Y      Z        X      Y      Z        X      Y      Z   
After scan for Atom:   Atom  AN      X      Y      Z        X      Y      Z        X      Y      Z   
After scan for Atom:   Atom  AN      X      Y      Z        X      Y      Z        X      Y      Z   
After scan for Atom:   Atom  AN      X      Y      Z        X      Y      Z        X      Y      Z   
After scan for Atom:   Atom  AN      X      Y      Z        X      Y      Z        X      Y      Z   
After scan for Atom:   Atom  AN      X      Y      Z        X      Y      Z        X      Y      Z   
After scan for Atom:   Atom  AN      X      Y      Z        X      Y      Z        X      Y      Z   
After scan for Atom:   Atom  AN      X      Y      Z        X      Y      Z        X      Y      Z   
After scan for Atom:   Atom  AN      X      Y      Z        X      Y      Z        X      Y      Z   
After scan for Atom:   Atom  AN      X      Y      Z        X      Y      Z        X      Y      Z   
After scan for Atom:   Atom  AN      X      Y      Z        X      Y      Z        X      Y      Z   
After scan for Atom:   Atom  AN      X      Y      Z        X      Y      Z        X      Y      Z   
After scan for Atom:   Atom  AN      X      Y      Z        X      Y      Z        X      Y      Z   
After scan for Atom:   Atom  AN      X      Y      Z        X      Y      Z        X      Y      Z   
After scan for Atom:   Atom  AN      X      Y      Z        X      Y      Z        X      Y      Z   
After scan for Atom:   Atom  AN      X      Y      Z        X      Y      Z        X      Y      Z   
After scan for Atom:   Atom  AN      X      Y      Z        X      Y      Z        X      Y      Z   
After scan for Atom:   Atom  AN      X      Y      Z        X      Y      Z        X      Y      Z   
After scan for Atom:   Atom  AN      X      Y      Z        X      Y      Z        X      Y      Z   
After scan for Atom:   Atom  AN      X      Y      Z        X      Y      Z        X      Y      Z   
After scan for Atom:   Atom  AN      X      Y      Z        X      Y      Z        X      Y      Z   
After scan for Atom:   Atom  AN      X      Y      Z        X      Y      Z        X      Y      Z   
After scan for Atom:   Atom  AN      X      Y      Z        X      Y      Z        X      Y      Z   
After scan for Atom:   Atom  AN      X      Y      Z        X      Y      Z        X      Y      Z   
After scan for Atom:   Atom  AN      X      Y      Z        X      Y      Z        X      Y      Z   
After scan for Atom:   Atom  AN      X      Y      Z        X      Y      Z        X      Y      Z   
After scan for Atom:   Atom  AN      X      Y      Z        X      Y      Z        X      Y      Z   
After scan for Atom:   Atom  AN      X      Y      Z        X      Y      Z        X      Y      Z   
After scan for Atom:   Atom  AN      X      Y      Z        X      Y      Z        X      Y      Z   
After scan for Atom:   Atom  AN      X      Y      Z        X      Y      Z        X      Y      Z   
After scan for Atom:   Atom  AN      X      Y      Z        X      Y      Z        X      Y      Z   
After scan for Atom:   Atom  AN      X      Y      Z        X      Y      Z        X      Y      Z   
After scan for Atom:   Atom  AN      X      Y      Z        X      Y      Z        X      Y      Z   
After scan for Atom:   Atom  AN      X      Y      Z        X      Y      Z        X      Y      Z   
 g94    frequencies=
     0.0    0.0    0.0    0.0    0.0    0.0   26.7   57.3   74.2   89.5
   121.9  143.0  188.3  193.6  224.3  225.0  274.6  294.5  325.2  346.0
   358.2  390.7  425.6  457.9  462.7  465.4  469.5  469.8  478.3  494.6
   554.7  560.1  567.2  577.9  630.8  640.3  640.5  672.4  703.7  725.0
   726.2  730.0  742.3  747.3  749.4  756.7  757.4  762.1  775.5  791.5
   801.4  812.7  818.2  826.5  830.7  841.7  843.6  850.9  864.5  866.5
   868.1  897.9  924.1  924.5  924.6  929.4  947.4  947.4 1027.5 1028.3
  1135.5 1137.4 1160.0 1171.3 1176.7 1179.2 1188.1 1199.4 1207.9 1222.5
  1264.4 1268.5 1285.2 1288.1 1293.7 1299.7 1314.5 1323.9 1366.1 1390.8
  1393.2 1398.9 1405.0 1405.1 1411.5 1418.5 1465.0 1467.8 1491.0 1516.3
  1520.4 1530.9 1533.9 1547.8 1562.3 1565.0 1590.1 1604.5 1637.4 1641.0
  3127.2 3127.5 3128.6 3128.8 3130.4 3130.6 3132.1 3133.3 3134.3 3135.8
  3137.1 3140.0 3149.8 3149.8 3166.1 3166.4
 g94    symmetries=
                                                B3     AU     B1     B1
      B2     B3     B3     AU     AG     B1     B2     B1     B3     AU
      B1     B3     B2     B3     B1     B3     B3     B1     B1     B3
      B2     AU     B1     AG     B2     B2     AG     B3     B2     AU
      B1     B3     B2     B2     AG     AU     B2     AG     B1     AU
      B1     B2     B3     AU     B2     B3     B2     B1     B3     AU
      B2     AG     B1     B1     B3     B3     AU     B2     B2     AG
      B3     B1     B2     AG     B3     B2     B1     AG     B3     B2
      B1     AG     B1     B3     B3     B1     B1     B2     B3     B2
      B2     AG     B2     AG     AG     B1     B3     AG     B2     AG
      B3     AG     B2     B1     B2     AG     B1     B3     B1     B3
      B3     B1     B3     B2     AG     B1     B2     B3     AG     B1
      B2     AG     B3     B1     B2     AG
 atomic masses:
 12.0000 12.0000 12.0000 12.0000 12.0000 12.0000 12.0000 12.0000 12.0000 12.0000
 12.0000 12.0000 12.0000 12.0000 12.0000 12.0000 12.0000 12.0000 12.0000 12.0000
 12.0000 12.0000 12.0000 12.0000 12.0000 12.0000  1.0078  1.0078  1.0078  1.0078
  1.0078  1.0078  1.0078  1.0078  1.0078  1.0078  1.0078  1.0078  1.0078  1.0078
  1.0078  1.0078
 looking for force constants in 
 ./Benzene_Conj_5_C-1S0.fchk                                                    
  
 Cartesian Force Constants                  R   N=        8001                  
  
 n3=         126        8001
 g94-fc frequencies=
    -2.1   -2.1   -0.0    0.0    0.0    6.9   26.7   57.3   74.2   89.5
   121.9  143.0  188.3  193.6  224.3  225.0  274.6  294.5  325.3  346.0
   358.2  390.7  425.7  457.9  462.7  465.4  469.5  469.8  478.3  494.6
   554.7  560.1  567.2  577.9  630.8  640.3  640.5  672.4  703.7  725.0
   726.2  730.0  742.3  747.4  749.4  756.7  757.4  762.2  775.5  791.5
   801.5  812.7  818.2  826.5  830.8  841.7  843.7  850.9  864.6  866.5
   868.2  897.9  924.1  924.5  924.6  929.4  947.4  947.4 1027.5 1028.3
  1135.6 1137.4 1160.0 1171.3 1176.7 1179.3 1188.2 1199.4 1207.9 1222.5
  1264.5 1268.6 1285.2 1288.1 1293.7 1299.8 1314.5 1323.9 1366.1 1390.8
  1393.2 1398.9 1405.1 1405.1 1411.5 1418.5 1465.1 1467.9 1491.0 1516.3
  1520.5 1531.0 1534.0 1547.8 1562.4 1565.1 1590.2 1604.5 1637.4 1641.1
  3127.3 3127.6 3128.6 3128.8 3130.4 3130.7 3132.1 3133.4 3134.3 3135.9
  3137.1 3140.0 3149.9 3149.9 3166.2 3166.5
 at 99999: n3=         126
 symm operator            1 :  T  nop=           1
 symm operator            2 :  T  nop=           2
 symm operator            3 :  T  nop=           3
 symm operator            4 :  T  nop=           4
 symm operator            5 :  T  nop=           5
 symm operator            6 :  T  nop=           6
 symm operator            7 :  T  nop=           7
 The point group of the molecule is D2H
 enforcing symm op           1  jsymt=          -1          -1           1
 enforcing symm op           2  jsymt=          -1           1          -1
 enforcing symm op           3  jsymt=           1          -1          -1
 enforcing symm op           4  jsymt=          -1          -1          -1
 enforcing symm op           5  jsymt=           1           1          -1
 enforcing symm op           6  jsymt=           1          -1           1
 enforcing symm op           7  jsymt=          -1           1           1
 cartesian coord symmetries:
 Ag :   21 Au :   10 B1g:   10 B1u:   21 B2g:   11 B2u:   21 B3g:   21 B3u:   11
 Symmetry rotation matrix:
   1.00000   0.00000   0.00000
   0.00000   1.00000   0.00000
   0.00000   0.00000   1.00000

 Projecting out zero-frequency components
 generating redundant internal coords
         300        3600          42
 search for int coords
   1 str   2   1   1.426
   2 str   3   2   1.399
   3 str   4   3   1.408
   4 str   5   4   1.406
   5 str   6   5   1.405
   6 str   7   6   1.405
   7 str   8   7   1.406
   8 str   9   8   1.408
   9 str  10   9   1.399
  10 str  11  10   1.426
  11 str  12  11   1.373
  12 str  13  12   1.421
  13 str  14  13   1.373
  14 str  15  10   1.450
  15 str  15  14   1.426
  16 str  16  15   1.399
  17 str  17   8   1.461
  18 str  17  16   1.408
  19 str  18  17   1.406
  20 str  19   6   1.466
  21 str  19  18   1.405
  22 str  20  19   1.405
  23 str  21   4   1.461
  24 str  21  20   1.406
  25 str  22  21   1.408
  26 str  23   2   1.450
  27 str  23  22   1.399
  28 str  24  23   1.426
  29 str  25  24   1.373
  30 str  26   1   1.373
  31 str  26  25   1.421
  32 str  27   1   1.087
  33 str  28   3   1.087
  34 str  29   5   1.087
  35 str  30   7   1.087
  36 str  31   9   1.087
  37 str  32  11   1.087
  38 str  33  12   1.085
  39 str  34  13   1.085
  40 str  35  14   1.087
  41 str  36  16   1.087
  42 str  37  18   1.087
  43 str  38  20   1.087
  44 str  39  22   1.087
  45 str  40  24   1.087
  46 str  41  25   1.085
  47 str  42  26   1.085
 nber stretches=          47
  48 ben   1   2   3
  49 prop tor   1   2   3   4
  50 prop tor   1   2   3  28
  51 ben   1   2  23
  52 prop tor   1   2  23  22
  53 prop tor   1   2  23  24
  54 ben   1  26  25
  55 ben   1  26  42
  56 ben   2   1  26
  57 prop tor   2   1  26  25
  58 prop tor   2   1  26  42
  59 ben   2   1  27
  60 ben   2   3   4
  61 prop tor   2   3   4   5
  62 prop tor   2   3   4  21
  63 ben   2   3  28
  64 ben   2  23  22
  65 ben   2  23  24
  66 prop tor   2  23  24  25
  67 prop tor   2  23  24  40
  68 ben   3   2  23
  69 prop tor   3   2  23  22
  70 prop tor   3   2  23  24
  71 ben   3   4   5
  72 prop tor   3   4   5   6
  73 prop tor   3   4   5  29
  74 ben   3   4  21
  75 prop tor   3   4  21  20
  76 prop tor   3   4  21  22
  77 ben   4   3  28
  78 ben   4   5   6
  79 prop tor   4   5   6   7
  80 prop tor   4   5   6  19
  81 ben   4   5  29
  82 ben   4  21  20
  83 ben   4  21  22
  84 prop tor   4  21  22  23
  85 prop tor   4  21  22  39
  86 ben   5   4  21
  87 prop tor   5   4  21  20
  88 prop tor   5   4  21  22
  89 ben   5   6   7
  90 prop tor   5   6   7   8
  91 prop tor   5   6   7  30
  92 ben   5   6  19
  93 prop tor   5   6  19  18
  94 prop tor   5   6  19  20
  95 ben   6   5  29
  96 ben   6   7   8
  97 prop tor   6   7   8   9
  98 prop tor   6   7   8  17
  99 ben   6   7  30
 100 ben   6  19  18
 101 ben   6  19  20
 102 prop tor   6  19  20  21
 103 prop tor   6  19  20  38
 104 ben   7   6  19
 105 prop tor   7   6  19  18
 106 prop tor   7   6  19  20
 107 ben   7   8   9
 108 prop tor   7   8   9  10
 109 prop tor   7   8   9  31
 110 ben   7   8  17
 111 prop tor   7   8  17  16
 112 prop tor   7   8  17  18
 113 ben   8   7  30
 114 ben   8   9  10
 115 prop tor   8   9  10  11
 116 prop tor   8   9  10  15
 117 ben   8   9  31
 118 ben   8  17  16
 119 ben   8  17  18
 120 prop tor   8  17  18  19
 121 prop tor   8  17  18  37
 122 ben   9   8  17
 123 prop tor   9   8  17  16
 124 prop tor   9   8  17  18
 125 ben   9  10  11
 126 prop tor   9  10  11  12
 127 prop tor   9  10  11  32
 128 ben   9  10  15
 129 prop tor   9  10  15  14
 130 prop tor   9  10  15  16
 131 ben  10   9  31
 132 ben  10  11  12
 133 prop tor  10  11  12  13
 134 prop tor  10  11  12  33
 135 ben  10  11  32
 136 ben  10  15  14
 137 ben  10  15  16
 138 prop tor  10  15  16  17
 139 prop tor  10  15  16  36
 140 ben  11  10  15
 141 prop tor  11  10  15  14
 142 prop tor  11  10  15  16
 143 ben  11  12  13
 144 prop tor  11  12  13  14
 145 prop tor  11  12  13  34
 146 ben  11  12  33
 147 ben  12  11  32
 148 ben  12  13  14
 149 prop tor  12  13  14  15
 150 prop tor  12  13  14  35
 151 ben  12  13  34
 152 ben  13  12  33
 153 ben  13  14  15
 154 prop tor  13  14  15  10
 155 prop tor  13  14  15  16
 156 ben  13  14  35
 157 ben  14  13  34
 158 ben  14  15  16
 159 prop tor  14  15  16  17
 160 prop tor  14  15  16  36
 161 prop tor  15  10  11  12
 162 prop tor  15  10  11  32
 163 ben  15  14  35
 164 ben  15  16  17
 165 prop tor  15  16  17   8
 166 prop tor  15  16  17  18
 167 ben  15  16  36
 168 ben  16  17  18
 169 prop tor  16  17  18  19
 170 prop tor  16  17  18  37
 171 prop tor  17   8   9  10
 172 prop tor  17   8   9  31
 173 ben  17  16  36
 174 ben  17  18  19
 175 prop tor  17  18  19   6
 176 prop tor  17  18  19  20
 177 ben  17  18  37
 178 ben  18  19  20
 179 prop tor  18  19  20  21
 180 prop tor  18  19  20  38
 181 prop tor  19   6   7   8
 182 prop tor  19   6   7  30
 183 ben  19  18  37
 184 ben  19  20  21
 185 prop tor  19  20  21   4
 186 prop tor  19  20  21  22
 187 ben  19  20  38
 188 ben  20  21  22
 189 prop tor  20  21  22  23
 190 prop tor  20  21  22  39
 191 prop tor  21   4   5   6
 192 prop tor  21   4   5  29
 193 ben  21  20  38
 194 ben  21  22  23
 195 prop tor  21  22  23   2
 196 prop tor  21  22  23  24
 197 ben  21  22  39
 198 ben  22  23  24
 199 prop tor  22  23  24  25
 200 prop tor  22  23  24  40
 201 prop tor  23   2   3   4
 202 prop tor  23   2   3  28
 203 ben  23  22  39
 204 ben  23  24  25
 205 prop tor  23  24  25  26
 206 prop tor  23  24  25  41
 207 ben  23  24  40
 208 ben  24  25  26
 209 prop tor  24  25  26   1
 210 prop tor  24  25  26  42
 211 ben  24  25  41
 212 ben  25  24  40
 213 ben  25  26  42
 214 prop tor  26   1   2   3
 215 prop tor  26   1   2  23
 216 ben  26   1  27
 217 ben  26  25  41
 218 prop tor  27   1   2   3
 219 prop tor  27   1   2  23
 220 prop tor  27   1  26  25
 221 prop tor  27   1  26  42
 222 prop tor  28   3   4   5
 223 prop tor  28   3   4  21
 224 prop tor  29   5   6   7
 225 prop tor  29   5   6  19
 226 prop tor  30   7   8   9
 227 prop tor  30   7   8  17
 228 prop tor  31   9  10  11
 229 prop tor  31   9  10  15
 230 prop tor  32  11  12  13
 231 prop tor  32  11  12  33
 232 prop tor  33  12  13  14
 233 prop tor  33  12  13  34
 234 prop tor  34  13  14  15
 235 prop tor  34  13  14  35
 236 prop tor  35  14  15  10
 237 prop tor  35  14  15  16
 238 prop tor  36  16  17   8
 239 prop tor  36  16  17  18
 240 prop tor  37  18  19   6
 241 prop tor  37  18  19  20
 242 prop tor  38  20  21   4
 243 prop tor  38  20  21  22
 244 prop tor  39  22  23   2
 245 prop tor  39  22  23  24
 246 prop tor  40  24  25  26
 247 prop tor  40  24  25  41
 248 prop tor  41  25  26   1
 249 prop tor  41  25  26  42
 nber bend=              78
 nber lin bend=           0
 nber prop tor=         124
 nber impr tor=           0
 nber tot redund int=         249
 Eigenvalues of G in red int coords
    Gval -0.00000000 -0.00000000 -0.00000000 -0.00000000 -0.00000000 -0.00000000 -0.00000000 -0.00000000
    Gval -0.00000000 -0.00000000 -0.00000000 -0.00000000 -0.00000000 -0.00000000 -0.00000000 -0.00000000
    Gval -0.00000000 -0.00000000 -0.00000000 -0.00000000 -0.00000000 -0.00000000 -0.00000000 -0.00000000
    Gval -0.00000000 -0.00000000 -0.00000000 -0.00000000 -0.00000000 -0.00000000 -0.00000000 -0.00000000
    Gval -0.00000000 -0.00000000 -0.00000000 -0.00000000 -0.00000000 -0.00000000 -0.00000000 -0.00000000
    Gval -0.00000000 -0.00000000 -0.00000000 -0.00000000 -0.00000000 -0.00000000 -0.00000000 -0.00000000
    Gval -0.00000000 -0.00000000 -0.00000000 -0.00000000 -0.00000000 -0.00000000 -0.00000000 -0.00000000
    Gval -0.00000000 -0.00000000 -0.00000000 -0.00000000 -0.00000000 -0.00000000 -0.00000000 -0.00000000
    Gval -0.00000000 -0.00000000 -0.00000000 -0.00000000  0.00000000  0.00000000  0.00000000  0.00000000
    Gval  0.00000000  0.00000000  0.00000000  0.00000000  0.00000000  0.00000000  0.00000000  0.00000000
    Gval  0.00000000  0.00000000  0.00000000  0.00000000  0.00000000  0.00000000  0.00000000  0.00000000
    Gval  0.00000000  0.00000000  0.00000000  0.00000000  0.00000000  0.00000000  0.00000000  0.00000000
    Gval  0.00000000  0.00000000  0.00000000  0.00000000  0.00000000  0.00000000  0.00000000  0.00000000
    Gval  0.00000000  0.00000000  0.00000000  0.00000000  0.00000000  0.00000000  0.00000000  0.00000000
    Gval  0.00000000  0.00000000  0.00000000  0.00000000  0.00000000  0.00000000  0.00000000  0.00000000
    Gval  0.00000000  0.00000000  0.00000000  0.00000000  0.00000000  0.00000000  0.00000000  0.00000000
    Gval  0.00000000  0.00000106  0.00000294  0.00000316  0.00000592  0.00001143  0.00001709  0.00001987
    Gval  0.00002301  0.00002442  0.00002924  0.00003741  0.00003856  0.00004013  0.00004043  0.00004470
    Gval  0.00005149  0.00005274  0.00005814  0.00005918  0.00006482  0.00007338  0.00007365  0.00007931
    Gval  0.00007950  0.00008169  0.00008441  0.00008487  0.00009940  0.00010261  0.00010969  0.00012091
    Gval  0.00012358  0.00013518  0.00013855  0.00014133  0.00015701  0.00016775  0.00018038  0.00019479
    Gval  0.00019723  0.00020067  0.00024279  0.00026299  0.00028072  0.00031507  0.00032135  0.00032792
    Gval  0.00034307  0.00036344  0.00037564  0.00038414  0.00038545  0.00040728  0.00041169  0.00041316
    Gval  0.00041410  0.00041791  0.00044363  0.00048374  0.00052360  0.00059311  0.00059311  0.00059685
    Gval  0.00059685  0.00060794  0.00061041  0.00061623  0.00061776  0.00062441  0.00062659  0.00063394
    Gval  0.00064087  0.00064409  0.00065466  0.00065699  0.00065749  0.00071642  0.00075702  0.00075883
    Gval  0.00082724  0.00083497  0.00092031  0.00095877  0.00104798  0.00104800  0.00110152  0.00110868
    Gval  0.00110903  0.00111070  0.00111314  0.00111754  0.00112000  0.00112141  0.00112387  0.00112659
    Gval  0.00115642  0.00115642  0.00116749  0.00116749  0.00154256  0.00173547  0.00176904  0.00176933
    Gval  0.00187114  0.00195911  0.00200829  0.00255900  0.00256611  0.00271797  0.00277886  0.00291456
    Gval  0.00299126  0.00314896  0.00320898  0.00335505  0.00336767  0.00354454  0.00355625  0.00399881
    Gval  0.00399887
  1.055295001242704E-006  1.055295001242704E-006
  2.943453034679362E-006  1.055295001242704E-006
  3.162342109869595E-006  1.055295001242704E-006
  5.920214048865076E-006  1.055295001242704E-006
  1.143344406520784E-005  1.055295001242704E-006
  1.709077395052323E-005  1.055295001242704E-006
  1.987437404365987E-005  1.055295001242704E-006
  2.301062747955911E-005  1.055295001242704E-006
  2.442061714906112E-005  1.055295001242704E-006
  2.923920993630113E-005  1.055295001242704E-006
  3.741454107844846E-005  1.055295001242704E-006
  3.856464028790969E-005  1.055295001242704E-006
  4.012655770991260E-005  1.055295001242704E-006
  4.042692940019248E-005  1.055295001242704E-006
  4.470094383737784E-005  1.055295001242704E-006
  5.149104329247557E-005  1.055295001242704E-006
  5.274425864003161E-005  1.055295001242704E-006
  5.814047250208354E-005  1.055295001242704E-006
  5.918087147617503E-005  1.055295001242704E-006
  6.481788812170887E-005  1.055295001242704E-006
  7.338212301899020E-005  1.055295001242704E-006
  7.364750770549891E-005  1.055295001242704E-006
  7.931200022556257E-005  1.055295001242704E-006
  7.949829450848509E-005  1.055295001242704E-006
  8.169191609832709E-005  1.055295001242704E-006
  8.440767049240547E-005  1.055295001242704E-006
  8.487142147485317E-005  1.055295001242704E-006
  9.939599336436035E-005  1.055295001242704E-006
  1.026144877944513E-004  1.055295001242704E-006
  1.096851555370142E-004  1.055295001242704E-006
  1.209090490408710E-004  1.055295001242704E-006
  1.235754275600896E-004  1.055295001242704E-006
  1.351828747625515E-004  1.055295001242704E-006
  1.385504212988647E-004  1.055295001242704E-006
  1.413323885948883E-004  1.055295001242704E-006
  1.570083072583261E-004  1.055295001242704E-006
  1.677543011642827E-004  1.055295001242704E-006
  1.803807101277278E-004  1.055295001242704E-006
  1.947861497817946E-004  1.055295001242704E-006
  1.972327231044289E-004  1.055295001242704E-006
  2.006737682346894E-004  1.055295001242704E-006
  2.427938143852407E-004  1.055295001242704E-006
  2.629873995941158E-004  1.055295001242704E-006
  2.807189667963925E-004  1.055295001242704E-006
  3.150732444324796E-004  1.055295001242704E-006
  3.213505784804646E-004  1.055295001242704E-006
  3.279156208534209E-004  1.055295001242704E-006
  3.430650370110709E-004  1.055295001242704E-006
  3.634380129204273E-004  1.055295001242704E-006
  3.756404802493415E-004  1.055295001242704E-006
  3.841361246751987E-004  1.055295001242704E-006
  3.854527969546014E-004  1.055295001242704E-006
  4.072842727193686E-004  1.055295001242704E-006
  4.116948512295612E-004  1.055295001242704E-006
  4.131565709783718E-004  1.055295001242704E-006
  4.141008247037384E-004  1.055295001242704E-006
  4.179106182148240E-004  1.055295001242704E-006
  4.436340284122622E-004  1.055295001242704E-006
  4.837362669337193E-004  1.055295001242704E-006
  5.235995569501974E-004  1.055295001242704E-006
  5.931135674519467E-004  1.055295001242704E-006
  5.931140220481844E-004  1.055295001242704E-006
  5.968515561020919E-004  1.055295001242704E-006
  5.968533885699175E-004  1.055295001242704E-006
  6.079414527092914E-004  1.055295001242704E-006
  6.104074878096961E-004  1.055295001242704E-006
  6.162345750458505E-004  1.055295001242704E-006
  6.177624408873875E-004  1.055295001242704E-006
  6.244074936143955E-004  1.055295001242704E-006
  6.265938781834594E-004  1.055295001242704E-006
  6.339386145732865E-004  1.055295001242704E-006
  6.408664245334090E-004  1.055295001242704E-006
  6.440910511963723E-004  1.055295001242704E-006
  6.546586543856953E-004  1.055295001242704E-006
  6.569874521897974E-004  1.055295001242704E-006
  6.574945293372384E-004  1.055295001242704E-006
  7.164247574472834E-004  1.055295001242704E-006
  7.570168643207493E-004  1.055295001242704E-006
  7.588281602033623E-004  1.055295001242704E-006
  8.272410630315072E-004  1.055295001242704E-006
  8.349672923595750E-004  1.055295001242704E-006
  9.203123790116333E-004  1.055295001242704E-006
  9.587694712375437E-004  1.055295001242704E-006
  1.047980315830498E-003  1.055295001242704E-006
  1.048002368235323E-003  1.055295001242704E-006
  1.101522413021162E-003  1.055295001242704E-006
  1.108678230273596E-003  1.055295001242704E-006
  1.109029763691447E-003  1.055295001242704E-006
  1.110699985542095E-003  1.055295001242704E-006
  1.113137846948766E-003  1.055295001242704E-006
  1.117536883560151E-003  1.055295001242704E-006
  1.120001765754065E-003  1.055295001242704E-006
  1.121410992893161E-003  1.055295001242704E-006
  1.123873411873212E-003  1.055295001242704E-006
  1.126586333041974E-003  1.055295001242704E-006
  1.156418850668088E-003  1.055295001242704E-006
  1.156419790493128E-003  1.055295001242704E-006
  1.167492471678296E-003  1.055295001242704E-006
  1.167492471694073E-003  1.055295001242704E-006
  1.542555180073537E-003  1.055295001242704E-006
  1.735473089150745E-003  1.055295001242704E-006
  1.769035830227755E-003  1.055295001242704E-006
  1.769334889999369E-003  1.055295001242704E-006
  1.871138157428461E-003  1.055295001242704E-006
  1.959106324046360E-003  1.055295001242704E-006
  2.008291098114058E-003  1.055295001242704E-006
  2.558995984954999E-003  1.055295001242704E-006
  2.566108292094401E-003  1.055295001242704E-006
  2.717969683361131E-003  1.055295001242704E-006
  2.778857512553173E-003  1.055295001242704E-006
  2.914555615360226E-003  1.055295001242704E-006
  2.991262130706388E-003  1.055295001242704E-006
  3.148957586828840E-003  1.055295001242704E-006
  3.208978999626329E-003  1.055295001242704E-006
  3.355051692553382E-003  1.055295001242704E-006
  3.367671498416751E-003  1.055295001242704E-006
  3.544538928987992E-003  1.055295001242704E-006
  3.556253642904493E-003  1.055295001242704E-006
  3.998808573482410E-003  1.055295001242704E-006
  3.998871722898650E-003  1.055295001242704E-006
 cut=1d-8, nber non-redundant internal coords=         120
 Check on Eigenvals of non-red overlap matrix:
  0.00000106  0.00000294  0.00000316  0.00000592  0.00001143  0.00001709  0.00001987  0.00002301
  0.00002442  0.00002924  0.00003741  0.00003856  0.00004013  0.00004043  0.00004470  0.00005149
  0.00005274  0.00005814  0.00005918  0.00006482  0.00007338  0.00007365  0.00007931  0.00007950
  0.00008169  0.00008441  0.00008487  0.00009940  0.00010261  0.00010969  0.00012091  0.00012358
  0.00013518  0.00013855  0.00014133  0.00015701  0.00016775  0.00018038  0.00019479  0.00019723
  0.00020067  0.00024279  0.00026299  0.00028072  0.00031507  0.00032135  0.00032792  0.00034307
  0.00036344  0.00037564  0.00038414  0.00038545  0.00040728  0.00041169  0.00041316  0.00041410
  0.00041791  0.00044363  0.00048374  0.00052360  0.00059311  0.00059311  0.00059685  0.00059685
  0.00060794  0.00061041  0.00061623  0.00061776  0.00062441  0.00062659  0.00063394  0.00064087
  0.00064409  0.00065466  0.00065699  0.00065749  0.00071642  0.00075702  0.00075883  0.00082724
  0.00083497  0.00092031  0.00095877  0.00104798  0.00104800  0.00110152  0.00110868  0.00110903
  0.00111070  0.00111314  0.00111754  0.00112000  0.00112141  0.00112387  0.00112659  0.00115642
  0.00115642  0.00116749  0.00116749  0.00154256  0.00173547  0.00176904  0.00176933  0.00187114
  0.00195911  0.00200829  0.00255900  0.00256611  0.00271797  0.00277886  0.00291456  0.00299126
  0.00314896  0.00320898  0.00335505  0.00336767  0.00354454  0.00355625  0.00399881  0.00399887
 Checking for correct frequencies
 recalc frequencies=
    -0.0   -0.0    0.0    0.0    0.0    0.0   26.7   57.3   74.2   89.5
   121.9  143.0  188.3  193.6  224.3  225.0  274.6  294.5  325.3  346.0
   358.2  390.7  425.7  457.9  462.7  465.4  469.5  469.8  478.3  494.6
   554.7  560.1  567.2  577.9  630.8  640.3  640.5  672.4  703.7  725.0
   726.2  730.0  742.3  747.4  749.4  756.7  757.4  762.2  775.5  791.5
   801.5  812.7  818.2  826.5  830.8  841.7  843.7  850.9  864.6  866.5
   868.2  897.9  924.1  924.5  924.6  929.4  947.4  947.4 1027.5 1028.3
  1135.6 1137.4 1160.0 1171.3 1176.7 1179.3 1188.2 1199.4 1207.9 1222.5
  1264.5 1268.6 1285.2 1288.1 1293.7 1299.8 1314.5 1323.9 1366.1 1390.8
  1393.2 1398.9 1405.1 1405.1 1411.5 1418.5 1465.1 1467.9 1491.0 1516.3
  1520.5 1531.0 1534.0 1547.8 1562.4 1565.1 1590.2 1604.5 1637.4 1641.1
  3127.3 3127.6 3128.6 3128.8 3130.4 3130.7 3132.1 3133.4 3134.3 3135.9
  3137.1 3140.0 3149.9 3149.9 3166.2 3166.5
 recalc symmetries=
     B3g    B2g    B1g    B3u    B1u    B2u    B3u    Au     B1g    B1u
     B2g    B3u    B3g    Au     Ag     B1g    B2g    B1u    B3u    Au 
     B1g    B3g    B2u    B3u    B1g    B3u    B3u    B1g    B1u    B3g
     B2g    Au     B1u    Ag     B2u    B2u    Ag     B3g    B2g    Au 
     B1g    B3u    B2g    B2u    Ag     Au     B2g    Ag     B1g    Au 
     B1u    B2g    B3u    Au     B2u    B3g    B2g    B1g    B3u    Au 
     B2g    Ag     B1u    B1g    B3u    B3g    Au     B2g    B2u    Ag 
     B3g    B1u    B2u    Ag     B3g    B2u    B1u    Ag     B3g    B2u
     B1u    Ag     B1u    B3g    B3g    B1u    B1u    B2u    B3g    B2u
     B2u    Ag     B2u    Ag     Ag     B1u    B3g    Ag     B2u    Ag 
     B3g    Ag     B2u    B1u    B2u    Ag     B1u    B3g    B1u    B3g
     B3g    B1u    B3g    B2u    Ag     B1u    B2u    B3g    Ag     B1u
     B2u    Ag     B3g    B1u    B2u    Ag 
 recalc freqs check OK
 Zero-point lengths:
 10.0000 10.0000 10.0000 10.0000 10.0000 10.0000 47.9432 32.7482 28.7854 26.2118
 22.4575 20.7321 18.0656 17.8177 16.5527 16.5273 14.9609 14.4461 13.7463 13.3275
 13.0980 12.5426 12.0162 11.5857 11.5249 11.4911 11.4409 11.4378 11.3354 11.1468
 10.5263 10.4748 10.4092 10.3122  9.8707  9.7969  9.7958  9.5605  9.3452  9.2072
  9.1996  9.1756  9.0991  9.0684  9.0558  9.0124  9.0082  8.9799  8.9025  8.8118
  8.7570  8.6962  8.6668  8.6231  8.6012  8.5450  8.5351  8.4986  8.4313  8.4217
  8.4139  8.2734  8.1551  8.1534  8.1529  8.1320  8.0543  8.0543  7.7341  7.7309
  7.3568  7.3509  7.2789  7.2437  7.2271  7.2192  7.1922  7.1583  7.1330  7.0904
  6.9717  6.9605  6.9153  6.9074  6.8925  6.8764  6.8377  6.8134  6.7073  6.6476
  6.6418  6.6283  6.6137  6.6137  6.5986  6.5823  6.4769  6.4707  6.4202  6.3665
  6.3578  6.3360  6.3297  6.3014  6.2720  6.2666  6.2169  6.1890  6.1266  6.1198
  4.4332  4.4330  4.4322  4.4320  4.4309  4.4307  4.4297  4.4288  4.4281  4.4271
  4.4262  4.4241  4.4172  4.4172  4.4058  4.4056
 highest evec of mol 2
  0.0000  0.0062 -0.0578
  0.0000  0.0023  0.0003
  0.0000 -0.0000 -0.0074
  0.0000 -0.0001  0.0001
  0.0000  0.0000 -0.0034
  0.0000  0.0000  0.0000
  0.0000 -0.0000 -0.0034
  0.0000  0.0001  0.0001
  0.0000  0.0000 -0.0074
  0.0000 -0.0023  0.0003
  0.0000 -0.0062 -0.0578
  0.0000  0.1185 -0.0680
  0.0000  0.1185  0.0680
  0.0000 -0.0062  0.0578
  0.0000 -0.0023 -0.0003
  0.0000  0.0000  0.0074
  0.0000  0.0001 -0.0001
  0.0000 -0.0000  0.0034
  0.0000  0.0000 -0.0000
  0.0000  0.0000  0.0034
  0.0000 -0.0001 -0.0001
  0.0000 -0.0000  0.0074
  0.0000  0.0023 -0.0003
  0.0000  0.0062  0.0578
  0.0000 -0.1185  0.0680
  0.0000 -0.1185 -0.0680
  0.0000 -0.0020  0.1802
  0.0000 -0.0006  0.0247
  0.0000 -0.0000  0.0111
  0.0000  0.0000  0.0111
  0.0000  0.0006  0.0247
  0.0000  0.0020  0.1802
  0.0000 -0.3827  0.2197
  0.0000 -0.3827 -0.2197
  0.0000  0.0020 -0.1802
  0.0000  0.0006 -0.0247
  0.0000  0.0000 -0.0111
  0.0000 -0.0000 -0.0111
  0.0000 -0.0006 -0.0247
  0.0000 -0.0020 -0.1802
  0.0000  0.3827 -0.2197
  0.0000  0.3827  0.2197
 Enter nber and list of atoms to keep of mol #2
 keep list:          42           1           2           3           4
           5           6           7           8           9          10
          11          12          13          14          15          16
          17          18          19          20          21          22
          23          24          25          26          27          28
          29          30          31          32          33          34
          35          36          37          38          39          40
          41          42
 reordering atoms
           1  -6.18665200000000     
           2  -4.93015900000000     
           3  -3.70570700000000     
           4  -2.46837300000000     
           5  -1.23439600000000     
           6  0.000000000000000E+000
           7   1.23439600000000     
           8   2.46837300000000     
           9   3.70570700000000     
          10   4.93015900000000     
          11   6.18665200000000     
          12   7.37366200000000     
          13   7.37366200000000     
          14   6.18665200000000     
          15   4.93015900000000     
          16   3.70570700000000     
          17   2.46837300000000     
          18   1.23439600000000     
          19  0.000000000000000E+000
          20  -1.23439600000000     
          21  -2.46837300000000     
          22  -3.70570700000000     
          23  -4.93015900000000     
          24  -6.18665200000000     
          25  -7.37366200000000     
          26  -7.37366200000000     
          27  -6.18593100000000     
          28  -3.70729200000000     
          29  -1.23506800000000     
          30   1.23506800000000     
          31   3.70729200000000     
          32   6.18593100000000     
          33   8.31666300000000     
          34   8.31666300000000     
          35   6.18593100000000     
          36   3.70729200000000     
          37   1.23506800000000     
          38  -1.23506800000000     
          39  -3.70729200000000     
          40  -6.18593100000000     
          41  -8.31666300000000     
          42  -8.31666300000000     
           1           1
           2           2
           3           3
           4           4
           5           5
           6           6
           7           7
           8           8
           9           9
          10          10
          11          11
          12          12
          13          13
          14          14
          15          15
          16          16
          17          17
          18          18
          19          19
          20          20
          21          21
          22          22
          23          23
          24          24
          25          25
          26          26
          27          27
          28          28
          29          29
          30          30
          31          31
          32          32
          33          33
          34          34
          35          35
          36          36
          37          37
          38          38
          39          39
          40          40
          41          41
          42          42
 initial cartes coords mol 1
   6   0.00000   1.40914  -6.16367
   6   0.00000   0.72786  -4.89977
   6   0.00000   1.40719  -3.69353
   6   0.00000   0.72903  -2.45062
   6   0.00000   1.40803  -1.23068
   6   0.00000   0.72960   0.00000
   6   0.00000   1.40803   1.23068
   6   0.00000   0.72903   2.45062
   6   0.00000   1.40719   3.69353
   6   0.00000   0.72786   4.89977
   6   0.00000   1.40914   6.16367
   6   0.00000   0.71657   7.33517
   6   0.00000  -0.71657   7.33517
   6   0.00000  -1.40914   6.16367
   6   0.00000  -0.72786   4.89977
   6   0.00000  -1.40719   3.69353
   6   0.00000  -0.72903   2.45062
   6   0.00000  -1.40803   1.23068
   6   0.00000  -0.72960   0.00000
   6   0.00000  -1.40803  -1.23068
   6   0.00000  -0.72903  -2.45062
   6   0.00000  -1.40719  -3.69353
   6   0.00000  -0.72786  -4.89977
   6   0.00000  -1.40914  -6.16367
   6   0.00000  -0.71657  -7.33517
   6   0.00000   0.71657  -7.33517
   1   0.00000   2.49432  -6.16380
   1   0.00000   2.49277  -3.69433
   1   0.00000   2.49353  -1.23097
   1   0.00000   2.49353   1.23097
   1   0.00000   2.49277   3.69433
   1   0.00000   2.49432   6.16380
   1   0.00000   1.24565   8.28129
   1   0.00000  -1.24565   8.28129
   1   0.00000  -2.49432   6.16380
   1   0.00000  -2.49277   3.69433
   1   0.00000  -2.49353   1.23097
   1   0.00000  -2.49353  -1.23097
   1   0.00000  -2.49277  -3.69433
   1   0.00000  -2.49432  -6.16380
   1   0.00000  -1.24565  -8.28129
   1   0.00000   1.24565  -8.28129
 initial cartes coords mol 2
   6   0.00000   1.39999  -6.18665
   6   0.00000   0.72497  -4.93016
   6   0.00000   1.40160  -3.70571
   6   0.00000   0.73063  -2.46837
   6   0.00000   1.40402  -1.23440
   6   0.00000   0.73291   0.00000
   6   0.00000   1.40402   1.23440
   6   0.00000   0.73063   2.46837
   6   0.00000   1.40160   3.70571
[...]
                -0.5331    28.4         109 B1u  1637.
 109 B1u  1671.  0.5362    28.7   100.4 107 B1u  1590.
                 0.8424    71.0         109 B1u  1637.
 110 B3g  1676.  0.9950    99.0   100.4 110 B3g  1641.
 111 B3g  3155. -0.9508    90.4   100.0 111 B3g  3127.
 112 B1u  3155. -0.9243    85.4   100.0 112 B1u  3127.
                 0.3717    13.8         116 B1u  3131.
 113 B2u  3156.  0.9926    98.5   100.0 114 B2u  3129.
 114 B3g  3156.  0.9592    92.0   100.0 113 B3g  3129.
 115 Ag   3157.  0.9766    95.4   100.0 115 Ag   3130.
 116 B1u  3158.  0.3763    14.2   100.0 112 B1u  3127.
                 0.9252    85.6         116 B1u  3131.
 117 B3g  3159.  0.9804    96.1   100.0 118 B3g  3133.
 118 B2u  3159.  0.9631    92.8   100.0 117 B2u  3132.
 119 B1u  3161. -0.9949    99.0   100.0 120 B1u  3136.
 120 Ag   3161. -0.9792    95.9   100.0 119 Ag   3134.
 121 B2u  3162.  0.9587    91.9   100.0 121 B2u  3137.
 122 Ag   3164. -0.9929    98.6   100.0 122 Ag   3140.
 123 B3g  3176.  0.9996    99.9   100.0 123 B3g  3150.
 124 B1u  3176.  0.9995    99.9   100.0 124 B1u  3150.
 125 B2u  3188.  0.9999   100.0   100.0 125 B2u  3166.
 126 Ag   3188.  0.9998   100.0   100.0 126 Ag   3166.
 nber times 1st assigned=           1           0
 nber times 1st assigned=           2           0
 nber times 1st assigned=           3           0
 nber times 1st assigned=           4           0
 nber times 1st assigned=           5           0
 nber times 1st assigned=           6           0
 nber times 1st assigned=           7           0
 nber times 1st assigned=           8           0
 nber times 1st assigned=           9           0
 nber times 1st assigned=          10           0
 nber times 1st assigned=          11           0
 nber times 1st assigned=          12           0
 nber times 1st assigned=          13           0
 nber times 1st assigned=          14           0
 nber times 1st assigned=          15           0
 nber times 1st assigned=          16           0
 nber times 1st assigned=          17           0
 nber times 1st assigned=          18           0
 nber times 1st assigned=          19           0
 nber times 1st assigned=          20           0
 nber times 1st assigned=          21           0
 nber times 1st assigned=          22           0
 nber times 1st assigned=          23           0
 nber times 1st assigned=          24           0
 nber times 1st assigned=          25           0
 nber times 1st assigned=          26           0
 nber times 1st assigned=          27           0
 nber times 1st assigned=          28           0
 nber times 1st assigned=          29           0
 nber times 1st assigned=          30           0
 nber times 1st assigned=          31           0
 nber times 1st assigned=          32           0
 nber times 1st assigned=          33           0
 nber times 1st assigned=          34           0
 nber times 1st assigned=          35           0
 nber times 1st assigned=          36           0
 nber times 1st assigned=          37           0
 nber times 1st assigned=          38           0
 nber times 1st assigned=          39           0
 nber times 1st assigned=          40           0
 nber times 1st assigned=          41           0
 nber times 1st assigned=          42           0
 nber times 1st assigned=          43           0
 nber times 1st assigned=          44           0
 nber times 1st assigned=          45           0
 nber times 1st assigned=          46           0
 nber times 1st assigned=          47           0
 nber times 1st assigned=          48           0
 nber times 1st assigned=          49           0
 nber times 1st assigned=          50           0
 nber times 1st assigned=          51           0
 nber times 1st assigned=          52           0
 nber times 1st assigned=          53           0
 nber times 1st assigned=          54           0
 nber times 1st assigned=          55           0
 nber times 1st assigned=          56           0
 nber times 1st assigned=          57           0
 nber times 1st assigned=          58           0
 nber times 1st assigned=          59           0
 nber times 1st assigned=          60           0
 nber times 1st assigned=          61           0
 nber times 1st assigned=          62           0
 nber times 1st assigned=          63           0
 nber times 1st assigned=          64           0
 nber times 1st assigned=          65           0
 nber times 1st assigned=          66           0
 nber times 1st assigned=          67           0
 nber times 1st assigned=          68           0
 nber times 1st assigned=          69           0
 nber times 1st assigned=          70           0
 nber times 1st assigned=          71           0
 nber times 1st assigned=          72           0
 nber times 1st assigned=          73           0
 nber times 1st assigned=          74           0
 nber times 1st assigned=          75           0
 nber times 1st assigned=          76           0
 nber times 1st assigned=          77           0
 nber times 1st assigned=          78           0
 nber times 1st assigned=          79           0
 nber times 1st assigned=          80           0
 nber times 1st assigned=          81           0
 nber times 1st assigned=          82           0
 nber times 1st assigned=          83           0
 nber times 1st assigned=          84           0
 nber times 1st assigned=          85           0
 nber times 1st assigned=          86           0
 nber times 1st assigned=          87           0
 nber times 1st assigned=          88           0
 nber times 1st assigned=          89           0
 nber times 1st assigned=          90           0
 nber times 1st assigned=          91           0
 nber times 1st assigned=          92           0
 nber times 1st assigned=          93           0
 nber times 1st assigned=          94           0
 nber times 1st assigned=          95           0
 nber times 1st assigned=          96           0
 nber times 1st assigned=          97           0
 nber times 1st assigned=          98           0
 nber times 1st assigned=          99           0
 nber times 1st assigned=         100           0
 nber times 1st assigned=         101           0
 nber times 1st assigned=         102           0
 nber times 1st assigned=         103           0
 nber times 1st assigned=         104           0
 nber times 1st assigned=         105           0
 nber times 1st assigned=         106           0
 nber times 1st assigned=         107           0
 nber times 1st assigned=         108           0
 nber times 1st assigned=         109           0
 nber times 1st assigned=         110           0
 nber times 1st assigned=         111           0
 nber times 1st assigned=         112           0
 nber times 1st assigned=         113           0
 nber times 1st assigned=         114           0
 nber times 1st assigned=         115           0
 nber times 1st assigned=         116           0
 nber times 1st assigned=         117           0
 nber times 1st assigned=         118           0
 nber times 1st assigned=         119           0
 nber times 1st assigned=         120           0
 nber times 1st assigned=         121           0
 nber times 1st assigned=         122           0
 nber times 1st assigned=         123           0
 nber times 1st assigned=         124           0
 nber times 1st assigned=         125           0
 nber times 1st assigned=         126           0
 modes represented=   119.869504867481     
 p1=
   -0.    0.    0.   -0.    0.   -0.   -0.    0.   -0.    0.   -0.    0.    0.    0.    0.  -17.   -0.   -0.    0.   -0.
    0.    0.    0.   -0.   -0.   -0.    0.    0.   -0.   -0.   -0.   -0.    0.   -2.   -0.    1.   -0.   -0.    0.   -0.
   -0.   -0.   -0.    1.    0.   -2.    0.   -0.   -0.    0.    0.    0.   -0.    0.   -0.    0.   -0.   -0.   -0.    0.
   -0.    0.    0.    0.    0.   -0.    0.   -0.   -0.    1.    0.   -0.   -0.    2.    0.    2.   -0.    0.    0.   -0.
   -0.   -0.   -0.   -0.   -0.    0.   -0.    0.   -0.   -0.   -3.    0.   -0.    0.    1.    0.    0.    1.   -0.   -0.
    1.    0.   -0.   -0.    0.   -0.   -0.   -0.   -0.    0.    0.    0.   -0.    0.    0.    0.   -0.    0.   -0.    0.
   -0.   -0.   -0.   -0.   -0.    0.
 p2=
   -0.   -0.   -0.    0.   -0.   -0.   -0.   -0.   -0.   -0.    0.   -0.    0.   -0.  -17.    0.   -0.    0.    0.   -0.
    0.    0.   -0.   -0.    0.   -0.    0.   -0.   -0.    0.    0.   -0.   -0.    2.    0.    0.    1.   -0.   -0.   -0.
    0.   -0.   -0.    0.    1.    0.    0.   -2.    0.    0.    0.   -0.   -0.    0.    0.    0.    0.   -0.   -0.    0.
    0.   -0.    0.   -0.    0.   -0.   -0.    0.   -0.   -0.   -0.   -0.   -0.   -2.   -0.   -0.   -0.    2.   -0.    0.
    0.    0.   -0.    0.    0.   -0.   -0.    0.    0.   -0.    0.   -0.    0.   -3.   -2.   -0.   -0.    1.    0.   -0.
   -0.    1.   -0.   -0.   -0.    0.    0.    0.    0.    0.    0.   -0.    0.   -0.    0.    0.    0.    0.    0.   -0.
    0.   -0.   -0.    0.    0.   -0.

 Displacement: in terms of nc of 1 THEN of nc of 2

   1 B1u freq=    -0. Q= -0.000 lam=    -0.0 B3g freq=    -0. Q= -0.000 lam=    -0.0
   2 B3u freq=    -0. Q=  0.000 lam=    -0.0 B2g freq=    -0. Q=  0.000 lam=    -0.0
   3 B2g freq=    -0. Q=  0.000 lam=    -0.0 B1g freq=     0. Q=  0.000 lam=     0.0
   4 B1g freq=     0. Q= -0.000 lam=     0.0 B3u freq=     0. Q= -0.000 lam=     0.0
   5 B2u freq=     0. Q=  0.000 lam=     0.0 B1u freq=     0. Q=  0.000 lam=     0.0
   6 B3g freq=     0. Q= -0.000 lam=     0.0 B2u freq=     0. Q= -0.000 lam=     0.0
   7 B3u freq=    26. Q= -0.000 lam=     0.0 B3u freq=    27. Q= -0.000 lam=     0.0
   8 Au  freq=    59. Q=  0.000 lam=     0.0 Au  freq=    57. Q=  0.000 lam=     0.0
   9 B1g freq=    72. Q= -0.000 lam=     0.0 B1g freq=    74. Q= -0.000 lam=     0.0
  10 B1u freq=    90. Q=  0.000 lam=     0.0 B1u freq=    89. Q=  0.000 lam=     0.0
  11 B2g freq=   122. Q= -0.000 lam=     0.0 B2g freq=   122. Q= -0.000 lam=     0.0
  12 B3u freq=   140. Q=  0.000 lam=     0.0 B3u freq=   143. Q=  0.000 lam=     0.0
  13 B3g freq=   190. Q=  0.000 lam=     0.0 B3g freq=   188. Q=  0.000 lam=     0.0
  14 Au  freq=   193. Q=  0.000 lam=     0.0 Au  freq=   194. Q=  0.000 lam=     0.0
  15 B1g freq=   224. Q=  0.000 lam=     0.0 Ag  freq=   224. Q=  1.041 lam=   121.5
  16 Ag  freq=   225. Q= -1.043 lam=   122.3 B1g freq=   225. Q= -0.000 lam=     0.0
  17 B2g freq=   277. Q= -0.000 lam=     0.0 B2g freq=   275. Q= -0.000 lam=     0.0
  18 B1u freq=   296. Q= -0.000 lam=     0.0 B1u freq=   294. Q= -0.000 lam=     0.0
  19 B3u freq=   308. Q=  0.000 lam=     0.0 B3u freq=   325. Q=  0.000 lam=     0.0
  20 Au  freq=   370. Q= -0.000 lam=     0.0 Au  freq=   346. Q= -0.000 lam=     0.0
  21 B1g freq=   377. Q=  0.000 lam=     0.0 B1g freq=   358. Q=  0.000 lam=     0.0
  22 B3g freq=   392. Q=  0.000 lam=     0.0 B3g freq=   391. Q=  0.000 lam=     0.0
  23 B2u freq=   428. Q=  0.000 lam=     0.0 B2u freq=   426. Q=  0.000 lam=     0.0
  24 B3u freq=   467. Q= -0.000 lam=     0.0 B3u freq=   458. Q= -0.000 lam=     0.0
  25 B1g freq=   469. Q= -0.000 lam=     0.0 B1g freq=   463. Q= -0.000 lam=     0.0
  26 B3u freq=   472. Q= -0.000 lam=     0.0 B3u freq=   465. Q= -0.000 lam=     0.0
  27 B3u freq=   474. Q=  0.000 lam=     0.0 B3u freq=   470. Q=  0.000 lam=     0.0
  28 B1g freq=   476. Q=  0.000 lam=     0.0 B1g freq=   470. Q=  0.000 lam=     0.0
  29 B1u freq=   478. Q= -0.000 lam=     0.0 B1u freq=   478. Q= -0.000 lam=     0.0
  30 B3g freq=   494. Q= -0.000 lam=     0.0 B3g freq=   495. Q= -0.000 lam=     0.0
  31 B2g freq=   530. Q= -0.000 lam=     0.0 B2g freq=   555. Q= -0.000 lam=     0.0
  32 Au  freq=   546. Q= -0.000 lam=     0.0 Au  freq=   560. Q= -0.000 lam=     0.0
  33 B1u freq=   562. Q=  0.000 lam=     0.0 B1u freq=   567. Q=  0.000 lam=     0.0
  34 Ag  freq=   579. Q= -0.241 lam=    16.9 Ag  freq=   578. Q= -0.240 lam=    16.7
  35 B2u freq=   631. Q= -0.000 lam=     0.0 B2u freq=   631. Q= -0.000 lam=     0.0
  36 Ag  freq=   643. Q=  0.117 lam=     4.4 B2u freq=   640. Q=  0.000 lam=     0.0
  37 B2u freq=   648. Q= -0.000 lam=     0.0 Ag  freq=   640. Q= -0.118 lam=     4.4
  38 B3g freq=   672. Q= -0.000 lam=     0.0 B3g freq=   672. Q= -0.000 lam=     0.0
  39 B2g freq=   703. Q=  0.000 lam=     0.0 B2g freq=   704. Q=  0.000 lam=     0.0
  40 Au  freq=   739. Q= -0.000 lam=     0.0 Au  freq=   725. Q= -0.000 lam=     0.0
  41 B2u freq=   743. Q= -0.000 lam=     0.0 B1g freq=   726. Q= -0.000 lam=     0.0
  42 B1g freq=   746. Q= -0.000 lam=     0.0 B3u freq=   730. Q= -0.000 lam=     0.0
  43 B3u freq=   749. Q= -0.000 lam=     0.0 B2g freq=   742. Q= -0.000 lam=     0.0
  44 Ag  freq=   757. Q=  0.113 lam=     4.8 B2u freq=   747. Q=  0.000 lam=     0.0
  45 B2g freq=   759. Q=  0.000 lam=     0.0 Ag  freq=   749. Q=  0.058 lam=     1.3
  46 Ag  freq=   761. Q= -0.214 lam=    17.5 Au  freq=   757. Q= -0.000 lam=     0.0
  47 Au  freq=   771. Q=  0.000 lam=     0.0 B2g freq=   757. Q=  0.000 lam=     0.0
  48 B2g freq=   772. Q= -0.000 lam=     0.0 Ag  freq=   762. Q= -0.227 lam=    19.6
  49 B1u freq=   802. Q= -0.000 lam=     0.0 B1g freq=   775. Q= -0.000 lam=     0.0
  50 B1g freq=   824. Q=  0.000 lam=     0.0 Au  freq=   791. Q=  0.000 lam=     0.0
  51 B2u freq=   831. Q=  0.000 lam=     0.0 B1u freq=   801. Q=  0.000 lam=     0.0
  52 Au  freq=   839. Q=  0.000 lam=     0.0 B2g freq=   813. Q=  0.000 lam=     0.0
  53 B2g freq=   844. Q= -0.000 lam=     0.0 B3u freq=   818. Q= -0.000 lam=     0.0
  54 B3g freq=   846. Q=  0.000 lam=     0.0 Au  freq=   827. Q=  0.000 lam=     0.0
  55 Au  freq=   863. Q= -0.000 lam=     0.0 B2u freq=   831. Q= -0.000 lam=     0.0
  56 B3u freq=   866. Q=  0.000 lam=     0.0 B3g freq=   842. Q=  0.000 lam=     0.0
  57 B2g freq=   887. Q= -0.000 lam=     0.0 B2g freq=   844. Q= -0.000 lam=     0.0
  58 Ag  freq=   899. Q= -0.010 lam=     0.0 B1g freq=   851. Q= -0.000 lam=     0.0
  59 B1g freq=   901. Q= -0.000 lam=     0.0 B3u freq=   865. Q= -0.000 lam=     0.0
  60 Au  freq=   906. Q=  0.000 lam=     0.0 Au  freq=   867. Q=  0.000 lam=     0.0
  61 B2g freq=   915. Q= -0.000 lam=     0.0 B2g freq=   868. Q= -0.000 lam=     0.0
  62 B3u freq=   924. Q=  0.000 lam=     0.0 Ag  freq=   898. Q=  0.012 lam=     0.1
  63 B1u freq=   929. Q=  0.000 lam=     0.0 B1u freq=   924. Q=  0.000 lam=     0.0
  64 B3g freq=   933. Q=  0.000 lam=     0.0 B1g freq=   925. Q=  0.000 lam=     0.0
  65 B1g freq=   973. Q=  0.000 lam=     0.0 B3u freq=   925. Q=  0.000 lam=     0.0
  66 B3u freq=   973. Q= -0.000 lam=     0.0 B3g freq=   929. Q= -0.000 lam=     0.0
  67 Au  freq=   995. Q=  0.000 lam=     0.0 Au  freq=   947. Q=  0.000 lam=     0.0
  68 B2g freq=   995. Q= -0.000 lam=     0.0 B2g freq=   947. Q= -0.000 lam=     0.0
  69 B2u freq=  1015. Q= -0.000 lam=     0.0 B2u freq=  1027. Q= -0.000 lam=     0.0
  70 Ag  freq=  1016. Q=  0.068 lam=     2.3 Ag  freq=  1028. Q=  0.050 lam=     1.3
  71 B2u freq=  1121. Q=  0.000 lam=     0.0 B3g freq=  1136. Q=  0.000 lam=     0.0
  72 B3g freq=  1150. Q= -0.000 lam=     0.0 B1u freq=  1137. Q= -0.000 lam=     0.0
  73 B1u freq=  1152. Q= -0.000 lam=     0.0 B2u freq=  1160. Q= -0.000 lam=     0.0
  74 Ag  freq=  1183. Q=  0.252 lam=    37.6 Ag  freq=  1171. Q=  0.209 lam=    25.5
  75 B2u freq=  1187. Q=  0.000 lam=     0.0 B3g freq=  1177. Q=  0.000 lam=     0.0
  76 Ag  freq=  1198. Q=  0.300 lam=    53.9 B2u freq=  1179. Q=  0.000 lam=     0.0
  77 B3g freq=  1198. Q= -0.000 lam=     0.0 B1u freq=  1188. Q= -0.000 lam=     0.0
  78 B1u freq=  1205. Q=  0.000 lam=     0.0 Ag  freq=  1199. Q=  0.310 lam=    57.8
  79 B3g freq=  1216. Q=  0.000 lam=     0.0 B3g freq=  1208. Q=  0.000 lam=     0.0
  80 B2u freq=  1228. Q= -0.000 lam=     0.0 B2u freq=  1222. Q= -0.000 lam=     0.0
  81 B1u freq=  1261. Q= -0.000 lam=     0.0 B1u freq=  1264. Q= -0.000 lam=     0.0
  82 Ag  freq=  1271. Q= -0.025 lam=     0.4 Ag  freq=  1269. Q= -0.057 lam=     2.1
  83 B1u freq=  1294. Q= -0.000 lam=     0.0 B1u freq=  1285. Q= -0.000 lam=     0.0
  84 B3g freq=  1297. Q= -0.000 lam=     0.0 B3g freq=  1288. Q= -0.000 lam=     0.0
  85 B3g freq=  1305. Q= -0.000 lam=     0.0 B3g freq=  1294. Q= -0.000 lam=     0.0
  86 B1u freq=  1316. Q=  0.000 lam=     0.0 B1u freq=  1300. Q=  0.000 lam=     0.0
  87 B1u freq=  1327. Q= -0.000 lam=     0.0 B1u freq=  1314. Q= -0.000 lam=     0.0
  88 B2u freq=  1343. Q=  0.000 lam=     0.0 B2u freq=  1324. Q=  0.000 lam=     0.0
  89 B2u freq=  1351. Q= -0.000 lam=     0.0 B3g freq=  1366. Q= -0.000 lam=     0.0
  90 B3g freq=  1386. Q= -0.000 lam=     0.0 B2u freq=  1391. Q= -0.000 lam=     0.0
  91 Ag  freq=  1404. Q= -0.454 lam=   144.6 B2u freq=  1393. Q= -0.000 lam=     0.0
  92 Ag  freq=  1418. Q=  0.067 lam=     3.2 Ag  freq=  1399. Q=  0.031 lam=     0.7
  93 B2u freq=  1418. Q= -0.000 lam=     0.0 B2u freq=  1405. Q= -0.000 lam=     0.0
  94 B1u freq=  1421. Q=  0.000 lam=     0.0 Ag  freq=  1405. Q=  0.428 lam=   128.4
  95 Ag  freq=  1428. Q=  0.175 lam=    22.0 Ag  freq=  1411. Q=  0.268 lam=    50.8
  96 B2u freq=  1434. Q=  0.000 lam=     0.0 B1u freq=  1418. Q=  0.000 lam=     0.0
  97 B3g freq=  1475. Q=  0.000 lam=     0.0 B3g freq=  1465. Q=  0.000 lam=     0.0
  98 Ag  freq=  1476. Q=  0.112 lam=     9.3 Ag  freq=  1468. Q=  0.094 lam=     6.5
  99 B2u freq=  1488. Q= -0.000 lam=     0.0 B2u freq=  1491. Q= -0.000 lam=     0.0
 100 Ag  freq=  1530. Q= -0.010 lam=     0.1 Ag  freq=  1516. Q= -0.017 lam=     0.2
 101 Ag  freq=  1547. Q=  0.120 lam=    11.1 B3g freq=  1520. Q=  0.000 lam=     0.0
 102 B2u freq=  1556. Q=  0.000 lam=     0.0 Ag  freq=  1531. Q=  0.149 lam=    17.0
 103 B2u freq=  1575. Q= -0.000 lam=     0.0 B2u freq=  1534. Q= -0.000 lam=     0.0
 104 Ag  freq=  1578. Q= -0.066 lam=     3.4 B1u freq=  1548. Q= -0.000 lam=     0.0
 105 B1u freq=  1581. Q=  0.000 lam=     0.0 B2u freq=  1562. Q=  0.000 lam=     0.0
 106 B3g freq=  1615. Q= -0.000 lam=     0.0 Ag  freq=  1565. Q= -0.036 lam=     1.0
 107 B3g freq=  1629. Q= -0.000 lam=     0.0 B1u freq=  1590. Q= -0.000 lam=     0.0
 108 B1u freq=  1652. Q= -0.000 lam=     0.0 B3g freq=  1605. Q= -0.000 lam=     0.0
 109 B1u freq=  1671. Q= -0.000 lam=     0.0 B1u freq=  1637. Q= -0.000 lam=     0.0
 110 B3g freq=  1676. Q=  0.000 lam=     0.0 B3g freq=  1641. Q=  0.000 lam=     0.0
 111 B3g freq=  3155. Q=  0.000 lam=     0.0 B3g freq=  3127. Q=  0.000 lam=     0.0
 112 B1u freq=  3155. Q=  0.000 lam=     0.0 B1u freq=  3127. Q=  0.000 lam=     0.0
 113 B2u freq=  3156. Q= -0.000 lam=     0.0 B3g freq=  3129. Q= -0.000 lam=     0.0
 114 B3g freq=  3156. Q=  0.000 lam=     0.0 B2u freq=  3129. Q=  0.000 lam=     0.0
 115 Ag  freq=  3157. Q=  0.003 lam=     0.0 Ag  freq=  3130. Q=  0.003 lam=     0.0
 116 B1u freq=  3158. Q=  0.000 lam=     0.0 B1u freq=  3131. Q=  0.000 lam=     0.0
 117 B3g freq=  3159. Q= -0.000 lam=     0.0 B2u freq=  3132. Q= -0.000 lam=     0.0
 118 B2u freq=  3159. Q=  0.000 lam=     0.0 B3g freq=  3133. Q=  0.000 lam=     0.0
 119 B1u freq=  3161. Q= -0.000 lam=     0.0 Ag  freq=  3134. Q= -0.013 lam=     0.2
 120 Ag  freq=  3161. Q=  0.009 lam=     0.1 B1u freq=  3136. Q=  0.000 lam=     0.0
 121 B2u freq=  3162. Q= -0.000 lam=     0.0 B2u freq=  3137. Q= -0.000 lam=     0.0
 122 Ag  freq=  3164. Q= -0.040 lam=     2.5 Ag  freq=  3140. Q= -0.038 lam=     2.2
 123 B3g freq=  3176. Q= -0.000 lam=     0.0 B3g freq=  3150. Q= -0.000 lam=     0.0
 124 B1u freq=  3176. Q= -0.000 lam=     0.0 B1u freq=  3150. Q= -0.000 lam=     0.0
 125 B2u freq=  3188. Q= -0.000 lam=     0.0 B2u freq=  3166. Q= -0.000 lam=     0.0
 126 Ag  freq=  3188. Q=  0.036 lam=     2.1 Ag  freq=  3166. Q=  0.038 lam=     2.3

 total reorg energy (cm**-1, kcal/mol)=      458.      459.      1.31      1.31
 Nber of molecules processed=           2
