 Enter ifcurve (0=recti, 1=orth curvi, 2=apprx curvi, -1 = skip
 And atom ordering flag, 0= never changes, 1= use the first order thenceforth,
  2= deduce it (does read on fail), 3= always read it
 Reading file: 
 ./benz-b-imbal_1_C0S0.log                                                      
                                          
  Entering Gaussian System, Link 0=g16                                          
  
 Gaussian format, type: g94, g98, g03= F F F
  #P Geom=AllCheck Guess=TCheck SCRF=Check GenChk RB3LYP/6-311G(d,p) Fre    
 energy type= B3LYP   
 Original G94 input coords:
  6  1.210064  0.271192 -0.298905
  6  0.365761  1.056502  0.390102
  6 -1.105436  1.062693  0.265812
  6 -1.873392 -0.123387  0.397965
  6 -1.302611 -1.396796  0.718665
  6 -2.074619 -2.520046  0.830743
  6 -3.481451 -2.459652  0.634572
  6 -4.077193 -1.262205  0.363286
  6 -3.309903 -0.061132  0.252786
  6 -3.929657  1.167346  0.024243
  6 -3.195239  2.350530 -0.070068
  6 -3.836643  3.607345 -0.292242
  6 -3.112169  4.759304 -0.408575
  6 -1.694297  4.715663 -0.322485
  6 -1.043295  3.530451 -0.112975
  6 -1.759485  2.302278  0.042182
  6  2.674858  0.253791 -0.199577
  6  3.383679  0.865154  0.849397
  6  4.771784  0.833173  0.885804
  6  5.490691  0.183783 -0.118822
  6  4.804510 -0.438463 -1.158601
  6  3.414083 -0.406042 -1.194760
  1  0.792952 -0.407511 -1.038805
  1  0.781218  1.792988  1.073573
  1 -0.238116 -1.462630  0.893077
  1 -1.611585 -3.467422  1.083375
  1 -4.075846 -3.362430  0.718536
  1 -5.152502 -1.196561  0.234160
  1 -5.009857  1.204359 -0.077849
  1 -4.918753  3.625335 -0.369786
  1 -3.611278  5.706902 -0.576622
  1 -1.124585  5.631336 -0.434803
  1  0.038413  3.518424 -0.081786
  1  2.844139  1.354752  1.651833
  1  5.297634  1.309045  1.706197
  1  6.573866  0.157823 -0.085091
  1  5.351733 -0.951274 -1.941739
  1  2.885880 -0.891759 -2.008807
 nber atoms=          38
  SCF Done:  E(RB3LYP) =  -848.179114830     A.U. after    1 cycles             
  
          23          40 "  -848.179114830"
After scan for Atom:   Atom  AN      X      Y      Z        X      Y      Z        X      Y      Z   
After scan for Atom:   Atom  AN      X      Y      Z        X      Y      Z        X      Y      Z   
After scan for Atom:   Atom  AN      X      Y      Z        X      Y      Z        X      Y      Z   
After scan for Atom:   Atom  AN      X      Y      Z        X      Y      Z        X      Y      Z   
After scan for Atom:   Atom  AN      X      Y      Z        X      Y      Z        X      Y      Z   
After scan for Atom:   Atom  AN      X      Y      Z        X      Y      Z        X      Y      Z   
After scan for Atom:   Atom  AN      X      Y      Z        X      Y      Z        X      Y      Z   
After scan for Atom:   Atom  AN      X      Y      Z        X      Y      Z        X      Y      Z   
After scan for Atom:   Atom  AN      X      Y      Z        X      Y      Z        X      Y      Z   
After scan for Atom:   Atom  AN      X      Y      Z        X      Y      Z        X      Y      Z   
After scan for Atom:   Atom  AN      X      Y      Z        X      Y      Z        X      Y      Z   
After scan for Atom:   Atom  AN      X      Y      Z        X      Y      Z        X      Y      Z   
After scan for Atom:   Atom  AN      X      Y      Z        X      Y      Z        X      Y      Z   
After scan for Atom:   Atom  AN      X      Y      Z        X      Y      Z        X      Y      Z   
After scan for Atom:   Atom  AN      X      Y      Z        X      Y      Z        X      Y      Z   
After scan for Atom:   Atom  AN      X      Y      Z        X      Y      Z        X      Y      Z   
After scan for Atom:   Atom  AN      X      Y      Z        X      Y      Z        X      Y      Z   
After scan for Atom:   Atom  AN      X      Y      Z        X      Y      Z        X      Y      Z   
After scan for Atom:   Atom  AN      X      Y      Z        X      Y      Z        X      Y      Z   
After scan for Atom:   Atom  AN      X      Y      Z        X      Y      Z        X      Y      Z   
After scan for Atom:   Atom  AN      X      Y      Z        X      Y      Z        X      Y      Z   
After scan for Atom:   Atom  AN      X      Y      Z        X      Y      Z        X      Y      Z   
After scan for Atom:   Atom  AN      X      Y      Z        X      Y      Z        X      Y      Z   
After scan for Atom:   Atom  AN      X      Y      Z        X      Y      Z        X      Y      Z   
After scan for Atom:   Atom  AN      X      Y      Z        X      Y      Z        X      Y      Z   
After scan for Atom:   Atom  AN      X      Y      Z        X      Y      Z        X      Y      Z   
After scan for Atom:   Atom  AN      X      Y      Z        X      Y      Z        X      Y      Z   
After scan for Atom:   Atom  AN      X      Y      Z        X      Y      Z        X      Y      Z   
After scan for Atom:   Atom  AN      X      Y      Z        X      Y      Z        X      Y      Z   
After scan for Atom:   Atom  AN      X      Y      Z        X      Y      Z        X      Y      Z   
After scan for Atom:   Atom  AN      X      Y      Z        X      Y      Z        X      Y      Z   
After scan for Atom:   Atom  AN      X      Y      Z        X      Y      Z        X      Y      Z   
After scan for Atom:   Atom  AN      X      Y      Z        X      Y      Z        X      Y      Z   
After scan for Atom:   Atom  AN      X      Y      Z        X      Y      Z        X      Y      Z   
After scan for Atom:   Atom  AN      X      Y      Z        X      Y      Z        X      Y      Z   
After scan for Atom:   Atom  AN      X      Y      Z        X      Y      Z        X      Y      Z   
 g94    frequencies=
     0.0    0.0    0.0    0.0    0.0    0.0   24.8   39.8   45.9   82.4
    94.5  124.2  139.3  174.1  235.3  246.2  264.7  304.1  340.7  387.2
   398.3  413.5  423.7  440.6  485.1  505.7  506.1  548.6  558.9  579.8
   612.4  623.7  635.1  654.0  670.4  706.3  724.8  749.0  757.3  764.5
   771.2  799.3  838.7  849.3  854.4  867.6  868.1  892.6  894.9  901.7
   928.8  949.8  969.8  976.2  977.4  994.5  996.6 1000.4 1009.5 1015.7
  1040.3 1042.1 1050.1 1077.7 1105.5 1128.4 1168.0 1182.5 1183.8 1198.4
  1203.4 1204.6 1231.1 1248.2 1282.1 1283.1 1308.4 1329.2 1346.1 1352.4
  1359.1 1376.7 1400.2 1415.4 1434.7 1476.9 1480.7 1481.0 1518.2 1527.6
  1556.3 1592.7 1613.7 1616.0 1641.9 1657.5 1668.1 1681.4 3126.8 3140.1
  3155.1 3157.1 3158.3 3160.0 3163.0 3168.8 3169.1 3172.8 3180.8 3183.8
  3184.4 3189.8 3198.2 3213.2
 g94    symmetries=
                                                 A      A      A      A
       A      A      A      A      A      A      A      A      A      A
       A      A      A      A      A      A      A      A      A      A
       A      A      A      A      A      A      A      A      A      A
       A      A      A      A      A      A      A      A      A      A
       A      A      A      A      A      A      A      A      A      A
       A      A      A      A      A      A      A      A      A      A
       A      A      A      A      A      A      A      A      A      A
       A      A      A      A      A      A      A      A      A      A
       A      A      A      A      A      A      A      A      A      A
       A      A      A      A      A      A      A      A      A      A
       A      A      A      A
 atomic masses:
 12.0000 12.0000 12.0000 12.0000 12.0000 12.0000 12.0000 12.0000 12.0000 12.0000
 12.0000 12.0000 12.0000 12.0000 12.0000 12.0000 12.0000 12.0000 12.0000 12.0000
 12.0000 12.0000  1.0078  1.0078  1.0078  1.0078  1.0078  1.0078  1.0078  1.0078
  1.0078  1.0078  1.0078  1.0078  1.0078  1.0078  1.0078  1.0078
 looking for force constants in 
 ./benz-b-imbal_1_C0S0.fchk                                                     
  
 Cartesian Force Constants                  R   N=        6555                  
  
 n3=         114        6555
 g94-fc frequencies=
    -0.0    0.0    0.0    1.2    1.9    3.0   24.8   39.8   45.9   82.4
    94.5  124.2  139.3  174.1  235.3  246.2  264.7  304.1  340.7  387.2
   398.3  413.5  423.7  440.6  485.1  505.7  506.1  548.6  559.0  579.8
   612.4  623.7  635.1  654.0  670.4  706.3  724.8  749.0  757.3  764.5
   771.2  799.3  838.7  849.3  854.5  867.6  868.1  892.6  894.9  901.7
   928.8  949.8  969.9  976.2  977.5  994.5  996.7 1000.5 1009.5 1015.7
  1040.3 1042.1 1050.2 1077.7 1105.5 1128.5 1168.0 1182.5 1183.8 1198.4
  1203.4 1204.6 1231.1 1248.2 1282.1 1283.1 1308.4 1329.2 1346.1 1352.4
  1359.1 1376.7 1400.3 1415.4 1434.7 1476.9 1480.8 1481.0 1518.2 1527.6
  1556.3 1592.8 1613.7 1616.0 1642.0 1657.6 1668.2 1681.4 3126.9 3140.2
  3155.2 3157.1 3158.4 3160.1 3163.1 3168.8 3169.2 3172.9 3180.9 3183.8
  3184.5 3189.9 3198.3 3213.3
 at 99999: n3=         114
 symm operator            1 :  F  nop=           0
 symm operator            2 :  F  nop=           0
 symm operator            3 :  F  nop=           0
 symm operator            4 :  F  nop=           0
 symm operator            5 :  F  nop=           0
 symm operator            6 :  F  nop=           0
 symm operator            7 :  F  nop=           0
 The point group of the molecule is  C1
 Symmetry rotation matrix:
   1.00000   0.00000   0.00000
   0.00000   1.00000   0.00000
   0.00000   0.00000   1.00000

 Projecting out zero-frequency components
 generating redundant internal coords
         300        3600          38
 search for int coords
   1 str   2   1   1.343
   2 str   3   2   1.476
   3 str   4   3   1.419
   4 str   5   4   1.432
   5 str   6   5   1.368
   6 str   7   6   1.422
   7 str   8   7   1.365
   8 str   9   4   1.445
   9 str   9   8   1.430
  10 str  10   9   1.395
  11 str  11  10   1.396
  12 str  12  11   1.428
  13 str  13  12   1.366
  14 str  14  13   1.421
  15 str  15  14   1.368
  16 str  16   3   1.419
  17 str  16  11   1.441
  18 str  16  15   1.430
  19 str  17   1   1.468
  20 str  18  17   1.406
  21 str  19  18   1.389
  22 str  20  19   1.396
  23 str  21  20   1.393
  24 str  22  17   1.404
  25 str  22  21   1.391
  26 str  23   1   1.087
  27 str  24   2   1.087
  28 str  25   5   1.081
  29 str  26   6   1.084
  30 str  27   7   1.084
  31 str  28   8   1.085
  32 str  29  10   1.086
  33 str  30  12   1.085
  34 str  31  13   1.084
  35 str  32  14   1.084
  36 str  33  15   1.082
  37 str  34  18   1.084
  38 str  35  19   1.084
  39 str  36  20   1.084
  40 str  37  21   1.084
  41 str  38  22   1.085
 nber stretches=          41
  42 ben   1   2   3
  43 prop tor   1   2   3   4
  44 prop tor   1   2   3  16
  45 ben   1   2  24
  46 ben   1  17  18
  47 prop tor   1  17  18  19
  48 prop tor   1  17  18  34
  49 ben   1  17  22
  50 prop tor   1  17  22  21
  51 prop tor   1  17  22  38
  52 ben   2   1  17
  53 prop tor   2   1  17  18
  54 prop tor   2   1  17  22
  55 ben   2   1  23
  56 ben   2   3   4
  57 prop tor   2   3   4   5
  58 prop tor   2   3   4   9
  59 ben   2   3  16
  60 prop tor   2   3  16  11
  61 prop tor   2   3  16  15
  62 ben   3   2  24
  63 ben   3   4   5
  64 prop tor   3   4   5   6
  65 prop tor   3   4   5  25
  66 ben   3   4   9
  67 prop tor   3   4   9   8
  68 prop tor   3   4   9  10
  69 ben   3  16  11
  70 ben   3  16  15
  71 ben   4   3  16
  72 prop tor   4   3  16  11
  73 prop tor   4   3  16  15
  74 ben   4   5   6
  75 prop tor   4   5   6   7
  76 prop tor   4   5   6  26
  77 ben   4   5  25
  78 ben   4   9   8
  79 ben   4   9  10
  80 prop tor   4   9  10  11
  81 prop tor   4   9  10  29
  82 ben   5   4   9
  83 prop tor   5   4   9   8
  84 prop tor   5   4   9  10
  85 ben   5   6   7
  86 prop tor   5   6   7   8
  87 prop tor   5   6   7  27
  88 ben   5   6  26
  89 ben   6   5  25
  90 ben   6   7   8
  91 prop tor   6   7   8   9
  92 prop tor   6   7   8  28
  93 ben   6   7  27
  94 ben   7   6  26
  95 ben   7   8   9
  96 prop tor   7   8   9   4
  97 prop tor   7   8   9  10
  98 ben   7   8  28
  99 ben   8   7  27
 100 ben   8   9  10
 101 prop tor   8   9  10  11
 102 prop tor   8   9  10  29
 103 prop tor   9   4   5   6
 104 prop tor   9   4   5  25
 105 ben   9   8  28
 106 ben   9  10  11
 107 prop tor   9  10  11  12
 108 prop tor   9  10  11  16
 109 ben   9  10  29
 110 ben  10  11  12
 111 prop tor  10  11  12  13
 112 prop tor  10  11  12  30
 113 ben  10  11  16
 114 prop tor  10  11  16   3
 115 prop tor  10  11  16  15
 116 ben  11  10  29
 117 ben  11  12  13
 118 prop tor  11  12  13  14
 119 prop tor  11  12  13  31
 120 ben  11  12  30
 121 ben  11  16  15
 122 ben  12  11  16
 123 prop tor  12  11  16   3
 124 prop tor  12  11  16  15
 125 ben  12  13  14
 126 prop tor  12  13  14  15
 127 prop tor  12  13  14  32
 128 ben  12  13  31
 129 ben  13  12  30
 130 ben  13  14  15
 131 prop tor  13  14  15  16
 132 prop tor  13  14  15  33
 133 ben  13  14  32
 134 ben  14  13  31
 135 ben  14  15  16
 136 prop tor  14  15  16   3
 137 prop tor  14  15  16  11
 138 ben  14  15  33
 139 ben  15  14  32
 140 prop tor  16   3   4   5
 141 prop tor  16   3   4   9
 142 prop tor  16  11  12  13
 143 prop tor  16  11  12  30
 144 ben  16  15  33
 145 prop tor  17   1   2   3
 146 prop tor  17   1   2  24
 147 ben  17   1  23
 148 ben  17  18  19
 149 prop tor  17  18  19  20
 150 prop tor  17  18  19  35
 151 ben  17  18  34
 152 ben  17  22  21
 153 ben  17  22  38
 154 ben  18  17  22
 155 prop tor  18  17  22  21
 156 prop tor  18  17  22  38
 157 ben  18  19  20
 158 prop tor  18  19  20  21
 159 prop tor  18  19  20  36
 160 ben  18  19  35
 161 ben  19  18  34
 162 ben  19  20  21
 163 prop tor  19  20  21  22
 164 prop tor  19  20  21  37
 165 ben  19  20  36
 166 ben  20  19  35
 167 ben  20  21  22
 168 prop tor  20  21  22  17
 169 prop tor  20  21  22  38
 170 ben  20  21  37
 171 ben  21  20  36
 172 ben  21  22  38
 173 prop tor  22  17  18  19
 174 prop tor  22  17  18  34
 175 ben  22  21  37
 176 prop tor  23   1   2   3
 177 prop tor  23   1   2  24
 178 prop tor  23   1  17  18
 179 prop tor  23   1  17  22
 180 prop tor  24   2   3   4
 181 prop tor  24   2   3  16
 182 prop tor  25   5   6   7
 183 prop tor  25   5   6  26
 184 prop tor  26   6   7   8
 185 prop tor  26   6   7  27
 186 prop tor  27   7   8   9
 187 prop tor  27   7   8  28
 188 prop tor  28   8   9   4
 189 prop tor  28   8   9  10
 190 prop tor  29  10  11  12
 191 prop tor  29  10  11  16
 192 prop tor  30  12  13  14
 193 prop tor  30  12  13  31
 194 prop tor  31  13  14  15
 195 prop tor  31  13  14  32
 196 prop tor  32  14  15  16
 197 prop tor  32  14  15  33
 198 prop tor  33  15  16   3
 199 prop tor  33  15  16  11
 200 prop tor  34  18  19  20
 201 prop tor  34  18  19  35
 202 prop tor  35  19  20  21
 203 prop tor  35  19  20  36
 204 prop tor  36  20  21  22
 205 prop tor  36  20  21  37
 206 prop tor  37  21  22  17
 207 prop tor  37  21  22  38
 nber bend=              66
 nber lin bend=           0
 nber prop tor=         100
 nber impr tor=           0
 nber tot redund int=         207
 Eigenvalues of G in red int coords
    Gval -0.00000000 -0.00000000 -0.00000000 -0.00000000 -0.00000000 -0.00000000 -0.00000000 -0.00000000
    Gval -0.00000000 -0.00000000 -0.00000000 -0.00000000 -0.00000000 -0.00000000 -0.00000000 -0.00000000
    Gval -0.00000000 -0.00000000 -0.00000000 -0.00000000 -0.00000000 -0.00000000 -0.00000000 -0.00000000
    Gval -0.00000000 -0.00000000 -0.00000000 -0.00000000 -0.00000000 -0.00000000 -0.00000000 -0.00000000
    Gval -0.00000000 -0.00000000 -0.00000000 -0.00000000 -0.00000000 -0.00000000 -0.00000000 -0.00000000
    Gval -0.00000000 -0.00000000 -0.00000000 -0.00000000 -0.00000000 -0.00000000 -0.00000000 -0.00000000
    Gval -0.00000000 -0.00000000  0.00000000  0.00000000  0.00000000  0.00000000  0.00000000  0.00000000
    Gval  0.00000000  0.00000000  0.00000000  0.00000000  0.00000000  0.00000000  0.00000000  0.00000000
    Gval  0.00000000  0.00000000  0.00000000  0.00000000  0.00000000  0.00000000  0.00000000  0.00000000
    Gval  0.00000000  0.00000000  0.00000000  0.00000000  0.00000000  0.00000000  0.00000000  0.00000000
    Gval  0.00000000  0.00000000  0.00000000  0.00000000  0.00000000  0.00000000  0.00000000  0.00000000
    Gval  0.00000000  0.00000000  0.00000000  0.00000000  0.00000000  0.00000000  0.00000000  0.00000000
    Gval  0.00000000  0.00000000  0.00000000  0.00000087  0.00000239  0.00000289  0.00000926  0.00000953
    Gval  0.00001010  0.00001405  0.00002029  0.00002837  0.00002950  0.00003405  0.00003859  0.00004516
    Gval  0.00004944  0.00005466  0.00005539  0.00005649  0.00006211  0.00006476  0.00007292  0.00007394
    Gval  0.00008119  0.00008233  0.00009255  0.00009812  0.00010518  0.00011287  0.00011849  0.00012214
    Gval  0.00012921  0.00013393  0.00015121  0.00017226  0.00019315  0.00021674  0.00022674  0.00024046
    Gval  0.00026228  0.00026994  0.00028058  0.00032224  0.00034534  0.00036353  0.00036621  0.00038048
    Gval  0.00038368  0.00041353  0.00041786  0.00045468  0.00045771  0.00052323  0.00058209  0.00059284
    Gval  0.00059306  0.00059315  0.00059316  0.00059691  0.00059703  0.00059766  0.00060429  0.00061391
    Gval  0.00061739  0.00062011  0.00063622  0.00065038  0.00065442  0.00065789  0.00066068  0.00076911
    Gval  0.00081349  0.00085175  0.00097863  0.00103565  0.00104908  0.00105227  0.00105367  0.00110787
    Gval  0.00111523  0.00111718  0.00112355  0.00113541  0.00114882  0.00116215  0.00116323  0.00116954
    Gval  0.00117113  0.00117153  0.00117228  0.00126108  0.00143077  0.00175128  0.00177708  0.00179616
    Gval  0.00179829  0.00219325  0.00233731  0.00263497  0.00265454  0.00276381  0.00311188  0.00313801
    Gval  0.00319571  0.00350288  0.00356416  0.00373199  0.00400265  0.00401011  0.00406664
  8.725648254912127E-007  8.725648254912127E-007
  2.388960753413672E-006  8.725648254912127E-007
  2.894435449764729E-006  8.725648254912127E-007
  9.255464167332637E-006  8.725648254912127E-007
  9.530758961669967E-006  8.725648254912127E-007
  1.010083208489170E-005  8.725648254912127E-007
  1.404975264103775E-005  8.725648254912127E-007
  2.029306161375602E-005  8.725648254912127E-007
  2.837326201017756E-005  8.725648254912127E-007
  2.949943636386316E-005  8.725648254912127E-007
  3.405260315138660E-005  8.725648254912127E-007
  3.858590406784426E-005  8.725648254912127E-007
  4.516424094879430E-005  8.725648254912127E-007
  4.944024342565400E-005  8.725648254912127E-007
  5.466435201407912E-005  8.725648254912127E-007
  5.539169646438474E-005  8.725648254912127E-007
  5.649487206572296E-005  8.725648254912127E-007
  6.211221218821842E-005  8.725648254912127E-007
  6.476411119294669E-005  8.725648254912127E-007
  7.291870568878980E-005  8.725648254912127E-007
  7.393605095604389E-005  8.725648254912127E-007
  8.119329937010360E-005  8.725648254912127E-007
  8.233147990688804E-005  8.725648254912127E-007
  9.255363772421228E-005  8.725648254912127E-007
  9.811838852392641E-005  8.725648254912127E-007
  1.051750707050957E-004  8.725648254912127E-007
  1.128698168714680E-004  8.725648254912127E-007
  1.184877134229599E-004  8.725648254912127E-007
  1.221396315079920E-004  8.725648254912127E-007
  1.292146957869066E-004  8.725648254912127E-007
  1.339291132046700E-004  8.725648254912127E-007
  1.512066861072870E-004  8.725648254912127E-007
  1.722568631245406E-004  8.725648254912127E-007
  1.931462141839379E-004  8.725648254912127E-007
  2.167418168165018E-004  8.725648254912127E-007
  2.267421379373902E-004  8.725648254912127E-007
  2.404588871144956E-004  8.725648254912127E-007
  2.622774648074206E-004  8.725648254912127E-007
  2.699383653783770E-004  8.725648254912127E-007
  2.805780986494816E-004  8.725648254912127E-007
  3.222420279997546E-004  8.725648254912127E-007
  3.453412512872344E-004  8.725648254912127E-007
  3.635330497550948E-004  8.725648254912127E-007
  3.662063166362510E-004  8.725648254912127E-007
  3.804800554756481E-004  8.725648254912127E-007
  3.836842270213757E-004  8.725648254912127E-007
  4.135278192449239E-004  8.725648254912127E-007
  4.178572877552059E-004  8.725648254912127E-007
  4.546799787973850E-004  8.725648254912127E-007
  4.577130477495882E-004  8.725648254912127E-007
  5.232330967276956E-004  8.725648254912127E-007
  5.820866373664270E-004  8.725648254912127E-007
  5.928399500780183E-004  8.725648254912127E-007
  5.930623240680987E-004  8.725648254912127E-007
  5.931494381260480E-004  8.725648254912127E-007
  5.931569840848203E-004  8.725648254912127E-007
  5.969112188155688E-004  8.725648254912127E-007
  5.970266651532151E-004  8.725648254912127E-007
  5.976599068092599E-004  8.725648254912127E-007
  6.042877951472470E-004  8.725648254912127E-007
  6.139096463579146E-004  8.725648254912127E-007
  6.173949822583086E-004  8.725648254912127E-007
  6.201134477365197E-004  8.725648254912127E-007
  6.362194235980016E-004  8.725648254912127E-007
  6.503807359611786E-004  8.725648254912127E-007
  6.544184296345763E-004  8.725648254912127E-007
  6.578918256728502E-004  8.725648254912127E-007
  6.606798872489569E-004  8.725648254912127E-007
  7.691140920075804E-004  8.725648254912127E-007
  8.134917223921118E-004  8.725648254912127E-007
  8.517460494128752E-004  8.725648254912127E-007
  9.786273278360430E-004  8.725648254912127E-007
  1.035650622648400E-003  8.725648254912127E-007
  1.049083670853930E-003  8.725648254912127E-007
  1.052271131389175E-003  8.725648254912127E-007
  1.053670314446386E-003  8.725648254912127E-007
  1.107872203106849E-003  8.725648254912127E-007
  1.115232576306319E-003  8.725648254912127E-007
  1.117178301870970E-003  8.725648254912127E-007
  1.123545002838130E-003  8.725648254912127E-007
  1.135413360563533E-003  8.725648254912127E-007
  1.148818546890740E-003  8.725648254912127E-007
  1.162151039481980E-003  8.725648254912127E-007
  1.163227537744231E-003  8.725648254912127E-007
  1.169544307940017E-003  8.725648254912127E-007
  1.171134786419505E-003  8.725648254912127E-007
  1.171534831681546E-003  8.725648254912127E-007
  1.172281190951309E-003  8.725648254912127E-007
  1.261077048336561E-003  8.725648254912127E-007
  1.430773539187227E-003  8.725648254912127E-007
  1.751277512071274E-003  8.725648254912127E-007
  1.777084764223912E-003  8.725648254912127E-007
  1.796160237119896E-003  8.725648254912127E-007
  1.798285350782473E-003  8.725648254912127E-007
  2.193250062917301E-003  8.725648254912127E-007
  2.337305110090770E-003  8.725648254912127E-007
  2.634974432771709E-003  8.725648254912127E-007
  2.654535619813719E-003  8.725648254912127E-007
  2.763812709123974E-003  8.725648254912127E-007
  3.111875723793164E-003  8.725648254912127E-007
  3.138006519729263E-003  8.725648254912127E-007
  3.195712923622683E-003  8.725648254912127E-007
  3.502879973263109E-003  8.725648254912127E-007
  3.564155622490240E-003  8.725648254912127E-007
  3.731993994755356E-003  8.725648254912127E-007
  4.002646781337801E-003  8.725648254912127E-007
  4.010105162391955E-003  8.725648254912127E-007
  4.066641254181312E-003  8.725648254912127E-007
 cut=1d-8, nber non-redundant internal coords=         108
 Check on Eigenvals of non-red overlap matrix:
  0.00000087  0.00000239  0.00000289  0.00000926  0.00000953  0.00001010  0.00001405  0.00002029
  0.00002837  0.00002950  0.00003405  0.00003859  0.00004516  0.00004944  0.00005466  0.00005539
  0.00005649  0.00006211  0.00006476  0.00007292  0.00007394  0.00008119  0.00008233  0.00009255
  0.00009812  0.00010518  0.00011287  0.00011849  0.00012214  0.00012921  0.00013393  0.00015121
  0.00017226  0.00019315  0.00021674  0.00022674  0.00024046  0.00026228  0.00026994  0.00028058
  0.00032224  0.00034534  0.00036353  0.00036621  0.00038048  0.00038368  0.00041353  0.00041786
  0.00045468  0.00045771  0.00052323  0.00058209  0.00059284  0.00059306  0.00059315  0.00059316
  0.00059691  0.00059703  0.00059766  0.00060429  0.00061391  0.00061739  0.00062011  0.00063622
  0.00065038  0.00065442  0.00065789  0.00066068  0.00076911  0.00081349  0.00085175  0.00097863
  0.00103565  0.00104908  0.00105227  0.00105367  0.00110787  0.00111523  0.00111718  0.00112355
  0.00113541  0.00114882  0.00116215  0.00116323  0.00116954  0.00117113  0.00117153  0.00117228
  0.00126108  0.00143077  0.00175128  0.00177708  0.00179616  0.00179829  0.00219325  0.00233731
  0.00263497  0.00265454  0.00276381  0.00311188  0.00313801  0.00319571  0.00350288  0.00356416
  0.00373199  0.00400265  0.00401011  0.00406664
 Checking for correct frequencies
 recalc frequencies=
    -0.0   -0.0   -0.0    0.0    0.0    0.0   24.8   39.8   45.9   82.4
    94.5  124.2  139.3  174.1  235.3  246.2  264.7  304.1  340.7  387.2
   398.3  413.5  423.7  440.6  485.1  505.7  506.1  548.6  559.0  579.8
   612.4  623.7  635.1  654.0  670.4  706.3  724.8  749.0  757.3  764.5
   771.2  799.3  838.7  849.3  854.5  867.6  868.1  892.6  894.9  901.7
   928.8  949.8  969.9  976.2  977.5  994.5  996.7 1000.5 1009.5 1015.7
  1040.3 1042.1 1050.2 1077.7 1105.5 1128.5 1168.0 1182.5 1183.8 1198.4
  1203.4 1204.6 1231.1 1248.2 1282.1 1283.1 1308.4 1329.2 1346.1 1352.4
  1359.1 1376.7 1400.3 1415.4 1434.7 1476.9 1480.8 1481.0 1518.2 1527.6
  1556.3 1592.8 1613.7 1616.0 1642.0 1657.6 1668.2 1681.4 3126.9 3140.2
  3155.2 3157.1 3158.4 3160.1 3163.1 3168.8 3169.2 3172.9 3180.9 3183.8
  3184.5 3189.9 3198.3 3213.3
 recalc symmetries=
                                                                       
                                                                       
                                                                       
                                                                       
                                                                       
                                                                       
                                                                       
                                                                       
                                                                       
                                                                       
                                                                       
                             
 recalc freqs check OK
 Zero-point lengths:
 10.0000 10.0000 10.0000 10.0000 10.0000 10.0000 49.8264 39.2970 36.5781 27.3106
 25.5036 22.2411 21.0070 18.7880 16.1617 15.7991 15.2378 14.2164 13.4305 12.5980
 12.4219 12.1908 12.0438 11.8107 11.2555 11.0243 11.0198 10.5841 10.4859 10.2956
 10.0179  9.9266  9.8369  9.6942  9.5748  9.3282  9.2083  9.0583  9.0084  8.9662
  8.9273  8.7688  8.5603  8.5067  8.4811  8.4164  8.4142  8.2977  8.2871  8.2558
  8.1347  8.0441  7.9605  7.9347  7.9295  7.8612  7.8528  7.8378  7.8025  7.7789
  7.6864  7.6795  7.6501  7.5518  7.4561  7.3800  7.2538  7.2092  7.2054  7.1613
  7.1464  7.1429  7.0655  7.0170  6.9236  6.9209  6.8536  6.7999  6.7571  6.7412
  6.7247  6.6815  6.6251  6.5895  6.5450  6.4508  6.4424  6.4419  6.3625  6.3429
  6.2841  6.2118  6.1714  6.1669  6.1180  6.0892  6.0698  6.0458  4.4334  4.4240
  4.4135  4.4121  4.4113  4.4101  4.4080  4.4040  4.4037  4.4012  4.3956  4.3936
  4.3932  4.3894  4.3837  4.3734
 highest evec of mol 1
 -0.0021 -0.0046 -0.0068
 -0.0004  0.0024  0.0003
  0.0022  0.0000  0.0001
 -0.0013  0.0062 -0.0013
  0.2771 -0.0122  0.0439
  0.0196 -0.0639  0.0152
 -0.0122 -0.0120  0.0003
 -0.0081  0.0010 -0.0010
 -0.0020  0.0005  0.0002
 -0.0003  0.0003 -0.0000
 -0.0001 -0.0001  0.0001
 -0.0008  0.0001 -0.0001
 -0.0005  0.0006 -0.0001
  0.0008  0.0014 -0.0002
  0.0046 -0.0000  0.0001
 -0.0003 -0.0007  0.0001
  0.0000  0.0002 -0.0001
  0.0001 -0.0000  0.0001
  0.0001  0.0001  0.0001
  0.0002  0.0000  0.0000
  0.0002 -0.0002 -0.0002
 -0.0004 -0.0005 -0.0007
  0.0118  0.0193  0.0200
 -0.0017 -0.0031 -0.0021
 -0.9200  0.0538 -0.1460
 -0.0844  0.1782 -0.0462
  0.0280  0.0400 -0.0035
  0.0246 -0.0017  0.0031
  0.0022 -0.0005 -0.0002
  0.0023 -0.0000  0.0002
  0.0012 -0.0023  0.0004
 -0.0028 -0.0046  0.0006
 -0.0147  0.0001 -0.0005
  0.0000  0.0000 -0.0000
 -0.0003 -0.0002 -0.0004
 -0.0006  0.0000 -0.0000
 -0.0006  0.0005  0.0008
  0.0014  0.0014  0.0024
 generating redundant internal coords
         300        3600          38
 Adding extra bonds for z output only
           6           6           6           6           6           6
           6           6           6           6           6           6
           6           6           6           6           6           6
           6           6           6           6           1           1
           1           1           1           1           1           1
           1           1           1           1           1           1
           1           1
 search for int coords
   1 str   2   1   1.343
   2 str   3   2   1.476
   3 str   4   3   1.419
   4 str   5   4   1.432
   5 str   6   5   1.368
   6 str   7   6   1.422
   7 str   8   7   1.365
   8 str   9   4   1.445
   9 str   9   8   1.430
  10 str  10   9   1.395
  11 str  11  10   1.396
  12 str  12  11   1.428
  13 str  13  12   1.366
  14 str  14  13   1.421
  15 str  15  14   1.368
  16 str  16   3   1.419
  17 str  16  11   1.441
  18 str  16  15   1.430
  19 str  17   1   1.468
  20 str  18  17   1.406
  21 str  19  18   1.389
  22 str  20  19   1.396
  23 str  21  20   1.393
  24 str  22  17   1.404
  25 str  22  21   1.391
  26 str  23   1   1.087
  27 str  24   2   1.087
  28 str  25   5   1.081
  29 str  26   6   1.084
  30 str  27   7   1.084
  31 str  28   8   1.085
  32 str  29  10   1.086
  33 str  30  12   1.085
  34 str  31  13   1.084
  35 str  32  14   1.084
  36 str  33  15   1.082
  37 str  34  18   1.084
  38 str  35  19   1.084
  39 str  36  20   1.084
  40 str  37  21   1.084
  41 str  38  22   1.085
 nber stretches=          41
  42 ben   1   2   3
  43 prop tor   1   2   3   4
  44 prop tor   1   2   3  16
  45 ben   1   2  24
  46 ben   1  17  18
  47 prop tor   1  17  18  19
  48 prop tor   1  17  18  34
  49 ben   1  17  22
  50 prop tor   1  17  22  21
  51 prop tor   1  17  22  38
  52 ben   2   1  17
  53 prop tor   2   1  17  18
  54 prop tor   2   1  17  22
  55 ben   2   1  23
  56 ben   2   3   4
  57 prop tor   2   3   4   5
  58 prop tor   2   3   4   9
  59 ben   2   3  16
  60 prop tor   2   3  16  11
  61 prop tor   2   3  16  15
  62 ben   3   2  24
  63 ben   3   4   5
  64 prop tor   3   4   5   6
  65 prop tor   3   4   5  25
  66 ben   3   4   9
  67 prop tor   3   4   9   8
  68 prop tor   3   4   9  10
  69 ben   3  16  11
  70 ben   3  16  15
  71 ben   4   3  16
  72 prop tor   4   3  16  11
  73 prop tor   4   3  16  15
  74 ben   4   5   6
  75 prop tor   4   5   6   7
  76 prop tor   4   5   6  26
  77 ben   4   5  25
  78 ben   4   9   8
  79 ben   4   9  10
  80 prop tor   4   9  10  11
  81 prop tor   4   9  10  29
  82 ben   5   4   9
  83 prop tor   5   4   9   8
  84 prop tor   5   4   9  10
  85 ben   5   6   7
  86 prop tor   5   6   7   8
  87 prop tor   5   6   7  27
  88 ben   5   6  26
  89 ben   6   5  25
  90 ben   6   7   8
  91 prop tor   6   7   8   9
  92 prop tor   6   7   8  28
  93 ben   6   7  27
  94 ben   7   6  26
  95 ben   7   8   9
  96 prop tor   7   8   9   4
  97 prop tor   7   8   9  10
  98 ben   7   8  28
  99 ben   8   7  27
 100 ben   8   9  10
 101 prop tor   8   9  10  11
 102 prop tor   8   9  10  29
 103 prop tor   9   4   5   6
 104 prop tor   9   4   5  25
 105 ben   9   8  28
 106 ben   9  10  11
 107 prop tor   9  10  11  12
 108 prop tor   9  10  11  16
 109 ben   9  10  29
 110 ben  10  11  12
 111 prop tor  10  11  12  13
 112 prop tor  10  11  12  30
 113 ben  10  11  16
 114 prop tor  10  11  16   3
 115 prop tor  10  11  16  15
 116 ben  11  10  29
 117 ben  11  12  13
 118 prop tor  11  12  13  14
 119 prop tor  11  12  13  31
 120 ben  11  12  30
 121 ben  11  16  15
 122 ben  12  11  16
 123 prop tor  12  11  16   3
 124 prop tor  12  11  16  15
 125 ben  12  13  14
 126 prop tor  12  13  14  15
 127 prop tor  12  13  14  32
 128 ben  12  13  31
 129 ben  13  12  30
 130 ben  13  14  15
 131 prop tor  13  14  15  16
 132 prop tor  13  14  15  33
 133 ben  13  14  32
 134 ben  14  13  31
 135 ben  14  15  16
 136 prop tor  14  15  16   3
 137 prop tor  14  15  16  11
 138 ben  14  15  33
 139 ben  15  14  32
 140 prop tor  16   3   4   5
 141 prop tor  16   3   4   9
 142 prop tor  16  11  12  13
 143 prop tor  16  11  12  30
 144 ben  16  15  33
 145 prop tor  17   1   2   3
 146 prop tor  17   1   2  24
 147 ben  17   1  23
 148 ben  17  18  19
 149 prop tor  17  18  19  20
 150 prop tor  17  18  19  35
 151 ben  17  18  34
 152 ben  17  22  21
 153 ben  17  22  38
 154 ben  18  17  22
 155 prop tor  18  17  22  21
 156 prop tor  18  17  22  38
 157 ben  18  19  20
 158 prop tor  18  19  20  21
 159 prop tor  18  19  20  36
 160 ben  18  19  35
 161 ben  19  18  34
 162 ben  19  20  21
 163 prop tor  19  20  21  22
 164 prop tor  19  20  21  37
 165 ben  19  20  36
 166 ben  20  19  35
 167 ben  20  21  22
 168 prop tor  20  21  22  17
 169 prop tor  20  21  22  38
 170 ben  20  21  37
 171 ben  21  20  36
 172 ben  21  22  38
 173 prop tor  22  17  18  19
 174 prop tor  22  17  18  34
 175 ben  22  21  37
 176 prop tor  23   1   2   3
 177 prop tor  23   1   2  24
 178 prop tor  23   1  17  18
 179 prop tor  23   1  17  22
 180 prop tor  24   2   3   4
 181 prop tor  24   2   3  16
 182 prop tor  25   5   6   7
 183 prop tor  25   5   6  26
 184 prop tor  26   6   7   8
 185 prop tor  26   6   7  27
 186 prop tor  27   7   8   9
 187 prop tor  27   7   8  28
 188 prop tor  28   8   9   4
 189 prop tor  28   8   9  10
 190 prop tor  29  10  11  12
 191 prop tor  29  10  11  16
 192 prop tor  30  12  13  14
 193 prop tor  30  12  13  31
 194 prop tor  31  13  14  15
 195 prop tor  31  13  14  32
 196 prop tor  32  14  15  16
 197 prop tor  32  14  15  33
 198 prop tor  33  15  16   3
 199 prop tor  33  15  16  11
 200 prop tor  34  18  19  20
 201 prop tor  34  18  19  35
 202 prop tor  35  19  20  21
 203 prop tor  35  19  20  36
 204 prop tor  36  20  21  22
 205 prop tor  36  20  21  37
 206 prop tor  37  21  22  17
 207 prop tor  37  21  22  38
 nber bend=              66
 nber lin bend=           0
 nber prop tor=         100
 nber impr tor=           0
 nber tot redund int=         207
 Reading file: 
 ./benz-b-imbal_1_C0S1.log                                                      
                                          
  Entering Gaussian System, Link 0=g16                                          
  
 Gaussian format, type: g94, g98, g03= F F F
  #P Geom=AllCheck Guess=TCheck SCRF=Check GenChk RB3LYP TD(FC,Read)/6-3    
 energy type= TD      
 Original G94 input coords:
  6  1.212727  0.081776 -0.093743
  6  0.373164  1.117830  0.247078
  6 -1.049702  1.119244  0.319427
  6 -1.831921 -0.105302  0.393189
  6 -1.329418 -1.317113  0.891905
  6 -2.090368 -2.494165  0.883809
  6 -3.393272 -2.481052  0.388050
  6 -3.946398 -1.284772 -0.054245
  6 -3.209460 -0.075726 -0.023278
  6 -3.807392  1.156278 -0.337701
  6 -3.142835  2.385271 -0.158021
  6 -3.815593  3.614875 -0.346046
  6 -3.180110  4.831661 -0.121521
  6 -1.851315  4.842332  0.297481
  6 -1.155845  3.639389  0.468195
  6 -1.756732  2.391602  0.233362
  6  2.653243  0.141846 -0.162150
  6  3.420743  1.220691  0.340396
  6  4.802481  1.223600  0.235860
  6  5.473897  0.154368 -0.364248
  6  4.738811 -0.926324 -0.855957
  6  3.356070 -0.934476 -0.753802
  1  0.775887 -0.859403 -0.408778
  1  0.848120  2.082794  0.378857
  1 -0.340183 -1.339544  1.329023
  1 -1.658823 -3.411516  1.267109
  1 -3.979053 -3.392697  0.361642
  1 -4.968295 -1.258837 -0.417634
  1 -4.850690  1.168385 -0.638465
  1 -4.850324  3.593135 -0.671282
  1 -3.717169  5.761575 -0.267810
  1 -1.346299  5.781413  0.491821
  1 -0.130888  3.691613  0.811468
  1  2.927102  2.051255  0.830791
  1  5.367090  2.061337  0.630626
  1  6.555041  0.161916 -0.441095
  1  5.249101 -1.763525 -1.319394
  1  2.791957 -1.776873 -1.140909
 nber atoms=          38
  Total Energy, E(TD-HF/TD-DFT) =  -848.081976630                               
  
          32          49 "  -848.081976630"
After scan for Atom:   Atom  AN      X      Y      Z        X      Y      Z        X      Y      Z   
After scan for Atom:   Atom  AN      X      Y      Z        X      Y      Z        X      Y      Z   
After scan for Atom:   Atom  AN      X      Y      Z        X      Y      Z        X      Y      Z   
After scan for Atom:   Atom  AN      X      Y      Z        X      Y      Z        X      Y      Z   
After scan for Atom:   Atom  AN      X      Y      Z        X      Y      Z        X      Y      Z   
After scan for Atom:   Atom  AN      X      Y      Z        X      Y      Z        X      Y      Z   
After scan for Atom:   Atom  AN      X      Y      Z        X      Y      Z        X      Y      Z   
After scan for Atom:   Atom  AN      X      Y      Z        X      Y      Z        X      Y      Z   
After scan for Atom:   Atom  AN      X      Y      Z        X      Y      Z        X      Y      Z   
After scan for Atom:   Atom  AN      X      Y      Z        X      Y      Z        X      Y      Z   
After scan for Atom:   Atom  AN      X      Y      Z        X      Y      Z        X      Y      Z   
After scan for Atom:   Atom  AN      X      Y      Z        X      Y      Z        X      Y      Z   
After scan for Atom:   Atom  AN      X      Y      Z        X      Y      Z        X      Y      Z   
After scan for Atom:   Atom  AN      X      Y      Z        X      Y      Z        X      Y      Z   
After scan for Atom:   Atom  AN      X      Y      Z        X      Y      Z        X      Y      Z   
After scan for Atom:   Atom  AN      X      Y      Z        X      Y      Z        X      Y      Z   
After scan for Atom:   Atom  AN      X      Y      Z        X      Y      Z        X      Y      Z   
After scan for Atom:   Atom  AN      X      Y      Z        X      Y      Z        X      Y      Z   
After scan for Atom:   Atom  AN      X      Y      Z        X      Y      Z        X      Y      Z   
After scan for Atom:   Atom  AN      X      Y      Z        X      Y      Z        X      Y      Z   
After scan for Atom:   Atom  AN      X      Y      Z        X      Y      Z        X      Y      Z   
After scan for Atom:   Atom  AN      X      Y      Z        X      Y      Z        X      Y      Z   
After scan for Atom:   Atom  AN      X      Y      Z        X      Y      Z        X      Y      Z   
After scan for Atom:   Atom  AN      X      Y      Z        X      Y      Z        X      Y      Z   
After scan for Atom:   Atom  AN      X      Y      Z        X      Y      Z        X      Y      Z   
After scan for Atom:   Atom  AN      X      Y      Z        X      Y      Z        X      Y      Z   
After scan for Atom:   Atom  AN      X      Y      Z        X      Y      Z        X      Y      Z   
After scan for Atom:   Atom  AN      X      Y      Z        X      Y      Z        X      Y      Z   
After scan for Atom:   Atom  AN      X      Y      Z        X      Y      Z        X      Y      Z   
After scan for Atom:   Atom  AN      X      Y      Z        X      Y      Z        X      Y      Z   
After scan for Atom:   Atom  AN      X      Y      Z        X      Y      Z        X      Y      Z   
After scan for Atom:   Atom  AN      X      Y      Z        X      Y      Z        X      Y      Z   
After scan for Atom:   Atom  AN      X      Y      Z        X      Y      Z        X      Y      Z   
After scan for Atom:   Atom  AN      X      Y      Z        X      Y      Z        X      Y      Z   
After scan for Atom:   Atom  AN      X      Y      Z        X      Y      Z        X      Y      Z   
After scan for Atom:   Atom  AN      X      Y      Z        X      Y      Z        X      Y      Z   
 g94    frequencies=
     0.0    0.0    0.0    0.0    0.0    0.0   23.5   41.1   44.6   74.2
   101.8  125.3  158.4  188.6  224.7  237.4  260.6  298.8  307.8  376.6
   391.7  412.4  414.8  438.1  462.0  490.1  518.0  521.1  552.7  574.5
   605.0  612.5  630.9  637.5  665.3  693.1  717.9  722.7  732.3  742.6
   754.2  769.1  820.6  833.5  837.8  851.7  869.2  873.7  881.6  893.8
   911.1  915.7  932.0  944.7  954.5  958.5  966.3  974.1  993.2 1006.5
  1043.9 1058.1 1064.9 1096.5 1107.0 1109.9 1159.5 1177.1 1180.7 1183.7
  1200.2 1208.4 1236.2 1258.2 1270.6 1289.9 1302.2 1321.3 1330.4 1346.4
  1358.6 1371.4 1377.4 1399.4 1429.4 1454.8 1471.0 1478.8 1517.5 1521.4
  1531.4 1564.6 1574.0 1576.3 1585.8 1596.4 1620.5 1635.0 3153.9 3155.1
  3160.0 3160.9 3161.5 3162.2 3169.4 3172.2 3172.7 3174.1 3182.4 3186.6
  3187.1 3190.1 3197.7 3199.1
 g94    symmetries=
                                                 A      A      A      A
       A      A      A      A      A      A      A      A      A      A
       A      A      A      A      A      A      A      A      A      A
       A      A      A      A      A      A      A      A      A      A
       A      A      A      A      A      A      A      A      A      A
       A      A      A      A      A      A      A      A      A      A
       A      A      A      A      A      A      A      A      A      A
       A      A      A      A      A      A      A      A      A      A
       A      A      A      A      A      A      A      A      A      A
       A      A      A      A      A      A      A      A      A      A
       A      A      A      A      A      A      A      A      A      A
       A      A      A      A
 atomic masses:
 12.0000 12.0000 12.0000 12.0000 12.0000 12.0000 12.0000 12.0000 12.0000 12.0000
 12.0000 12.0000 12.0000 12.0000 12.0000 12.0000 12.0000 12.0000 12.0000 12.0000
 12.0000 12.0000  1.0078  1.0078  1.0078  1.0078  1.0078  1.0078  1.0078  1.0078
  1.0078  1.0078  1.0078  1.0078  1.0078  1.0078  1.0078  1.0078
 looking for force constants in 
 ./benz-b-imbal_1_C0S1.fchk                                                     
  
 Cartesian Force Constants                  R   N=        6555                  
  
 n3=         114        6555
 g94-fc frequencies=
    -0.0    0.0    0.0    0.4    2.1    2.8   23.5   41.1   44.6   74.2
   101.9  125.3  158.4  188.6  224.7  237.4  260.6  298.8  307.8  376.6
   391.7  412.4  414.8  438.1  462.0  490.1  518.0  521.1  552.7  574.5
   605.0  612.5  630.9  637.5  665.3  693.1  717.9  722.7  732.3  742.6
   754.2  769.1  820.6  833.5  837.8  851.7  869.3  873.7  881.6  893.8
   911.1  915.7  932.1  944.7  954.5  958.5  966.3  974.1  993.2 1006.6
  1043.9 1058.1 1064.9 1096.5 1107.0 1109.9 1159.6 1177.1 1180.7 1183.7
  1200.2 1208.4 1236.2 1258.3 1270.7 1289.9 1302.2 1321.4 1330.5 1346.4
  1358.6 1371.4 1377.4 1399.4 1429.4 1454.8 1471.0 1478.8 1517.5 1521.5
  1531.4 1564.6 1574.0 1576.4 1585.9 1596.4 1620.5 1635.1 3154.0 3155.2
  3160.0 3161.0 3161.6 3162.2 3169.5 3172.3 3172.8 3174.2 3182.5 3186.6
  3187.1 3190.2 3197.8 3199.2
 at 99999: n3=         114
 symm operator            1 :  F  nop=           0
 symm operator            2 :  F  nop=           0
 symm operator            3 :  F  nop=           0
 symm operator            4 :  F  nop=           0
 symm operator            5 :  F  nop=           0
 symm operator            6 :  F  nop=           0
 symm operator            7 :  F  nop=           0
 The point group of the molecule is  C1
 Symmetry rotation matrix:
   1.00000   0.00000   0.00000
   0.00000   1.00000   0.00000
   0.00000   0.00000   1.00000

 Projecting out zero-frequency components
 generating redundant internal coords
         300        3600          38
 search for int coords
   1 str   2   1   1.376
   2 str   3   2   1.425
   3 str   4   3   1.455
   4 str   5   4   1.403
   5 str   6   5   1.402
   6 str   7   6   1.394
   7 str   8   7   1.390
   8 str   9   4   1.439
   9 str   9   8   1.416
  10 str  10   9   1.405
  11 str  11  10   1.409
  12 str  12  11   1.414
  13 str  13  12   1.391
  14 str  14  13   1.393
  15 str  15  14   1.400
  16 str  16   3   1.458
  17 str  16  11   1.440
  18 str  16  15   1.405
  19 str  17   1   1.443
  20 str  18  17   1.416
  21 str  19  18   1.386
  22 str  20  19   1.398
  23 str  21  20   1.396
  24 str  22  17   1.415
  25 str  22  21   1.387
  26 str  23   1   1.084
  27 str  24   2   1.084
  28 str  25   5   1.082
  29 str  26   6   1.084
  30 str  27   7   1.084
  31 str  28   8   1.085
  32 str  29  10   1.086
  33 str  30  12   1.085
  34 str  31  13   1.084
  35 str  32  14   1.084
  36 str  33  15   1.082
  37 str  34  18   1.084
  38 str  35  19   1.085
  39 str  36  20   1.084
  40 str  37  21   1.084
  41 str  38  22   1.085
 nber stretches=          41
  42 ben   1   2   3
  43 prop tor   1   2   3   4
  44 prop tor   1   2   3  16
  45 ben   1   2  24
  46 ben   1  17  18
  47 prop tor   1  17  18  19
  48 prop tor   1  17  18  34
  49 ben   1  17  22
  50 prop tor   1  17  22  21
  51 prop tor   1  17  22  38
  52 ben   2   1  17
  53 prop tor   2   1  17  18
  54 prop tor   2   1  17  22
  55 ben   2   1  23
  56 ben   2   3   4
  57 prop tor   2   3   4   5
  58 prop tor   2   3   4   9
  59 ben   2   3  16
  60 prop tor   2   3  16  11
  61 prop tor   2   3  16  15
  62 ben   3   2  24
  63 ben   3   4   5
  64 prop tor   3   4   5   6
  65 prop tor   3   4   5  25
  66 ben   3   4   9
  67 prop tor   3   4   9   8
  68 prop tor   3   4   9  10
  69 ben   3  16  11
  70 ben   3  16  15
  71 ben   4   3  16
  72 prop tor   4   3  16  11
  73 prop tor   4   3  16  15
  74 ben   4   5   6
  75 prop tor   4   5   6   7
  76 prop tor   4   5   6  26
  77 ben   4   5  25
  78 ben   4   9   8
  79 ben   4   9  10
  80 prop tor   4   9  10  11
  81 prop tor   4   9  10  29
  82 ben   5   4   9
  83 prop tor   5   4   9   8
  84 prop tor   5   4   9  10
  85 ben   5   6   7
  86 prop tor   5   6   7   8
  87 prop tor   5   6   7  27
  88 ben   5   6  26
  89 ben   6   5  25
  90 ben   6   7   8
  91 prop tor   6   7   8   9
  92 prop tor   6   7   8  28
  93 ben   6   7  27
  94 ben   7   6  26
  95 ben   7   8   9
  96 prop tor   7   8   9   4
  97 prop tor   7   8   9  10
  98 ben   7   8  28
  99 ben   8   7  27
 100 ben   8   9  10
 101 prop tor   8   9  10  11
 102 prop tor   8   9  10  29
 103 prop tor   9   4   5   6
 104 prop tor   9   4   5  25
 105 ben   9   8  28
 106 ben   9  10  11
 107 prop tor   9  10  11  12
 108 prop tor   9  10  11  16
 109 ben   9  10  29
 110 ben  10  11  12
 111 prop tor  10  11  12  13
 112 prop tor  10  11  12  30
 113 ben  10  11  16
 114 prop tor  10  11  16   3
 115 prop tor  10  11  16  15
 116 ben  11  10  29
 117 ben  11  12  13
 118 prop tor  11  12  13  14
 119 prop tor  11  12  13  31
 120 ben  11  12  30
 121 ben  11  16  15
 122 ben  12  11  16
 123 prop tor  12  11  16   3
 124 prop tor  12  11  16  15
 125 ben  12  13  14
 126 prop tor  12  13  14  15
 127 prop tor  12  13  14  32
 128 ben  12  13  31
 129 ben  13  12  30
 130 ben  13  14  15
 131 prop tor  13  14  15  16
 132 prop tor  13  14  15  33
 133 ben  13  14  32
 134 ben  14  13  31
 135 ben  14  15  16
 136 prop tor  14  15  16   3
 137 prop tor  14  15  16  11
 138 ben  14  15  33
 139 ben  15  14  32
 140 prop tor  16   3   4   5
 141 prop tor  16   3   4   9
 142 prop tor  16  11  12  13
 143 prop tor  16  11  12  30
 144 ben  16  15  33
 145 prop tor  17   1   2   3
 146 prop tor  17   1   2  24
 147 ben  17   1  23
 148 ben  17  18  19
 149 prop tor  17  18  19  20
 150 prop tor  17  18  19  35
 151 ben  17  18  34
 152 ben  17  22  21
 153 ben  17  22  38
 154 ben  18  17  22
 155 prop tor  18  17  22  21
 156 prop tor  18  17  22  38
 157 ben  18  19  20
 158 prop tor  18  19  20  21
 159 prop tor  18  19  20  36
 160 ben  18  19  35
 161 ben  19  18  34
 162 ben  19  20  21
 163 prop tor  19  20  21  22
 164 prop tor  19  20  21  37
 165 ben  19  20  36
 166 ben  20  19  35
 167 ben  20  21  22
 168 prop tor  20  21  22  17
 169 prop tor  20  21  22  38
 170 ben  20  21  37
 171 ben  21  20  36
 172 ben  21  22  38
 173 prop tor  22  17  18  19
 174 prop tor  22  17  18  34
 175 ben  22  21  37
 176 prop tor  23   1   2   3
 177 prop tor  23   1   2  24
 178 prop tor  23   1  17  18
 179 prop tor  23   1  17  22
 180 prop tor  24   2   3   4
 181 prop tor  24   2   3  16
 182 prop tor  25   5   6   7
 183 prop tor  25   5   6  26
 184 prop tor  26   6   7   8
 185 prop tor  26   6   7  27
 186 prop tor  27   7   8   9
 187 prop tor  27   7   8  28
 188 prop tor  28   8   9   4
 189 prop tor  28   8   9  10
 190 prop tor  29  10  11  12
 191 prop tor  29  10  11  16
 192 prop tor  30  12  13  14
 193 prop tor  30  12  13  31
 194 prop tor  31  13  14  15
 195 prop tor  31  13  14  32
 196 prop tor  32  14  15  16
 197 prop tor  32  14  15  33
 198 prop tor  33  15  16   3
 199 prop tor  33  15  16  11
 200 prop tor  34  18  19  20
 201 prop tor  34  18  19  35
 202 prop tor  35  19  20  21
 203 prop tor  35  19  20  36
 204 prop tor  36  20  21  22
 205 prop tor  36  20  21  37
 206 prop tor  37  21  22  17
 207 prop tor  37  21  22  38
 nber bend=              66
 nber lin bend=           0
 nber prop tor=         100
 nber impr tor=           0
 nber tot redund int=         207
 Eigenvalues of G in red int coords
    Gval -0.00000000 -0.00000000 -0.00000000 -0.00000000 -0.00000000 -0.00000000 -0.00000000 -0.00000000
    Gval -0.00000000 -0.00000000 -0.00000000 -0.00000000 -0.00000000 -0.00000000 -0.00000000 -0.00000000
    Gval -0.00000000 -0.00000000 -0.00000000 -0.00000000 -0.00000000 -0.00000000 -0.00000000 -0.00000000
    Gval -0.00000000 -0.00000000 -0.00000000 -0.00000000 -0.00000000 -0.00000000 -0.00000000 -0.00000000
    Gval -0.00000000 -0.00000000 -0.00000000 -0.00000000 -0.00000000 -0.00000000 -0.00000000 -0.00000000
    Gval -0.00000000 -0.00000000 -0.00000000 -0.00000000 -0.00000000 -0.00000000 -0.00000000 -0.00000000
    Gval -0.00000000 -0.00000000 -0.00000000 -0.00000000 -0.00000000 -0.00000000 -0.00000000 -0.00000000
    Gval -0.00000000 -0.00000000 -0.00000000  0.00000000  0.00000000  0.00000000  0.00000000  0.00000000
    Gval  0.00000000  0.00000000  0.00000000  0.00000000  0.00000000  0.00000000  0.00000000  0.00000000
    Gval  0.00000000  0.00000000  0.00000000  0.00000000  0.00000000  0.00000000  0.00000000  0.00000000
    Gval  0.00000000  0.00000000  0.00000000  0.00000000  0.00000000  0.00000000  0.00000000  0.00000000
    Gval  0.00000000  0.00000000  0.00000000  0.00000000  0.00000000  0.00000000  0.00000000  0.00000000
    Gval  0.00000000  0.00000000  0.00000000  0.00000068  0.00000238  0.00000493  0.00000894  0.00000931
    Gval  0.00000976  0.00001095  0.00002591  0.00002732  0.00003025  0.00003334  0.00003883  0.00004456
    Gval  0.00004950  0.00005433  0.00005550  0.00005718  0.00006008  0.00006305  0.00007172  0.00007374
    Gval  0.00007596  0.00008626  0.00009204  0.00009661  0.00010511  0.00011354  0.00011723  0.00012141
    Gval  0.00012766  0.00013274  0.00014937  0.00017751  0.00020279  0.00021519  0.00022299  0.00023255
    Gval  0.00026305  0.00026821  0.00028214  0.00032230  0.00033747  0.00035178  0.00036414  0.00038165
    Gval  0.00038309  0.00040818  0.00042157  0.00044378  0.00046189  0.00054385  0.00059275  0.00059305
    Gval  0.00059318  0.00059319  0.00059595  0.00059695  0.00059714  0.00060410  0.00061026  0.00061729
    Gval  0.00061811  0.00062288  0.00063638  0.00065380  0.00065745  0.00065794  0.00066032  0.00077138
    Gval  0.00080803  0.00083934  0.00097749  0.00103752  0.00105318  0.00105445  0.00107358  0.00110669
    Gval  0.00111740  0.00111849  0.00112563  0.00113660  0.00115667  0.00115772  0.00115879  0.00116939
    Gval  0.00117178  0.00117218  0.00117228  0.00123152  0.00143003  0.00175229  0.00177904  0.00180303
    Gval  0.00180914  0.00213242  0.00233173  0.00262274  0.00267182  0.00281765  0.00308000  0.00311348
    Gval  0.00321501  0.00347801  0.00353988  0.00372644  0.00401476  0.00402196  0.00406250
  6.812181448146748E-007  6.812181448146748E-007
  2.383879658924078E-006  6.812181448146748E-007
  4.926231303628579E-006  6.812181448146748E-007
  8.937321225530793E-006  6.812181448146748E-007
  9.311999946552334E-006  6.812181448146748E-007
  9.761702543409937E-006  6.812181448146748E-007
  1.095408548447022E-005  6.812181448146748E-007
  2.590779152145840E-005  6.812181448146748E-007
  2.732044245384595E-005  6.812181448146748E-007
  3.024559835460566E-005  6.812181448146748E-007
  3.334465448673857E-005  6.812181448146748E-007
  3.882682165466371E-005  6.812181448146748E-007
  4.456197845507795E-005  6.812181448146748E-007
  4.949851517014400E-005  6.812181448146748E-007
  5.432810206683532E-005  6.812181448146748E-007
  5.550309390523729E-005  6.812181448146748E-007
  5.717676245010079E-005  6.812181448146748E-007
  6.008338112471659E-005  6.812181448146748E-007
  6.305175189234155E-005  6.812181448146748E-007
  7.172460639697110E-005  6.812181448146748E-007
  7.374465149577386E-005  6.812181448146748E-007
  7.595603406380758E-005  6.812181448146748E-007
  8.626490474209714E-005  6.812181448146748E-007
  9.203792205406869E-005  6.812181448146748E-007
  9.660951519698515E-005  6.812181448146748E-007
  1.051087830482701E-004  6.812181448146748E-007
  1.135419433380271E-004  6.812181448146748E-007
  1.172327062994744E-004  6.812181448146748E-007
  1.214100388025570E-004  6.812181448146748E-007
  1.276605149399054E-004  6.812181448146748E-007
  1.327386678779302E-004  6.812181448146748E-007
  1.493749529697326E-004  6.812181448146748E-007
  1.775146264637683E-004  6.812181448146748E-007
  2.027854094708317E-004  6.812181448146748E-007
  2.151881697154164E-004  6.812181448146748E-007
  2.229895068586775E-004  6.812181448146748E-007
  2.325522146200484E-004  6.812181448146748E-007
  2.630504938950798E-004  6.812181448146748E-007
  2.682050475929747E-004  6.812181448146748E-007
  2.821364751773696E-004  6.812181448146748E-007
  3.223017833504136E-004  6.812181448146748E-007
  3.374729263829743E-004  6.812181448146748E-007
  3.517845306585191E-004  6.812181448146748E-007
  3.641381112097976E-004  6.812181448146748E-007
  3.816476448516260E-004  6.812181448146748E-007
  3.830902057058892E-004  6.812181448146748E-007
  4.081753375326335E-004  6.812181448146748E-007
  4.215664290942420E-004  6.812181448146748E-007
  4.437828715942368E-004  6.812181448146748E-007
  4.618913327841602E-004  6.812181448146748E-007
  5.438537341657133E-004  6.812181448146748E-007
  5.927520105675847E-004  6.812181448146748E-007
  5.930544452106487E-004  6.812181448146748E-007
  5.931758817519068E-004  6.812181448146748E-007
  5.931944221341982E-004  6.812181448146748E-007
  5.959529464922722E-004  6.812181448146748E-007
  5.969546169217845E-004  6.812181448146748E-007
  5.971438844627027E-004  6.812181448146748E-007
  6.040971021383730E-004  6.812181448146748E-007
  6.102609938705774E-004  6.812181448146748E-007
  6.172913257989580E-004  6.812181448146748E-007
  6.181092464044813E-004  6.812181448146748E-007
  6.228821342962436E-004  6.812181448146748E-007
  6.363840719660241E-004  6.812181448146748E-007
  6.537972534499791E-004  6.812181448146748E-007
  6.574450573069652E-004  6.812181448146748E-007
  6.579420877941206E-004  6.812181448146748E-007
  6.603238845850159E-004  6.812181448146748E-007
  7.713823265468154E-004  6.812181448146748E-007
  8.080271381216782E-004  6.812181448146748E-007
  8.393384964256417E-004  6.812181448146748E-007
  9.774934703660591E-004  6.812181448146748E-007
  1.037523775433101E-003  6.812181448146748E-007
  1.053177609696799E-003  6.812181448146748E-007
  1.054445303652361E-003  6.812181448146748E-007
  1.073578571840616E-003  6.812181448146748E-007
  1.106689323671577E-003  6.812181448146748E-007
  1.117402561776414E-003  6.812181448146748E-007
  1.118494147528749E-003  6.812181448146748E-007
  1.125634762221841E-003  6.812181448146748E-007
  1.136602950425422E-003  6.812181448146748E-007
  1.156672542946502E-003  6.812181448146748E-007
  1.157715127902436E-003  6.812181448146748E-007
  1.158786700362864E-003  6.812181448146748E-007
  1.169392703815912E-003  6.812181448146748E-007
  1.171784524393099E-003  6.812181448146748E-007
  1.172184807049283E-003  6.812181448146748E-007
  1.172275191763613E-003  6.812181448146748E-007
  1.231522018524429E-003  6.812181448146748E-007
  1.430029942208694E-003  6.812181448146748E-007
  1.752285958981949E-003  6.812181448146748E-007
  1.779038658808754E-003  6.812181448146748E-007
  1.803030106937359E-003  6.812181448146748E-007
  1.809141991317731E-003  6.812181448146748E-007
  2.132420152435556E-003  6.812181448146748E-007
  2.331729988838638E-003  6.812181448146748E-007
  2.622744023440209E-003  6.812181448146748E-007
  2.671820324007734E-003  6.812181448146748E-007
  2.817647002298057E-003  6.812181448146748E-007
  3.079998706423921E-003  6.812181448146748E-007
  3.113483110211082E-003  6.812181448146748E-007
  3.215009993290244E-003  6.812181448146748E-007
  3.478012687483069E-003  6.812181448146748E-007
  3.539879554902165E-003  6.812181448146748E-007
  3.726435667039935E-003  6.812181448146748E-007
  4.014758989748640E-003  6.812181448146748E-007
  4.021964495732846E-003  6.812181448146748E-007
  4.062501494196930E-003  6.812181448146748E-007
 cut=1d-8, nber non-redundant internal coords=         108
 Check on Eigenvals of non-red overlap matrix:
  0.00000068  0.00000238  0.00000493  0.00000894  0.00000931  0.00000976  0.00001095  0.00002591
  0.00002732  0.00003025  0.00003334  0.00003883  0.00004456  0.00004950  0.00005433  0.00005550
  0.00005718  0.00006008  0.00006305  0.00007172  0.00007374  0.00007596  0.00008626  0.00009204
  0.00009661  0.00010511  0.00011354  0.00011723  0.00012141  0.00012766  0.00013274  0.00014937
  0.00017751  0.00020279  0.00021519  0.00022299  0.00023255  0.00026305  0.00026821  0.00028214
  0.00032230  0.00033747  0.00035178  0.00036414  0.00038165  0.00038309  0.00040818  0.00042157
  0.00044378  0.00046189  0.00054385  0.00059275  0.00059305  0.00059318  0.00059319  0.00059595
  0.00059695  0.00059714  0.00060410  0.00061026  0.00061729  0.00061811  0.00062288  0.00063638
  0.00065380  0.00065745  0.00065794  0.00066032  0.00077138  0.00080803  0.00083934  0.00097749
  0.00103752  0.00105318  0.00105445  0.00107358  0.00110669  0.00111740  0.00111849  0.00112563
  0.00113660  0.00115667  0.00115772  0.00115879  0.00116939  0.00117178  0.00117218  0.00117228
  0.00123152  0.00143003  0.00175229  0.00177904  0.00180303  0.00180914  0.00213242  0.00233173
  0.00262274  0.00267182  0.00281765  0.00308000  0.00311348  0.00321501  0.00347801  0.00353988
  0.00372644  0.00401476  0.00402196  0.00406250
 Checking for correct frequencies
 recalc frequencies=
    -0.0   -0.0    0.0    0.0    0.0    0.0   23.5   41.1   44.6   74.2
   101.9  125.3  158.4  188.6  224.7  237.4  260.6  298.8  307.8  376.6
   391.7  412.4  414.8  438.1  462.0  490.1  518.0  521.1  552.7  574.5
   605.0  612.5  630.9  637.5  665.3  693.1  717.9  722.7  732.3  742.6
   754.2  769.1  820.6  833.5  837.8  851.7  869.3  873.7  881.6  893.8
   911.1  915.7  932.1  944.7  954.5  958.5  966.3  974.1  993.2 1006.6
  1043.9 1058.1 1064.9 1096.5 1107.0 1109.9 1159.6 1177.1 1180.7 1183.7
  1200.2 1208.4 1236.2 1258.3 1270.7 1289.9 1302.2 1321.4 1330.5 1346.4
  1358.6 1371.4 1377.4 1399.4 1429.4 1454.8 1471.0 1478.8 1517.5 1521.5
  1531.4 1564.6 1574.0 1576.4 1585.9 1596.4 1620.5 1635.1 3154.0 3155.2
  3160.0 3161.0 3161.6 3162.2 3169.5 3172.3 3172.8 3174.2 3182.5 3186.6
  3187.1 3190.2 3197.8 3199.2
 recalc symmetries=
                                                                       
                                                                       
                                                                       
                                                                       
                                                                       
                                                                       
                                                                       
                                                                       
                                                                       
                                                                       
                                                                       
                             
 recalc freqs check OK
 Zero-point lengths:
 10.0000 10.0000 10.0000 10.0000 10.0000 10.0000 51.1121 38.6548 37.1166 28.7814
 24.5649 22.1470 19.6963 18.0509 16.5379 16.0896 15.3563 14.3419 14.1300 12.7744
 12.5263 12.2079 12.1718 11.8444 11.5338 11.1978 10.8922 10.8602 10.5450 10.3432
 10.0786 10.0170  9.8699  9.8190  9.6116  9.4165  9.2528  9.2218  9.1613  9.0974
  9.0272  8.9391  8.6541  8.5870  8.5650  8.4949  8.4086  8.3869  8.3495  8.2924
  8.2132  8.1926  8.1203  8.0657  8.0242  8.0076  7.9752  7.9432  7.8664  7.8140
  7.6729  7.6214  7.5969  7.4867  7.4511  7.4414  7.2803  7.2258  7.2149  7.2057
  7.1559  7.1316  7.0509  6.9889  6.9547  6.9027  6.8699  6.8200  6.7967  6.7563
  6.7258  6.6945  6.6798  6.6270  6.5571  6.4997  6.4639  6.4467  6.3640  6.3557
  6.3351  6.2675  6.2487  6.2440  6.2253  6.2047  6.1584  6.1310  4.4143  4.4135
  4.4101  4.4095  4.4090  4.4086  4.4035  4.4016  4.4013  4.4003  4.3945  4.3917
  4.3913  4.3892  4.3840  4.3830
 highest evec of mol 2
  0.0184  0.0451  0.0156
  0.0115  0.0148  0.0020
 -0.0022 -0.0001 -0.0001
  0.0010 -0.0076  0.0025
 -0.2289  0.0032 -0.0999
 -0.0445  0.1030 -0.0416
  0.0353  0.0449  0.0032
  0.0197 -0.0025  0.0075
  0.0017 -0.0009  0.0010
  0.0010 -0.0001  0.0003
 -0.0001 -0.0000 -0.0000
 -0.0025 -0.0006 -0.0008
 -0.0046  0.0072 -0.0013
  0.0071  0.0144  0.0028
  0.0284  0.0007  0.0095
  0.0000 -0.0002 -0.0003
 -0.0007  0.0001  0.0001
 -0.0026  0.0036  0.0021
  0.0006  0.0007  0.0003
 -0.0006 -0.0002 -0.0001
 -0.0008  0.0013  0.0008
  0.0024  0.0037  0.0018
 -0.0708 -0.1525 -0.0461
 -0.0280 -0.0597 -0.0082
  0.7623 -0.0157  0.3267
  0.1485 -0.3206  0.1343
 -0.0966 -0.1471 -0.0049
 -0.0621  0.0026 -0.0220
 -0.0040  0.0006 -0.0018
  0.0076  0.0003  0.0024
  0.0135 -0.0228  0.0037
 -0.0238 -0.0445 -0.0092
 -0.0958 -0.0034 -0.0315
  0.0078 -0.0130 -0.0076
 -0.0015 -0.0022 -0.0010
  0.0019  0.0000 -0.0001
  0.0029 -0.0045 -0.0025
 -0.0077 -0.0124 -0.0058
 Enter nber and list of atoms to keep of mol #2
 keep list:          38           1           2           3           4
           5           6           7           8           9          10
          11          12          13          14          15          16
          17          18          19          20          21          22
          23          24          25          26          27          28
          29          30          31          32          33          34
          35          36          37          38
 reordering atoms
           1  -1.77327516601465     
           2 -0.718587235752913     
           3  0.673259406196164     
           4   1.17724327519486     
           5  0.446665501949797     
           6  0.936868345476306     
           7   2.19194751355394     
           8   2.97080989531271     
           9   2.51179044268109     
          10   3.34703171832154     
          11   2.96873841868270     
          12   3.88143296168457     
          13   3.53065239356062     
          14   2.25240081190969     
          15   1.32257494292452     
          16   1.63254559397376     
          17  -3.16902207288794     
          18  -3.66734358845783     
          19  -5.01938039868736     
          20  -5.92719278208901     
          21  -5.46047973297169     
          22  -4.10868024456088     
          23  -1.56086036282265     
          24 -0.970265802977557     
          25 -0.506559459416590     
          26  0.334121632588495     
          27   2.56733013232100     
          28   3.95954359741148     
          29   4.35613652797004     
          30   4.87396918720793     
          31   4.24833016144033     
          32   1.96828226950644     
          33  0.346813496363649     
          34  -2.98845673931378     
          35  -5.37554454119385     
          36  -6.98377434203302     
          37  -6.15598489687874     
          38  -3.75369937531169     
           1           1
           2           2
           3           3
           4           4
           5           5
           6           6
           7           7
           8           8
           9           9
          10          10
          11          11
          12          12
          13          13
          14          14
          15          15
          16          16
          17          17
          18          18
          19          19
          20          20
          21          21
          22          22
          23          23
          24          24
          25          25
          26          26
          27          27
          28          28
          29          29
          30          30
          31          31
          32          32
          33          33
          34          34
          35          35
          36          36
          37          37
          38          38
 initial cartes coords mol 1
   6  -0.34115   0.23081   1.73233
   6   0.38645  -0.31652   0.74474
   6   0.18875  -0.09231  -0.70113
   6   0.14972   1.21224  -1.25847
   6   0.35645   2.40162  -0.48851
   6   0.30423   3.64298  -1.05996
   6   0.04445   3.79496  -2.44946
   6  -0.12290   2.68991  -3.23256
   6  -0.06076   1.37333  -2.67913
   6  -0.18348   0.24692  -3.49253
   6  -0.10892  -1.04477  -2.96892
   6  -0.22330  -2.19457  -3.80869
   6  -0.17455  -3.45662  -3.28883
   6  -0.02162  -3.63977  -1.88785
   6   0.08858  -2.56316  -1.05048
   6   0.07038  -1.22331  -1.55036
   6  -0.16978   0.01571   3.17460
   6   0.97508  -0.57752   3.73485
   6   1.07847  -0.77298   5.10609
   6   0.04622  -0.37494   5.95688
   6  -1.08957   0.22627   5.42049
   6  -1.19278   0.42171   4.04689
   1  -1.17180   0.87775   1.46111
   1   1.16740  -1.02638   1.00621
   1   0.57658   2.30939   0.56550
   1   0.47393   4.52310  -0.44977
   1  -0.00226   4.78760  -2.88287
   1  -0.29865   2.78945  -4.29862
   1  -0.33581   0.37848  -4.55935
   1  -0.35346  -2.04118  -4.87491
   1  -0.26211  -4.32101  -3.93725
   1  -0.00289  -4.64426  -1.48006
   1   0.17337  -2.72776   0.01579
   1   1.79814  -0.87274   3.09443
   1   1.97216  -1.22998   5.51657
   1   0.13207  -0.52585   7.02690
   1  -1.89564   0.54520   6.07185
   1  -2.08137   0.88948   3.63557
 initial cartes coords mol 2
   6  -0.10343   0.37624  -1.77328
   6   0.22696  -0.44407  -0.71859
   6   0.23372  -0.13993   0.67326
   6   0.23740   1.22492   1.17724
   6   0.72494   2.31958   0.44667
   6   0.64917   3.63050   0.93687
   6   0.09450   3.87671   2.19195
   6  -0.33946   2.81007   2.97081
   6  -0.24108   1.47386   2.51179
   6  -0.54842   0.38660   3.34703
   6  -0.30432  -0.94818   2.96874
   6  -0.48896  -2.01250   3.88143
   6  -0.20175  -3.32753   3.53065
   6   0.27813  -3.60530   2.25240
   6   0.44727  -2.57248   1.32257
   6   0.15050  -1.23493   1.63255
   6  -0.10374   0.00846  -3.16902
   6   0.46334  -1.18972  -3.66734
   6   0.42266  -1.49051  -5.01938
   6  -0.17531  -0.61159  -5.92719
   6  -0.73012   0.58188  -5.46048
   6  -0.69201   0.88792  -4.10868
   1  -0.46422   1.37654  -1.56086
   1   0.40718  -1.48247  -0.97027
   1   1.20636   2.14707  -0.50656
   1   1.02636   4.44850   0.33412
   1   0.01587   4.89053   2.56733
   1  -0.74866   2.98883   3.95954
   1  -0.89646   0.58574   4.35614
   1  -0.86198  -1.78305   4.87397
   1  -0.34678  -4.12658   4.24833
   1   0.52148  -4.62252   1.96828
   1   0.83869  -2.82895   0.34681
   1   0.95332  -1.87749  -2.98846
   1   0.86609  -2.41406  -5.37554
   1  -0.20204  -0.85192  -6.98377
   1  -1.19260   1.27359  -6.15598
   1  -1.12790   1.81620  -3.75370
 loop 1 0
 mod cartes coords mol 2
   6  -0.10343   0.37624  -1.77328
   6   0.22696  -0.44407  -0.71859
   6   0.23372  -0.13993   0.67326
   6   0.23740   1.22492   1.17724
   6   0.72494   2.31958   0.44667
   6   0.64917   3.63050   0.93687
   6   0.09450   3.87671   2.19195
   6  -0.33946   2.81007   2.97081
   6  -0.24108   1.47386   2.51179
   6  -0.54842   0.38660   3.34703
   6  -0.30432  -0.94818   2.96874
   6  -0.48896  -2.01250   3.88143
   6  -0.20175  -3.32753   3.53065
   6   0.27813  -3.60530   2.25240
   6   0.44727  -2.57248   1.32257
   6   0.15050  -1.23493   1.63255
   6  -0.10374   0.00846  -3.16902
   6   0.46334  -1.18972  -3.66734
   6   0.42266  -1.49051  -5.01938
   6  -0.17531  -0.61159  -5.92719
   6  -0.73012   0.58188  -5.46048
   6  -0.69201   0.88792  -4.10868
   1  -0.46422   1.37654  -1.56086
   1   0.40718  -1.48247  -0.97027
   1   1.20636   2.14707  -0.50656
   1   1.02636   4.44850   0.33412
   1   0.01587   4.89053   2.56733
   1  -0.74866   2.98883   3.95954
   1  -0.89646   0.58574   4.35614
   1  -0.86198  -1.78305   4.87397
   1  -0.34678  -4.12658   4.24833
   1   0.52148  -4.62252   1.96828
   1   0.83869  -2.82895   0.34681
   1   0.95332  -1.87749  -2.98846
   1   0.86609  -2.41406  -5.37554
   1  -0.20204  -0.85192  -6.98377
   1  -1.19260   1.27359  -6.15598
   1  -1.12790   1.81620  -3.75370
 read in order, maxerr= 14.02 for atom  36
 loop 1 1
 mod cartes coords mol 2
   6   0.10343   0.37624  -1.77328
   6  -0.22696  -0.44407  -0.71859
   6  -0.23372  -0.13993   0.67326
   6  -0.23740   1.22492   1.17724
   6  -0.72494   2.31958   0.44667
   6  -0.64917   3.63050   0.93687
   6  -0.09450   3.87671   2.19195
   6   0.33946   2.81007   2.97081
   6   0.24108   1.47386   2.51179
   6   0.54842   0.38660   3.34703
   6   0.30432  -0.94818   2.96874
   6   0.48896  -2.01250   3.88143
   6   0.20175  -3.32753   3.53065
   6  -0.27813  -3.60530   2.25240
   6  -0.44727  -2.57248   1.32257
   6  -0.15050  -1.23493   1.63255
   6   0.10374   0.00846  -3.16902
   6  -0.46334  -1.18972  -3.66734
   6  -0.42266  -1.49051  -5.01938
   6   0.17531  -0.61159  -5.92719
   6   0.73012   0.58188  -5.46048
   6   0.69201   0.88792  -4.10868
   1   0.46422   1.37654  -1.56086
   1  -0.40718  -1.48247  -0.97027
   1  -1.20636   2.14707  -0.50656
   1  -1.02636   4.44850   0.33412
   1  -0.01587   4.89053   2.56733
   1   0.74866   2.98883   3.95954
   1   0.89646   0.58574   4.35614
   1   0.86198  -1.78305   4.87397
   1   0.34678  -4.12658   4.24833
   1  -0.52148  -4.62252   1.96828
   1  -0.83869  -2.82895   0.34681
   1  -0.95332  -1.87749  -2.98846
   1  -0.86609  -2.41406  -5.37554
   1   0.20204  -0.85192  -6.98377
   1   1.19260   1.27359  -6.15598
   1   1.12790   1.81620  -3.75370
 read in order, maxerr= 14.01 for atom  36
 loop 1 2
 mod cartes coords mol 2
   6  -0.10343  -0.37624  -1.77328
   6   0.22696   0.44407  -0.71859
   6   0.23372   0.13993   0.67326
   6   0.23740  -1.22492   1.17724
   6   0.72494  -2.31958   0.44667
   6   0.64917  -3.63050   0.93687
   6   0.09450  -3.87671   2.19195
   6  -0.33946  -2.81007   2.97081
   6  -0.24108  -1.47386   2.51179
   6  -0.54842  -0.38660   3.34703
   6  -0.30432   0.94818   2.96874
   6  -0.48896   2.01250   3.88143
   6  -0.20175   3.32753   3.53065
   6   0.27813   3.60530   2.25240
   6   0.44727   2.57248   1.32257
   6   0.15050   1.23493   1.63255
   6  -0.10374  -0.00846  -3.16902
   6   0.46334   1.18972  -3.66734
   6   0.42266   1.49051  -5.01938
   6  -0.17531   0.61159  -5.92719
   6  -0.73012  -0.58188  -5.46048
   6  -0.69201  -0.88792  -4.10868
   1  -0.46422  -1.37654  -1.56086
   1   0.40718   1.48247  -0.97027
   1   1.20636  -2.14707  -0.50656
   1   1.02636  -4.44850   0.33412
   1   0.01587  -4.89053   2.56733
   1  -0.74866  -2.98883   3.95954
   1  -0.89646  -0.58574   4.35614
   1  -0.86198   1.78305   4.87397
   1  -0.34678   4.12658   4.24833
   1   0.52148   4.62252   1.96828
   1   0.83869   2.82895   0.34681
   1   0.95332   1.87749  -2.98846
   1   0.86609   2.41406  -5.37554
   1  -0.20204   0.85192  -6.98377
   1  -1.19260  -1.27359  -6.15598
   1  -1.12790  -1.81620  -3.75370
 read in order, maxerr= 14.08 for atom  36
 loop 1 3
 mod cartes coords mol 2
   6   0.10343  -0.37624  -1.77328
   6  -0.22696   0.44407  -0.71859
   6  -0.23372   0.13993   0.67326
   6  -0.23740  -1.22492   1.17724
   6  -0.72494  -2.31958   0.44667
   6  -0.64917  -3.63050   0.93687
   6  -0.09450  -3.87671   2.19195
   6   0.33946  -2.81007   2.97081
   6   0.24108  -1.47386   2.51179
   6   0.54842  -0.38660   3.34703
   6   0.30432   0.94818   2.96874
   6   0.48896   2.01250   3.88143
   6   0.20175   3.32753   3.53065
   6  -0.27813   3.60530   2.25240
   6  -0.44727   2.57248   1.32257
   6  -0.15050   1.23493   1.63255
   6   0.10374  -0.00846  -3.16902
   6  -0.46334   1.18972  -3.66734
   6  -0.42266   1.49051  -5.01938
   6   0.17531   0.61159  -5.92719
   6   0.73012  -0.58188  -5.46048
   6   0.69201  -0.88792  -4.10868
   1   0.46422  -1.37654  -1.56086
   1  -0.40718   1.48247  -0.97027
   1  -1.20636  -2.14707  -0.50656
   1  -1.02636  -4.44850   0.33412
   1  -0.01587  -4.89053   2.56733
   1   0.74866  -2.98883   3.95954
   1   0.89646  -0.58574   4.35614
   1   0.86198   1.78305   4.87397
   1   0.34678   4.12658   4.24833
   1  -0.52148   4.62252   1.96828
   1  -0.83869   2.82895   0.34681
   1  -0.95332   1.87749  -2.98846
   1  -0.86609   2.41406  -5.37554
   1   0.20204   0.85192  -6.98377
   1   1.19260  -1.27359  -6.15598
   1   1.12790  -1.81620  -3.75370
 read in order, maxerr= 14.08 for atom  36
 loop 1 4
 mod cartes coords mol 2
   6  -0.10343   0.37624   1.77328
   6   0.22696  -0.44407   0.71859
   6   0.23372  -0.13993  -0.67326
   6   0.23740   1.22492  -1.17724
   6   0.72494   2.31958  -0.44667
   6   0.64917   3.63050  -0.93687
   6   0.09450   3.87671  -2.19195
   6  -0.33946   2.81007  -2.97081
   6  -0.24108   1.47386  -2.51179
   6  -0.54842   0.38660  -3.34703
   6  -0.30432  -0.94818  -2.96874
   6  -0.48896  -2.01250  -3.88143
   6  -0.20175  -3.32753  -3.53065
   6   0.27813  -3.60530  -2.25240
   6   0.44727  -2.57248  -1.32257
   6   0.15050  -1.23493  -1.63255
   6  -0.10374   0.00846   3.16902
   6   0.46334  -1.18972   3.66734
   6   0.42266  -1.49051   5.01938
   6  -0.17531  -0.61159   5.92719
   6  -0.73012   0.58188   5.46048
   6  -0.69201   0.88792   4.10868
   1  -0.46422   1.37654   1.56086
   1   0.40718  -1.48247   0.97027
   1   1.20636   2.14707   0.50656
   1   1.02636   4.44850  -0.33412
   1   0.01587   4.89053  -2.56733
   1  -0.74866   2.98883  -3.95954
   1  -0.89646   0.58574  -4.35614
   1  -0.86198  -1.78305  -4.87397
   1  -0.34678  -4.12658  -4.24833
   1   0.52148  -4.62252  -1.96828
   1   0.83869  -2.82895  -0.34681
   1   0.95332  -1.87749   2.98846
   1   0.86609  -2.41406   5.37554
   1  -0.20204  -0.85192   6.98377
   1  -1.19260   1.27359   6.15598
   1  -1.12790   1.81620   3.75370
 read in order, maxerr=  1.63 for atom  35
 loop 1 5
 mod cartes coords mol 2
   6   0.10343   0.37624   1.77328
   6  -0.22696  -0.44407   0.71859
   6  -0.23372  -0.13993  -0.67326
   6  -0.23740   1.22492  -1.17724
   6  -0.72494   2.31958  -0.44667
   6  -0.64917   3.63050  -0.93687
   6  -0.09450   3.87671  -2.19195
   6   0.33946   2.81007  -2.97081
   6   0.24108   1.47386  -2.51179
   6   0.54842   0.38660  -3.34703
   6   0.30432  -0.94818  -2.96874
   6   0.48896  -2.01250  -3.88143
   6   0.20175  -3.32753  -3.53065
   6  -0.27813  -3.60530  -2.25240
   6  -0.44727  -2.57248  -1.32257
   6  -0.15050  -1.23493  -1.63255
   6   0.10374   0.00846   3.16902
   6  -0.46334  -1.18972   3.66734
   6  -0.42266  -1.49051   5.01938
   6   0.17531  -0.61159   5.92719
   6   0.73012   0.58188   5.46048
   6   0.69201   0.88792   4.10868
   1   0.46422   1.37654   1.56086
   1  -0.40718  -1.48247   0.97027
   1  -1.20636   2.14707   0.50656
   1  -1.02636   4.44850  -0.33412
   1  -0.01587   4.89053  -2.56733
   1   0.74866   2.98883  -3.95954
   1   0.89646   0.58574  -4.35614
   1   0.86198  -1.78305  -4.87397
   1   0.34678  -4.12658  -4.24833
   1  -0.52148  -4.62252  -1.96828
   1  -0.83869  -2.82895  -0.34681
   1  -0.95332  -1.87749   2.98846
   1  -0.86609  -2.41406   5.37554
   1   0.20204  -0.85192   6.98377
   1   1.19260   1.27359   6.15598
   1   1.12790   1.81620   3.75370
 read in order, maxerr=  3.34 for atom  38
 loop 1 6
 mod cartes coords mol 2
   6  -0.10343  -0.37624   1.77328
   6   0.22696   0.44407   0.71859
   6   0.23372   0.13993  -0.67326
   6   0.23740  -1.22492  -1.17724
   6   0.72494  -2.31958  -0.44667
   6   0.64917  -3.63050  -0.93687
   6   0.09450  -3.87671  -2.19195
   6  -0.33946  -2.81007  -2.97081
   6  -0.24108  -1.47386  -2.51179
   6  -0.54842  -0.38660  -3.34703
   6  -0.30432   0.94818  -2.96874
   6  -0.48896   2.01250  -3.88143
   6  -0.20175   3.32753  -3.53065
   6   0.27813   3.60530  -2.25240
   6   0.44727   2.57248  -1.32257
   6   0.15050   1.23493  -1.63255
   6  -0.10374  -0.00846   3.16902
   6   0.46334   1.18972   3.66734
   6   0.42266   1.49051   5.01938
   6  -0.17531   0.61159   5.92719
   6  -0.73012  -0.58188   5.46048
   6  -0.69201  -0.88792   4.10868
   1  -0.46422  -1.37654   1.56086
   1   0.40718   1.48247   0.97027
   1   1.20636  -2.14707   0.50656
   1   1.02636  -4.44850  -0.33412
   1   0.01587  -4.89053  -2.56733
   1  -0.74866  -2.98883  -3.95954
   1  -0.89646  -0.58574  -4.35614
   1  -0.86198   1.78305  -4.87397
   1  -0.34678   4.12658  -4.24833
   1   0.52148   4.62252  -1.96828
   1   0.83869   2.82895  -0.34681
   1   0.95332   1.87749   2.98846
   1   0.86609   2.41406   5.37554
   1  -0.20204   0.85192   6.98377
   1  -1.19260  -1.27359   6.15598
   1  -1.12790  -1.81620   3.75370
 read in order, maxerr=  9.68 for atom  27
 loop 1 7
 mod cartes coords mol 2
   6   0.10343  -0.37624   1.77328
   6  -0.22696   0.44407   0.71859
   6  -0.23372   0.13993  -0.67326
   6  -0.23740  -1.22492  -1.17724
   6  -0.72494  -2.31958  -0.44667
   6  -0.64917  -3.63050  -0.93687
   6  -0.09450  -3.87671  -2.19195
   6   0.33946  -2.81007  -2.97081
   6   0.24108  -1.47386  -2.51179
   6   0.54842  -0.38660  -3.34703
   6   0.30432   0.94818  -2.96874
   6   0.48896   2.01250  -3.88143
   6   0.20175   3.32753  -3.53065
   6  -0.27813   3.60530  -2.25240
   6  -0.44727   2.57248  -1.32257
   6  -0.15050   1.23493  -1.63255
   6   0.10374  -0.00846   3.16902
   6  -0.46334   1.18972   3.66734
   6  -0.42266   1.49051   5.01938
   6   0.17531   0.61159   5.92719
   6   0.73012  -0.58188   5.46048
   6   0.69201  -0.88792   4.10868
   1   0.46422  -1.37654   1.56086
   1  -0.40718   1.48247   0.97027
   1  -1.20636  -2.14707   0.50656
   1  -1.02636  -4.44850  -0.33412
   1  -0.01587  -4.89053  -2.56733
   1   0.74866  -2.98883  -3.95954
   1   0.89646  -0.58574  -4.35614
   1   0.86198   1.78305  -4.87397
   1   0.34678   4.12658  -4.24833
   1  -0.52148   4.62252  -1.96828
   1  -0.83869   2.82895  -0.34681
   1  -0.95332   1.87749   2.98846
   1  -0.86609   2.41406   5.37554
   1   0.20204   0.85192   6.98377
   1   1.19260  -1.27359   6.15598
   1   1.12790  -1.81620   3.75370
 read in order, maxerr=  9.68 for atom  27
 loop 2 0
 mod cartes coords mol 2
   6  -0.10343  -1.77328   0.37624
   6   0.22696  -0.71859  -0.44407
   6   0.23372   0.67326  -0.13993
   6   0.23740   1.17724   1.22492
   6   0.72494   0.44667   2.31958
   6   0.64917   0.93687   3.63050
   6   0.09450   2.19195   3.87671
   6  -0.33946   2.97081   2.81007
   6  -0.24108   2.51179   1.47386
   6  -0.54842   3.34703   0.38660
   6  -0.30432   2.96874  -0.94818
   6  -0.48896   3.88143  -2.01250
   6  -0.20175   3.53065  -3.32753
   6   0.27813   2.25240  -3.60530
   6   0.44727   1.32257  -2.57248
   6   0.15050   1.63255  -1.23493
   6  -0.10374  -3.16902   0.00846
   6   0.46334  -3.66734  -1.18972
   6   0.42266  -5.01938  -1.49051
   6  -0.17531  -5.92719  -0.61159
[...]
                 0.3941    15.5          84      1399.
  86      1477.  0.7372    54.3    99.6  86      1455.
                -0.3204    10.3          91      1531.
  87      1481. -0.9072    82.3   100.5  87      1471.
  88      1481. -0.9404    88.4    99.9  88      1479.
  89      1518.  0.6973    48.6    99.3  89      1517.
                -0.3642    13.3          90      1521.
  90      1528.  0.5018    25.2    99.9  89      1517.
                 0.8284    68.6          90      1521.
  91      1556. -0.3379    11.4    99.4  86      1455.
                -0.5443    29.6          91      1531.
                 0.5536    30.7          93      1574.
  92      1593.  0.4162    17.3    99.8  89      1517.
                -0.3475    12.1          90      1521.
                 0.5099    26.0          95      1586.
  93      1614. -0.6624    43.9   100.2  91      1531.
                -0.5122    26.2          93      1574.
  94      1616. -0.4440    19.7   100.1  95      1586.
                -0.7098    50.4          96      1596.
  95      1642. -0.8306    69.0   100.0  98      1635.
  96      1658. -0.4683    21.9   100.6  92      1565.
                 0.8129    66.1          94      1576.
  97      1668. -0.3668    13.5   100.8  95      1586.
                 0.3472    12.1          96      1596.
                 0.6876    47.3          97      1620.
  98      1681. -0.3750    14.1   100.8  96      1596.
                 0.4325    18.7          97      1620.
                 0.4286    18.4          98      1635.
  99      3127.  0.7028    49.4    99.9 101      3160.
                -0.3335    11.1         105      3169.
                -0.3875    15.0         108      3174.
 100      3140. -0.3439    11.8   100.0 100      3155.
                 0.3969    15.8         101      3160.
                 0.5076    25.8         105      3169.
                 0.4181    17.5         108      3174.
 101      3155.  0.9519    90.6   100.0  99      3154.
 102      3157. -0.8834    78.0   100.0 100      3155.
                -0.3988    15.9         101      3160.
 103      3158. -0.9575    91.7   100.0 102      3161.
 104      3160. -0.9205    84.7   100.0 104      3162.
 105      3163. -0.8953    80.2   100.0 103      3162.
 106      3169. -0.6688    44.7   100.0 105      3169.
                -0.3993    15.9         107      3173.
                 0.5662    32.1         108      3174.
 107      3169.  0.9159    83.9   100.0 106      3172.
 108      3173. -0.3383    11.4   100.0 106      3172.
                -0.8392    70.4         107      3173.
                -0.3192    10.2         108      3174.
 109      3181.  0.9053    82.0   100.0 109      3182.
 110      3184.  0.9122    83.2   100.0 111      3187.
 111      3184. -0.9645    93.0   100.0 110      3187.
 112      3190. -0.9730    94.7   100.0 112      3190.
 113      3198.  0.9373    87.8   100.0 113      3198.
 114      3213. -0.9433    89.0   100.0 114      3199.
 nber times 1st assigned=           1           0
 nber times 1st assigned=           2           0
 nber times 1st assigned=           3           0
 nber times 1st assigned=           4           0
 nber times 1st assigned=           5           0
 nber times 1st assigned=           6           0
 nber times 1st assigned=           7           0
 nber times 1st assigned=           8           0
 nber times 1st assigned=           9           0
 nber times 1st assigned=          10           0
 nber times 1st assigned=          11           0
 nber times 1st assigned=          12           0
 nber times 1st assigned=          13           0
 nber times 1st assigned=          14           0
 nber times 1st assigned=          15           0
 nber times 1st assigned=          16           0
 nber times 1st assigned=          17           0
 nber times 1st assigned=          18           0
 nber times 1st assigned=          19           0
 nber times 1st assigned=          20           0
 nber times 1st assigned=          21           0
 nber times 1st assigned=          22           0
 nber times 1st assigned=          23           0
 nber times 1st assigned=          24           0
 nber times 1st assigned=          25           0
 nber times 1st assigned=          26           0
 nber times 1st assigned=          27           0
 nber times 1st assigned=          28           0
 nber times 1st assigned=          29           0
 nber times 1st assigned=          30           0
 nber times 1st assigned=          31           0
 nber times 1st assigned=          32           0
 nber times 1st assigned=          33           0
 nber times 1st assigned=          34           0
 nber times 1st assigned=          35           0
 nber times 1st assigned=          36           0
 nber times 1st assigned=          37           0
 nber times 1st assigned=          38           0
 nber times 1st assigned=          39           0
 nber times 1st assigned=          40           0
 nber times 1st assigned=          41           0
 nber times 1st assigned=          42           0
 nber times 1st assigned=          43           0
 nber times 1st assigned=          44           0
 nber times 1st assigned=          45           0
 nber times 1st assigned=          46           0
 nber times 1st assigned=          47           0
 nber times 1st assigned=          48           0
 nber times 1st assigned=          49           0
 nber times 1st assigned=          50           0
 nber times 1st assigned=          51           0
 nber times 1st assigned=          52           0
 nber times 1st assigned=          53           0
 nber times 1st assigned=          54           0
 nber times 1st assigned=          55           0
 nber times 1st assigned=          56           0
 nber times 1st assigned=          57           0
 nber times 1st assigned=          58           0
 nber times 1st assigned=          59           0
 nber times 1st assigned=          60           0
 nber times 1st assigned=          61           0
 nber times 1st assigned=          62           0
 nber times 1st assigned=          63           0
 nber times 1st assigned=          64           0
 nber times 1st assigned=          65           0
 nber times 1st assigned=          66           0
 nber times 1st assigned=          67           0
 nber times 1st assigned=          68           0
 nber times 1st assigned=          69           0
 nber times 1st assigned=          70           0
 nber times 1st assigned=          71           0
 nber times 1st assigned=          72           0
 nber times 1st assigned=          73           0
 nber times 1st assigned=          74           0
 nber times 1st assigned=          75           0
 nber times 1st assigned=          76           0
 nber times 1st assigned=          77           0
 nber times 1st assigned=          78           0
 nber times 1st assigned=          79           0
 nber times 1st assigned=          80           0
 nber times 1st assigned=          81           0
 nber times 1st assigned=          82           0
 nber times 1st assigned=          83           0
 nber times 1st assigned=          84           0
 nber times 1st assigned=          85           0
 nber times 1st assigned=          86           0
 nber times 1st assigned=          87           0
 nber times 1st assigned=          88           0
 nber times 1st assigned=          89           0
 nber times 1st assigned=          90           0
 nber times 1st assigned=          91           0
 nber times 1st assigned=          92           0
 nber times 1st assigned=          93           0
 nber times 1st assigned=          94           0
 nber times 1st assigned=          95           0
 nber times 1st assigned=          96           0
 nber times 1st assigned=          97           0
 nber times 1st assigned=          98           0
 nber times 1st assigned=          99           0
 nber times 1st assigned=         100           0
 nber times 1st assigned=         101           0
 nber times 1st assigned=         102           0
 nber times 1st assigned=         103           0
 nber times 1st assigned=         104           0
 nber times 1st assigned=         105           0
 nber times 1st assigned=         106           0
 nber times 1st assigned=         107           0
 nber times 1st assigned=         108           0
 nber times 1st assigned=         109           0
 nber times 1st assigned=         110           0
 nber times 1st assigned=         111           0
 nber times 1st assigned=         112           0
 nber times 1st assigned=         113           0
 nber times 1st assigned=         114           0
 modes represented=   132.117316675294     
 p1=
   -0.   -0.   -0.   -0.    0.    0. -265.    8.  118. -104.  -26.  -41.  -33.  -23.   -4.   16.   -6.   -3.    9.    4.
    8.    0.    0.    0.   -2.    1.    1.    0.    5.   -2.   -2.   -0.   -0.   -1.   -0.   -0.   -2.   -2.    1.    0.
   -1.    0.    1.   -1.   -1.    0.   -0.    1.   -1.    0.    1.   -0.   -1.    0.   -0.   -1.   -1.    0.    3.    0.
    1.   -0.    0.   -0.    0.    0.    0.    0.   -1.    3.   -1.    0.   -1.   -0.   -4.    0.    1.    1.   -1.   -1.
    0.    3.    0.   -0.   -3.    0.    1.    0.    1.    0.    0.    4.    0.   -0.    1.   -0.   -1.    2.    0.    0.
    0.   -0.   -0.   -0.   -0.    0.   -0.    0.    0.   -0.    0.   -0.   -0.   -0.
 p2=
   -0.   -0.    0.    0.   -0.   -0.  293.   32.   28.  -27.  -25.  -10.   25.  -19.   -6.    5.  -18.   -8.   -5.   10.
    8.   -3.    4.   -1.   -4.    3.    2.   -1.   -3.   -0.    1.   -0.    1.   -2.    1.    0.    2.    2.   -0.    0.
    1.   -1.   -0.    0.    0.   -1.   -0.   -1.    1.    0.   -2.   -0.   -2.   -0.    2.    1.   -2.    1.    1.    0.
   -0.    0.   -1.   -1.   -1.   -0.    1.    1.   -1.   -2.    1.    0.   -1.    0.    1.    1.   -1.    2.    1.   -0.
    1.    5.   -1.    1.    0.    0.    1.    0.   -3.    2.    0.   -1.    0.    0.   -4.    2.   -2.   -0.    0.    0.
   -0.   -0.    0.    0.    0.   -0.   -0.    0.   -0.    0.   -0.   -0.   -0.   -0.

 Displacement: in terms of nc of 1 THEN of nc of 2

   1     freq=    -0. Q= -0.000 lam=    -0.0     freq=    -0. Q= -0.000 lam=    -0.0
   2     freq=    -0. Q= -0.000 lam=    -0.0     freq=    -0. Q= -0.000 lam=    -0.0
   3     freq=    -0. Q= -0.000 lam=    -0.0     freq=     0. Q= -0.000 lam=     0.0
   4     freq=     0. Q= -0.000 lam=     0.0     freq=     0. Q= -0.000 lam=     0.0
   5     freq=     0. Q=  0.000 lam=     0.0     freq=     0. Q=  0.000 lam=     0.0
   6     freq=     0. Q=  0.000 lam=     0.0     freq=     0. Q=  0.000 lam=     0.0
   7     freq=    25. Q= -5.313 lam=   349.4     freq=    24. Q= -5.729 lam=   386.0
   8     freq=    40. Q=  0.216 lam=     0.9     freq=    41. Q=  0.821 lam=    13.9
   9     freq=    46. Q=  3.239 lam=   241.0     freq=    45. Q=  0.747 lam=    12.5
  10     freq=    82. Q= -3.819 lam=   600.8     freq=    74. Q= -0.935 lam=    32.4
  11     freq=    94. Q= -1.014 lam=    48.6     freq=   102. Q= -1.018 lam=    52.7
  12     freq=   124. Q= -1.847 lam=   211.9     freq=   125. Q= -0.451 lam=    12.7
  13     freq=   139. Q= -1.580 lam=   173.8     freq=   158. Q= -1.289 lam=   131.6
  14     freq=   174. Q= -1.211 lam=   127.6     freq=   189. Q= -1.052 lam=   104.4
  15     freq=   235. Q= -0.254 lam=     7.6     freq=   225. Q= -0.379 lam=    16.1
  16     freq=   246. Q=  0.997 lam=   122.4     freq=   237. Q=  0.297 lam=    10.4
  17     freq=   265. Q= -0.373 lam=    18.4     freq=   261. Q= -1.153 lam=   173.2
  18     freq=   304. Q= -0.237 lam=     8.5     freq=   299. Q= -0.588 lam=    51.6
  19     freq=   341. Q=  0.647 lam=    71.3     freq=   308. Q=  0.325 lam=    16.3
  20     freq=   387. Q=  0.354 lam=    24.2     freq=   377. Q=  0.777 lam=   113.7
  21     freq=   398. Q=  0.660 lam=    86.7     freq=   392. Q=  0.661 lam=    85.5
  22     freq=   414. Q=  0.012 lam=     0.0     freq=   412. Q=  0.278 lam=    15.9
  23     freq=   424. Q=  0.018 lam=     0.1     freq=   415. Q=  0.301 lam=    18.8
  24     freq=   441. Q=  0.021 lam=     0.1     freq=   438. Q=  0.083 lam=     1.5
  25     freq=   485. Q= -0.197 lam=     9.4     freq=   462. Q= -0.334 lam=    25.7
  26     freq=   506. Q=  0.083 lam=     1.7     freq=   490. Q=  0.243 lam=    14.5
  27     freq=   506. Q=  0.080 lam=     1.6     freq=   518. Q=  0.177 lam=     8.1
  28     freq=   549. Q=  0.004 lam=     0.0     freq=   521. Q=  0.061 lam=     1.0
  29     freq=   559. Q=  0.461 lam=    59.3     freq=   553. Q=  0.253 lam=    17.7
  30     freq=   580. Q= -0.161 lam=     7.5     freq=   574. Q= -0.048 lam=     0.7
  31     freq=   612. Q= -0.235 lam=    16.9     freq=   605. Q= -0.141 lam=     6.0
  32     freq=   624. Q= -0.048 lam=     0.7     freq=   613. Q= -0.049 lam=     0.7
  33     freq=   635. Q= -0.024 lam=     0.2     freq=   631. Q= -0.083 lam=     2.2
  34     freq=   654. Q= -0.089 lam=     2.6     freq=   637. Q= -0.233 lam=    17.2
  35     freq=   670. Q= -0.030 lam=     0.3     freq=   665. Q= -0.119 lam=     4.7
  36     freq=   706. Q= -0.000 lam=     0.0     freq=   693. Q= -0.010 lam=     0.0
  37     freq=   725. Q= -0.206 lam=    15.4     freq=   718. Q= -0.236 lam=    19.9
  38     freq=   749. Q= -0.204 lam=    15.6     freq=   723. Q= -0.195 lam=    13.8
  39     freq=   757. Q=  0.125 lam=     5.9     freq=   732. Q=  0.004 lam=     0.0
  40     freq=   764. Q=  0.047 lam=     0.9     freq=   743. Q=  0.022 lam=     0.2
  41     freq=   771. Q= -0.144 lam=     8.0     freq=   754. Q= -0.085 lam=     2.7
  42     freq=   799. Q=  0.036 lam=     0.5     freq=   769. Q=  0.066 lam=     1.7
  43     freq=   839. Q=  0.109 lam=     5.0     freq=   821. Q=  0.017 lam=     0.1
  44     freq=   849. Q= -0.085 lam=     3.1     freq=   833. Q= -0.010 lam=     0.0
  45     freq=   854. Q= -0.166 lam=    11.8     freq=   838. Q= -0.020 lam=     0.2
  46     freq=   868. Q=  0.048 lam=     1.0     freq=   852. Q=  0.064 lam=     1.7
  47     freq=   868. Q= -0.001 lam=     0.0     freq=   869. Q= -0.009 lam=     0.0
  48     freq=   893. Q=  0.071 lam=     2.2     freq=   874. Q=  0.087 lam=     3.3
  49     freq=   895. Q= -0.116 lam=     6.0     freq=   882. Q= -0.080 lam=     2.8
  50     freq=   902. Q=  0.028 lam=     0.4     freq=   894. Q=  0.049 lam=     1.1
  51     freq=   929. Q=  0.077 lam=     2.8     freq=   911. Q=  0.243 lam=    26.8
  52     freq=   950. Q= -0.038 lam=     0.7     freq=   916. Q= -0.010 lam=     0.0
  53     freq=   970. Q= -0.076 lam=     2.8     freq=   932. Q= -0.260 lam=    31.5
  54     freq=   976. Q=  0.016 lam=     0.1     freq=   945. Q=  0.056 lam=     1.5
  55     freq=   977. Q= -0.019 lam=     0.2     freq=   955. Q= -0.270 lam=    34.9
  56     freq=   995. Q= -0.075 lam=     2.8     freq=   958. Q= -0.137 lam=     9.0
  57     freq=   997. Q= -0.180 lam=    16.2     freq=   966. Q= -0.293 lam=    41.6
  58     freq=  1000. Q=  0.039 lam=     0.7     freq=   974. Q=  0.105 lam=     5.4
  59     freq=  1010. Q=  0.358 lam=    64.7     freq=   993. Q=  0.069 lam=     2.4
  60     freq=  1016. Q=  0.046 lam=     1.1     freq=  1007. Q=  0.046 lam=     1.1
  61     freq=  1040. Q=  0.087 lam=     3.9     freq=  1044. Q=  0.017 lam=     0.2
  62     freq=  1042. Q= -0.048 lam=     1.2     freq=  1058. Q= -0.032 lam=     0.5
  63     freq=  1050. Q=  0.012 lam=     0.1     freq=  1065. Q=  0.130 lam=     9.0
  64     freq=  1078. Q= -0.024 lam=     0.3     freq=  1096. Q= -0.099 lam=     5.4
  65     freq=  1106. Q=  0.013 lam=     0.1     freq=  1107. Q=  0.117 lam=     7.6
  66     freq=  1128. Q=  0.025 lam=     0.3     freq=  1110. Q=  0.062 lam=     2.1
  67     freq=  1168. Q=  0.040 lam=     1.0     freq=  1160. Q=  0.069 lam=     2.7
  68     freq=  1183. Q=  0.009 lam=     0.1     freq=  1177. Q=  0.149 lam=    13.1
  69     freq=  1184. Q= -0.113 lam=     7.6     freq=  1181. Q= -0.098 lam=     5.7
  70     freq=  1198. Q=  0.359 lam=    77.3     freq=  1184. Q=  0.225 lam=    30.0
  71     freq=  1203. Q= -0.087 lam=     4.6     freq=  1200. Q= -0.178 lam=    19.1
  72     freq=  1205. Q=  0.005 lam=     0.0     freq=  1208. Q=  0.057 lam=     2.0
  73     freq=  1231. Q= -0.122 lam=     9.2     freq=  1236. Q= -0.202 lam=    25.3
  74     freq=  1248. Q= -0.056 lam=     2.0     freq=  1258. Q= -0.066 lam=     2.7
  75     freq=  1282. Q= -0.647 lam=   268.6     freq=  1271. Q= -0.078 lam=     3.9
  76     freq=  1283. Q=  0.024 lam=     0.4     freq=  1290. Q=  0.163 lam=    17.1
  77     freq=  1308. Q=  0.150 lam=    14.6     freq=  1302. Q=  0.136 lam=    12.0
  78     freq=  1329. Q=  0.093 lam=     5.7     freq=  1321. Q=  0.264 lam=    46.0
  79     freq=  1346. Q= -0.144 lam=    14.0     freq=  1330. Q= -0.108 lam=     7.8
  80     freq=  1352. Q= -0.184 lam=    22.8     freq=  1346. Q= -0.014 lam=     0.1
  81     freq=  1359. Q=  0.068 lam=     3.2     freq=  1359. Q=  0.141 lam=    13.4
  82     freq=  1377. Q=  0.383 lam=   101.2     freq=  1371. Q=  0.724 lam=   359.4
  83     freq=  1400. Q=  0.011 lam=     0.1     freq=  1377. Q=  0.199 lam=    27.2
  84     freq=  1415. Q= -0.022 lam=     0.3     freq=  1399. Q= -0.076 lam=     4.0
  85     freq=  1435. Q= -0.497 lam=   177.1     freq=  1429. Q= -0.004 lam=     0.0
  86     freq=  1477. Q=  0.039 lam=     1.1     freq=  1455. Q=  0.037 lam=     1.0
  87     freq=  1481. Q=  0.171 lam=    21.6     freq=  1471. Q=  0.173 lam=    21.9
  88     freq=  1481. Q=  0.020 lam=     0.3     freq=  1479. Q=  0.063 lam=     2.9
  89     freq=  1518. Q=  0.126 lam=    12.0     freq=  1517. Q=  0.488 lam=   180.5
  90     freq=  1528. Q=  0.044 lam=     1.5     freq=  1521. Q=  0.307 lam=    71.8
  91     freq=  1556. Q=  0.038 lam=     1.1     freq=  1531. Q=  0.057 lam=     2.5
  92     freq=  1593. Q=  0.702 lam=   392.3     freq=  1565. Q=  0.151 lam=    17.8
  93     freq=  1614. Q=  0.051 lam=     2.1     freq=  1574. Q=  0.071 lam=     4.0
  94     freq=  1616. Q= -0.067 lam=     3.7     freq=  1576. Q= -0.026 lam=     0.5
  95     freq=  1642. Q=  0.156 lam=    19.9     freq=  1586. Q=  0.624 lam=   308.9
  96     freq=  1658. Q= -0.072 lam=     4.3     freq=  1596. Q= -0.273 lam=    59.3
  97     freq=  1668. Q= -0.151 lam=    18.9     freq=  1620. Q= -0.312 lam=    79.1
  98     freq=  1681. Q=  0.285 lam=    68.3     freq=  1635. Q=  0.020 lam=     0.3
  99     freq=  3127. Q=  0.003 lam=     0.0     freq=  3154. Q=  0.003 lam=     0.0
 100     freq=  3140. Q=  0.013 lam=     0.3     freq=  3155. Q=  0.007 lam=     0.1
 101     freq=  3155. Q=  0.003 lam=     0.0     freq=  3160. Q=  0.028 lam=     1.3
 102     freq=  3157. Q= -0.004 lam=     0.0     freq=  3161. Q= -0.000 lam=     0.0
 103     freq=  3158. Q= -0.001 lam=     0.0     freq=  3162. Q= -0.001 lam=     0.0
 104     freq=  3160. Q= -0.006 lam=     0.1     freq=  3162. Q= -0.004 lam=     0.0
 105     freq=  3163. Q= -0.001 lam=     0.0     freq=  3169. Q= -0.010 lam=     0.2
 106     freq=  3169. Q=  0.006 lam=     0.0     freq=  3172. Q=  0.006 lam=     0.1
 107     freq=  3169. Q= -0.010 lam=     0.2     freq=  3173. Q= -0.007 lam=     0.1
 108     freq=  3173. Q=  0.001 lam=     0.0     freq=  3174. Q=  0.031 lam=     1.5
 109     freq=  3181. Q=  0.002 lam=     0.0     freq=  3182. Q=  0.002 lam=     0.0
 110     freq=  3184. Q= -0.015 lam=     0.4     freq=  3187. Q= -0.006 lam=     0.1
 111     freq=  3184. Q=  0.015 lam=     0.4     freq=  3187. Q=  0.027 lam=     1.2
 112     freq=  3190. Q= -0.003 lam=     0.0     freq=  3190. Q= -0.007 lam=     0.1
 113     freq=  3198. Q= -0.021 lam=     0.7     freq=  3198. Q= -0.055 lam=     4.9
 114     freq=  3213. Q= -0.013 lam=     0.3     freq=  3199. Q= -0.007 lam=     0.1

 total reorg energy (cm**-1, kcal/mol)=     3626.     2926.     10.37      8.37
 Nber of molecules processed=           2
