 Enter ifcurve (0=recti, 1=orth curvi, 2=apprx curvi, -1 = skip
 And atom ordering flag, 0= never changes, 1= use the first order thenceforth,
  2= deduce it (does read on fail), 3= always read it
 Reading file: 
 ./conjugated_carbonyls_0_C0S0.log                                              
                                          
  Entering Gaussian System, Link 0=g16                                          
  
 Gaussian format, type: g94, g98, g03= F F F
  #P Geom=AllCheck Guess=TCheck SCRF=Check Test GenChk RB3LYP/6-311G(d,p    
 energy type= B3LYP   
 Original G94 input coords:
  8  1.367680 -3.579487  0.000000
  6  0.774346 -2.525803  0.000000
  6 -0.774346 -2.525803  0.000000
  8 -1.367680 -3.579487  0.000000
  6 -1.463210 -1.209034  0.000000
  6 -2.862071 -1.198466  0.000000
  6 -3.564760  0.000000  0.000000
  6 -2.862071  1.198466  0.000000
  6 -1.463210  1.209034  0.000000
  6 -0.774346  2.525803  0.000000
  8 -1.367680  3.579487  0.000000
  6  0.774346  2.525803  0.000000
  8  1.367680  3.579487  0.000000
  6  1.463210  1.209034  0.000000
  6  2.862071  1.198466  0.000000
  6  3.564760  0.000000  0.000000
  6  2.862071 -1.198466  0.000000
  6  1.463210 -1.209034  0.000000
  6  0.737892  0.000000  0.000000
  6 -0.737892  0.000000  0.000000
  1 -3.373441 -2.153498  0.000000
  1 -4.647978  0.000000  0.000000
  1 -3.373441  2.153498  0.000000
  1  3.373441  2.153498  0.000000
  1  4.647978  0.000000  0.000000
  1  3.373441 -2.153498  0.000000
 nber atoms=          26
  SCF Done:  E(RB3LYP) =  -914.431779943     A.U. after    1 cycles             
  
          23          40 "  -914.431779943"
After scan for Atom:   Atom  AN      X      Y      Z        X      Y      Z        X      Y      Z   
After scan for Atom:   Atom  AN      X      Y      Z        X      Y      Z        X      Y      Z   
After scan for Atom:   Atom  AN      X      Y      Z        X      Y      Z        X      Y      Z   
After scan for Atom:   Atom  AN      X      Y      Z        X      Y      Z        X      Y      Z   
After scan for Atom:   Atom  AN      X      Y      Z        X      Y      Z        X      Y      Z   
After scan for Atom:   Atom  AN      X      Y      Z        X      Y      Z        X      Y      Z   
After scan for Atom:   Atom  AN      X      Y      Z        X      Y      Z        X      Y      Z   
After scan for Atom:   Atom  AN      X      Y      Z        X      Y      Z        X      Y      Z   
After scan for Atom:   Atom  AN      X      Y      Z        X      Y      Z        X      Y      Z   
After scan for Atom:   Atom  AN      X      Y      Z        X      Y      Z        X      Y      Z   
After scan for Atom:   Atom  AN      X      Y      Z        X      Y      Z        X      Y      Z   
After scan for Atom:   Atom  AN      X      Y      Z        X      Y      Z        X      Y      Z   
After scan for Atom:   Atom  AN      X      Y      Z        X      Y      Z        X      Y      Z   
After scan for Atom:   Atom  AN      X      Y      Z        X      Y      Z        X      Y      Z   
After scan for Atom:   Atom  AN      X      Y      Z        X      Y      Z        X      Y      Z   
After scan for Atom:   Atom  AN      X      Y      Z        X      Y      Z        X      Y      Z   
After scan for Atom:   Atom  AN      X      Y      Z        X      Y      Z        X      Y      Z   
After scan for Atom:   Atom  AN      X      Y      Z        X      Y      Z        X      Y      Z   
After scan for Atom:   Atom  AN      X      Y      Z        X      Y      Z        X      Y      Z   
After scan for Atom:   Atom  AN      X      Y      Z        X      Y      Z        X      Y      Z   
After scan for Atom:   Atom  AN      X      Y      Z        X      Y      Z        X      Y      Z   
After scan for Atom:   Atom  AN      X      Y      Z        X      Y      Z        X      Y      Z   
After scan for Atom:   Atom  AN      X      Y      Z        X      Y      Z        X      Y      Z   
After scan for Atom:   Atom  AN      X      Y      Z        X      Y      Z        X      Y      Z   
 g94    frequencies=
     0.0    0.0    0.0    0.0    0.0    0.0   35.5   55.7   57.6  141.0
   170.1  178.4  281.3  293.0  320.1  335.8  347.0  369.7  371.4  376.2
   378.5  442.8  450.0  473.6  506.9  507.2  529.3  565.5  614.3  645.6
   661.2  741.7  743.7  762.5  796.4  798.0  827.8  839.1  846.7  888.6
   920.8  994.3  999.1 1018.1 1020.8 1029.8 1031.5 1052.4 1060.2 1104.7
  1118.8 1191.2 1191.8 1267.9 1278.2 1282.2 1289.2 1307.3 1339.2 1358.1
  1453.2 1477.9 1494.4 1497.5 1600.3 1618.1 1620.8 1630.9 1753.6 1760.1
  1779.8 1784.1 3184.0 3184.1 3198.5 3198.6 3203.9 3204.0
 g94    symmetries=
                                                 A      A      A      A
       A      A      A      A      A      A      A      A      A      A
       A      A      A      A      A      A      A      A      A      A
       A      A      A      A      A      A      A      A      A      A
       A      A      A      A      A      A      A      A      A      A
       A      A      A      A      A      A      A      A      A      A
       A      A      A      A      A      A      A      A      A      A
       A      A      A      A      A      A      A      A
 atomic masses:
 15.9949 12.0000 12.0000 15.9949 12.0000 12.0000 12.0000 12.0000 12.0000 12.0000
 15.9949 12.0000 15.9949 12.0000 12.0000 12.0000 12.0000 12.0000 12.0000 12.0000
  1.0078  1.0078  1.0078  1.0078  1.0078  1.0078
 looking for force constants in 
 ./conjugated_carbonyls_0_C0S0.fchk                                             
  
 Cartesian Force Constants                  R   N=        3081                  
  
 n3=          78        3081
 g94-fc frequencies=
    -2.0   -0.0   -0.0    0.0    1.2    2.7   35.5   55.7   57.6  141.1
   170.1  178.4  281.3  293.0  320.1  335.8  347.0  369.7  371.4  376.2
   378.5  442.8  450.0  473.6  506.9  507.2  529.3  565.5  614.4  645.6
   661.2  741.7  743.7  762.6  796.4  798.0  827.8  839.1  846.8  888.7
   920.8  994.3  999.1 1018.1 1020.8 1029.8 1031.5 1052.4 1060.2 1104.7
  1118.9 1191.3 1191.8 1268.0 1278.2 1282.2 1289.3 1307.3 1339.2 1358.1
  1453.2 1477.9 1494.4 1497.6 1600.4 1618.1 1620.8 1630.9 1753.6 1760.1
  1779.9 1784.1 3184.1 3184.1 3198.5 3198.7 3204.0 3204.1
 at 99999: n3=          78
 symm operator            1 :  T  nop=           1
 symm operator            2 :  T  nop=           2
 symm operator            3 :  T  nop=           3
 symm operator            4 :  T  nop=           4
 symm operator            5 :  T  nop=           5
 symm operator            6 :  T  nop=           6
 symm operator            7 :  T  nop=           7
 The point group of the molecule is D2H
 enforcing symm op           1  jsymt=          -1          -1           1
 enforcing symm op           2  jsymt=          -1           1          -1
 enforcing symm op           3  jsymt=           1          -1          -1
 enforcing symm op           4  jsymt=          -1          -1          -1
 enforcing symm op           5  jsymt=           1           1          -1
 enforcing symm op           6  jsymt=           1          -1           1
 enforcing symm op           7  jsymt=          -1           1           1
 cartesian coord symmetries:
 Ag :   13 Au :    5 B1g:   13 B1u:    8 B2g:    8 B2u:   13 B3g:    5 B3u:   13
 Symmetry rotation matrix:
   1.00000   0.00000   0.00000
   0.00000   1.00000   0.00000
   0.00000   0.00000   1.00000

 Projecting out zero-frequency components
 generating redundant internal coords
         300        3600          26
 search for int coords
   1 str   2   1   1.209
   2 str   3   2   1.549
   3 str   4   3   1.209
   4 str   5   3   1.486
   5 str   6   5   1.399
   6 str   7   6   1.389
   7 str   8   7   1.389
   8 str   9   8   1.399
   9 str  10   9   1.486
  10 str  11  10   1.209
  11 str  12  10   1.549
  12 str  13  12   1.209
  13 str  14  12   1.486
  14 str  15  14   1.399
  15 str  16  15   1.389
  16 str  17  16   1.389
  17 str  18   2   1.486
  18 str  18  17   1.399
  19 str  19  14   1.410
  20 str  19  18   1.410
  21 str  20   5   1.410
  22 str  20   9   1.410
  23 str  20  19   1.476
  24 str  21   6   1.083
  25 str  22   7   1.083
  26 str  23   8   1.083
  27 str  24  15   1.083
  28 str  25  16   1.083
  29 str  26  17   1.083
 nber stretches=          29
  30 ben   1   2   3
  31 prop tor   1   2   3   4
  32 prop tor   1   2   3   5
  33 ben   1   2  18
  34 prop tor   1   2  18  17
  35 prop tor   1   2  18  19
  36 ben   2   3   4
  37 ben   2   3   5
  38 prop tor   2   3   5   6
  39 prop tor   2   3   5  20
  40 ben   2  18  17
  41 ben   2  18  19
  42 prop tor   2  18  19  14
  43 prop tor   2  18  19  20
  44 ben   3   2  18
  45 prop tor   3   2  18  17
  46 prop tor   3   2  18  19
  47 ben   3   5   6
  48 prop tor   3   5   6   7
  49 prop tor   3   5   6  21
  50 ben   3   5  20
  51 prop tor   3   5  20   9
  52 prop tor   3   5  20  19
  53 ben   4   3   5
  54 prop tor   4   3   5   6
  55 prop tor   4   3   5  20
  56 ben   5   6   7
  57 prop tor   5   6   7   8
  58 prop tor   5   6   7  22
  59 ben   5   6  21
  60 ben   5  20   9
  61 ben   5  20  19
  62 ben   6   5  20
  63 prop tor   6   5  20   9
  64 prop tor   6   5  20  19
  65 ben   6   7   8
  66 prop tor   6   7   8   9
  67 prop tor   6   7   8  23
  68 ben   6   7  22
  69 ben   7   6  21
  70 ben   7   8   9
  71 prop tor   7   8   9  10
  72 prop tor   7   8   9  20
  73 ben   7   8  23
  74 ben   8   7  22
  75 ben   8   9  10
  76 prop tor   8   9  10  11
  77 prop tor   8   9  10  12
  78 ben   8   9  20
  79 prop tor   8   9  20   5
  80 prop tor   8   9  20  19
  81 ben   9   8  23
  82 ben   9  10  11
  83 ben   9  10  12
  84 prop tor   9  10  12  13
  85 prop tor   9  10  12  14
  86 ben   9  20  19
  87 ben  10   9  20
  88 prop tor  10   9  20   5
  89 prop tor  10   9  20  19
  90 ben  10  12  13
  91 ben  10  12  14
  92 prop tor  10  12  14  15
  93 prop tor  10  12  14  19
  94 ben  11  10  12
  95 prop tor  11  10  12  13
  96 prop tor  11  10  12  14
  97 ben  12  14  15
  98 prop tor  12  14  15  16
  99 prop tor  12  14  15  24
 100 ben  12  14  19
 101 prop tor  12  14  19  18
 102 prop tor  12  14  19  20
 103 ben  13  12  14
 104 prop tor  13  12  14  15
 105 prop tor  13  12  14  19
 106 ben  14  15  16
 107 prop tor  14  15  16  17
 108 prop tor  14  15  16  25
 109 ben  14  15  24
 110 ben  14  19  18
 111 ben  14  19  20
 112 prop tor  14  19  20   5
 113 prop tor  14  19  20   9
 114 ben  15  14  19
 115 prop tor  15  14  19  18
 116 prop tor  15  14  19  20
 117 ben  15  16  17
 118 prop tor  15  16  17  18
 119 prop tor  15  16  17  26
 120 ben  15  16  25
 121 ben  16  15  24
 122 ben  16  17  18
 123 prop tor  16  17  18   2
 124 prop tor  16  17  18  19
 125 ben  16  17  26
 126 ben  17  16  25
 127 ben  17  18  19
 128 prop tor  17  18  19  14
 129 prop tor  17  18  19  20
 130 prop tor  18   2   3   4
 131 prop tor  18   2   3   5
 132 ben  18  17  26
 133 ben  18  19  20
 134 prop tor  18  19  20   5
 135 prop tor  18  19  20   9
 136 prop tor  19  14  15  16
 137 prop tor  19  14  15  24
 138 prop tor  20   5   6   7
 139 prop tor  20   5   6  21
 140 prop tor  20   9  10  11
 141 prop tor  20   9  10  12
 142 prop tor  21   6   7   8
 143 prop tor  21   6   7  22
 144 prop tor  22   7   8   9
 145 prop tor  22   7   8  23
 146 prop tor  23   8   9  10
 147 prop tor  23   8   9  20
 148 prop tor  24  15  16  17
 149 prop tor  24  15  16  25
 150 prop tor  25  16  17  18
 151 prop tor  25  16  17  26
 152 prop tor  26  17  18   2
 153 prop tor  26  17  18  19
 nber bend=              48
 nber lin bend=           0
 nber prop tor=          76
 nber impr tor=           0
 nber tot redund int=         153
 Eigenvalues of G in red int coords
    Gval -0.00000000 -0.00000000 -0.00000000 -0.00000000 -0.00000000 -0.00000000 -0.00000000 -0.00000000
    Gval -0.00000000 -0.00000000 -0.00000000 -0.00000000 -0.00000000 -0.00000000 -0.00000000 -0.00000000
    Gval -0.00000000 -0.00000000 -0.00000000 -0.00000000 -0.00000000 -0.00000000 -0.00000000 -0.00000000
    Gval -0.00000000 -0.00000000 -0.00000000 -0.00000000 -0.00000000 -0.00000000 -0.00000000 -0.00000000
    Gval -0.00000000 -0.00000000 -0.00000000 -0.00000000 -0.00000000 -0.00000000 -0.00000000 -0.00000000
    Gval  0.00000000  0.00000000  0.00000000  0.00000000  0.00000000  0.00000000  0.00000000  0.00000000
    Gval  0.00000000  0.00000000  0.00000000  0.00000000  0.00000000  0.00000000  0.00000000  0.00000000
    Gval  0.00000000  0.00000000  0.00000000  0.00000000  0.00000000  0.00000000  0.00000000  0.00000000
    Gval  0.00000000  0.00000000  0.00000000  0.00000000  0.00000000  0.00000000  0.00000000  0.00000000
    Gval  0.00000000  0.00000000  0.00000000  0.00000000  0.00000000  0.00000000  0.00000000  0.00000000
    Gval  0.00000000  0.00000962  0.00000976  0.00001153  0.00001378  0.00001487  0.00001945  0.00002409
    Gval  0.00002486  0.00002600  0.00003113  0.00003944  0.00004530  0.00004822  0.00005391  0.00006202
    Gval  0.00006330  0.00006402  0.00006737  0.00008496  0.00008946  0.00009454  0.00009869  0.00011003
    Gval  0.00011204  0.00011793  0.00013402  0.00015166  0.00016000  0.00017515  0.00020950  0.00021279
    Gval  0.00021529  0.00026051  0.00030515  0.00032034  0.00032110  0.00032280  0.00038366  0.00038682
    Gval  0.00038711  0.00040291  0.00040635  0.00044562  0.00045785  0.00048163  0.00056480  0.00059431
    Gval  0.00059431  0.00060899  0.00061014  0.00065044  0.00065074  0.00074933  0.00077002  0.00100238
    Gval  0.00106834  0.00106879  0.00110209  0.00114166  0.00114168  0.00117345  0.00117352  0.00125089
    Gval  0.00160258  0.00174283  0.00195232  0.00213872  0.00261980  0.00310108  0.00310860  0.00396413
    Gval  0.00396465
  9.616377724311596E-006  9.616377724311596E-006
  9.760754718762974E-006  9.616377724311596E-006
  1.153393765766237E-005  9.616377724311596E-006
  1.377872948333587E-005  9.616377724311596E-006
  1.487033723968851E-005  9.616377724311596E-006
  1.944830727176225E-005  9.616377724311596E-006
  2.408629584371653E-005  9.616377724311596E-006
  2.485713737434344E-005  9.616377724311596E-006
  2.600473315097066E-005  9.616377724311596E-006
  3.113059342309611E-005  9.616377724311596E-006
  3.943855919503740E-005  9.616377724311596E-006
  4.530465545552927E-005  9.616377724311596E-006
  4.821878717451659E-005  9.616377724311596E-006
  5.390779088283285E-005  9.616377724311596E-006
  6.202406699070357E-005  9.616377724311596E-006
  6.329624094704522E-005  9.616377724311596E-006
  6.401617834533529E-005  9.616377724311596E-006
  6.736791650707827E-005  9.616377724311596E-006
  8.495565340209064E-005  9.616377724311596E-006
  8.946074532160889E-005  9.616377724311596E-006
  9.453798452642881E-005  9.616377724311596E-006
  9.868990481178347E-005  9.616377724311596E-006
  1.100285819627971E-004  9.616377724311596E-006
  1.120406095832757E-004  9.616377724311596E-006
  1.179251529244400E-004  9.616377724311596E-006
  1.340178596425266E-004  9.616377724311596E-006
  1.516592876508999E-004  9.616377724311596E-006
  1.599957453937101E-004  9.616377724311596E-006
  1.751539729330659E-004  9.616377724311596E-006
  2.094985488915117E-004  9.616377724311596E-006
  2.127912483537045E-004  9.616377724311596E-006
  2.152926337486666E-004  9.616377724311596E-006
  2.605064871800400E-004  9.616377724311596E-006
  3.051486650854666E-004  9.616377724311596E-006
  3.203384873742021E-004  9.616377724311596E-006
  3.211045688272535E-004  9.616377724311596E-006
  3.227967004190828E-004  9.616377724311596E-006
  3.836558627163219E-004  9.616377724311596E-006
  3.868179911369451E-004  9.616377724311596E-006
  3.871062814613903E-004  9.616377724311596E-006
  4.029114070484680E-004  9.616377724311596E-006
  4.063515268191875E-004  9.616377724311596E-006
  4.456218478756603E-004  9.616377724311596E-006
  4.578510379877402E-004  9.616377724311596E-006
  4.816321890557136E-004  9.616377724311596E-006
  5.648024338925170E-004  9.616377724311596E-006
  5.943050446013967E-004  9.616377724311596E-006
  5.943084273997677E-004  9.616377724311596E-006
  6.089866784367667E-004  9.616377724311596E-006
  6.101425875717590E-004  9.616377724311596E-006
  6.504447590821419E-004  9.616377724311596E-006
  6.507350892841640E-004  9.616377724311596E-006
  7.493289846877828E-004  9.616377724311596E-006
  7.700162466397302E-004  9.616377724311596E-006
  1.002375531829674E-003  9.616377724311596E-006
  1.068337272062301E-003  9.616377724311596E-006
  1.068785543062954E-003  9.616377724311596E-006
  1.102092705530509E-003  9.616377724311596E-006
  1.141657070219995E-003  9.616377724311596E-006
  1.141677759941884E-003  9.616377724311596E-006
  1.173452546228577E-003  9.616377724311596E-006
  1.173523780029482E-003  9.616377724311596E-006
  1.250894465558750E-003  9.616377724311596E-006
  1.602583734882927E-003  9.616377724311596E-006
  1.742825003281112E-003  9.616377724311596E-006
  1.952317206923633E-003  9.616377724311596E-006
  2.138718189938055E-003  9.616377724311596E-006
  2.619801606114220E-003  9.616377724311596E-006
  3.101082625861235E-003  9.616377724311596E-006
  3.108596734902657E-003  9.616377724311596E-006
  3.964134672354221E-003  9.616377724311596E-006
  3.964645289584364E-003  9.616377724311596E-006
 cut=1d-8, nber non-redundant internal coords=          72
 Check on Eigenvals of non-red overlap matrix:
  0.00000962  0.00000976  0.00001153  0.00001378  0.00001487  0.00001945  0.00002409  0.00002486
  0.00002600  0.00003113  0.00003944  0.00004530  0.00004822  0.00005391  0.00006202  0.00006330
  0.00006402  0.00006737  0.00008496  0.00008946  0.00009454  0.00009869  0.00011003  0.00011204
  0.00011793  0.00013402  0.00015166  0.00016000  0.00017515  0.00020950  0.00021279  0.00021529
  0.00026051  0.00030515  0.00032034  0.00032110  0.00032280  0.00038366  0.00038682  0.00038711
  0.00040291  0.00040635  0.00044562  0.00045785  0.00048163  0.00056480  0.00059431  0.00059431
  0.00060899  0.00061014  0.00065044  0.00065074  0.00074933  0.00077002  0.00100238  0.00106834
  0.00106879  0.00110209  0.00114166  0.00114168  0.00117345  0.00117352  0.00125089  0.00160258
  0.00174283  0.00195232  0.00213872  0.00261980  0.00310108  0.00310860  0.00396413  0.00396465
 Checking for correct frequencies
 recalc frequencies=
    -0.0   -0.0   -0.0    0.0    0.0    0.0   35.5   55.7   57.6  141.1
   170.1  178.4  281.3  293.0  320.1  335.8  347.0  369.7  371.4  376.2
   378.5  442.8  450.0  473.6  506.9  507.2  529.3  565.5  614.4  645.6
   661.2  741.7  743.7  762.6  796.4  798.0  827.8  839.1  846.8  888.7
   920.8  994.3  999.1 1018.1 1020.8 1029.8 1031.5 1052.4 1060.2 1104.7
  1118.9 1191.3 1191.8 1268.0 1278.2 1282.2 1289.3 1307.3 1339.2 1358.1
  1453.2 1477.9 1494.4 1497.6 1600.4 1618.1 1620.8 1630.9 1753.6 1760.1
  1779.9 1784.1 3184.1 3184.1 3198.5 3198.7 3204.0 3204.1
 recalc symmetries=
     B1g    B3u    B3g    B2g    B1u    B2u    Au     B2g    B1u    B1u
     B3g    Au     B2g    B3u    B2u    B1g    Ag     B3g    B1g    B2u
     Ag     B1u    Ag     Au     B2u    B1u    B3u    B2g    B3g    B1g
     B3u    B2g    B1u    B1g    Ag     B2g    B2u    B1u    Au     B2g
     B3u    B3g    Au     Ag     B3u    B1u    B2g    B1g    B2u    Ag 
     B3u    B1g    B2u    B1g    B3u    Ag     B2u    Ag     B1g    B2u
     B3u    B2u    Ag     B1g    B2u    Ag     B3u    B1g    B2u    Ag 
     B1g    B3u    B3u    Ag     B1g    B2u    B3u    Ag 
 recalc freqs check OK
 Zero-point lengths:
 10.0000 10.0000 10.0000 10.0000 10.0000 10.0000 41.6114 33.2167 32.6728 20.8740
 19.0096 18.5624 14.7803 14.4832 13.8568 13.5293 13.3091 12.8941 12.8641 12.7809
 12.7425 11.7814 11.6865 11.3920 11.0107 11.0076 10.7756 10.4250 10.0020  9.7567
  9.6411  9.1031  9.0908  8.9775  8.7848  8.7760  8.6164  8.5582  8.5196  8.3163
  8.1699  7.8619  7.8431  7.7694  7.7592  7.7252  7.7189  7.6420  7.6137  7.4587
  7.4115  7.1827  7.1811  6.9621  6.9342  6.9234  6.9044  6.8565  6.7744  6.7271
  6.5033  6.4487  6.4130  6.4063  6.1970  6.1630  6.1579  6.1387  5.9201  5.9091
  5.8763  5.8693  4.3934  4.3934  4.3835  4.3834  4.3798  4.3797
 highest evec of mol 1
 -0.0011  0.0006  0.0000
  0.0014 -0.0014  0.0000
 -0.0014 -0.0014  0.0000
  0.0011  0.0006  0.0000
  0.0040 -0.0004  0.0000
 -0.0549 -0.1107  0.0000
 -0.1164  0.0000  0.0000
 -0.0549  0.1107  0.0000
  0.0040  0.0004  0.0000
 -0.0014  0.0014  0.0000
  0.0011 -0.0006  0.0000
  0.0014  0.0014  0.0000
 -0.0011 -0.0006  0.0000
 -0.0040  0.0004  0.0000
  0.0549  0.1107  0.0000
  0.1164  0.0000  0.0000
  0.0549 -0.1107  0.0000
 -0.0040 -0.0004  0.0000
 -0.0012  0.0000  0.0000
  0.0012  0.0000  0.0000
  0.1913  0.3513  0.0000
  0.3686  0.0000  0.0000
  0.1913 -0.3513  0.0000
 -0.1913 -0.3513  0.0000
 -0.3686  0.0000  0.0000
 -0.1913  0.3513  0.0000
 generating redundant internal coords
         300        3600          26
 Adding extra bonds for z output only
           8           6           6           8           6           6
           6           6           6           6           8           6
           8           6           6           6           6           6
           6           6           1           1           1           1
           1           1
 search for int coords
   1 str   2   1   1.209
   2 str   3   2   1.549
   3 str   4   3   1.209
   4 str   5   3   1.486
   5 str   6   5   1.399
   6 str   7   6   1.389
   7 str   8   7   1.389
   8 str   9   8   1.399
   9 str  10   9   1.486
  10 str  11  10   1.209
  11 str  12  10   1.549
  12 str  13  12   1.209
  13 str  14  12   1.486
  14 str  15  14   1.399
  15 str  16  15   1.389
  16 str  17  16   1.389
  17 str  18   2   1.486
  18 str  18  17   1.399
  19 str  19  14   1.410
  20 str  19  18   1.410
  21 str  20   5   1.410
  22 str  20   9   1.410
  23 str  20  19   1.476
  24 str  21   6   1.083
  25 str  22   7   1.083
  26 str  23   8   1.083
  27 str  24  15   1.083
  28 str  25  16   1.083
  29 str  26  17   1.083
 nber stretches=          29
  30 ben   1   2   3
  31 prop tor   1   2   3   4
  32 prop tor   1   2   3   5
  33 ben   1   2  18
  34 prop tor   1   2  18  17
  35 prop tor   1   2  18  19
  36 ben   2   3   4
  37 ben   2   3   5
  38 prop tor   2   3   5   6
  39 prop tor   2   3   5  20
  40 ben   2  18  17
  41 ben   2  18  19
  42 prop tor   2  18  19  14
  43 prop tor   2  18  19  20
  44 ben   3   2  18
  45 prop tor   3   2  18  17
  46 prop tor   3   2  18  19
  47 ben   3   5   6
  48 prop tor   3   5   6   7
  49 prop tor   3   5   6  21
  50 ben   3   5  20
  51 prop tor   3   5  20   9
  52 prop tor   3   5  20  19
  53 ben   4   3   5
  54 prop tor   4   3   5   6
  55 prop tor   4   3   5  20
  56 ben   5   6   7
  57 prop tor   5   6   7   8
  58 prop tor   5   6   7  22
  59 ben   5   6  21
  60 ben   5  20   9
  61 ben   5  20  19
  62 ben   6   5  20
  63 prop tor   6   5  20   9
  64 prop tor   6   5  20  19
  65 ben   6   7   8
  66 prop tor   6   7   8   9
  67 prop tor   6   7   8  23
  68 ben   6   7  22
  69 ben   7   6  21
  70 ben   7   8   9
  71 prop tor   7   8   9  10
  72 prop tor   7   8   9  20
  73 ben   7   8  23
  74 ben   8   7  22
  75 ben   8   9  10
  76 prop tor   8   9  10  11
  77 prop tor   8   9  10  12
  78 ben   8   9  20
  79 prop tor   8   9  20   5
  80 prop tor   8   9  20  19
  81 ben   9   8  23
  82 ben   9  10  11
  83 ben   9  10  12
  84 prop tor   9  10  12  13
  85 prop tor   9  10  12  14
  86 ben   9  20  19
  87 ben  10   9  20
  88 prop tor  10   9  20   5
  89 prop tor  10   9  20  19
  90 ben  10  12  13
  91 ben  10  12  14
  92 prop tor  10  12  14  15
  93 prop tor  10  12  14  19
  94 ben  11  10  12
  95 prop tor  11  10  12  13
  96 prop tor  11  10  12  14
  97 ben  12  14  15
  98 prop tor  12  14  15  16
  99 prop tor  12  14  15  24
 100 ben  12  14  19
 101 prop tor  12  14  19  18
 102 prop tor  12  14  19  20
 103 ben  13  12  14
 104 prop tor  13  12  14  15
 105 prop tor  13  12  14  19
 106 ben  14  15  16
 107 prop tor  14  15  16  17
 108 prop tor  14  15  16  25
 109 ben  14  15  24
 110 ben  14  19  18
 111 ben  14  19  20
 112 prop tor  14  19  20   5
 113 prop tor  14  19  20   9
 114 ben  15  14  19
 115 prop tor  15  14  19  18
 116 prop tor  15  14  19  20
 117 ben  15  16  17
 118 prop tor  15  16  17  18
 119 prop tor  15  16  17  26
 120 ben  15  16  25
 121 ben  16  15  24
 122 ben  16  17  18
 123 prop tor  16  17  18   2
 124 prop tor  16  17  18  19
 125 ben  16  17  26
 126 ben  17  16  25
 127 ben  17  18  19
 128 prop tor  17  18  19  14
 129 prop tor  17  18  19  20
 130 prop tor  18   2   3   4
 131 prop tor  18   2   3   5
 132 ben  18  17  26
 133 ben  18  19  20
 134 prop tor  18  19  20   5
 135 prop tor  18  19  20   9
 136 prop tor  19  14  15  16
 137 prop tor  19  14  15  24
 138 prop tor  20   5   6   7
 139 prop tor  20   5   6  21
 140 prop tor  20   9  10  11
 141 prop tor  20   9  10  12
 142 prop tor  21   6   7   8
 143 prop tor  21   6   7  22
 144 prop tor  22   7   8   9
 145 prop tor  22   7   8  23
 146 prop tor  23   8   9  10
 147 prop tor  23   8   9  20
 148 prop tor  24  15  16  17
 149 prop tor  24  15  16  25
 150 prop tor  25  16  17  18
 151 prop tor  25  16  17  26
 152 prop tor  26  17  18   2
 153 prop tor  26  17  18  19
 nber bend=              48
 nber lin bend=           0
 nber prop tor=          76
 nber impr tor=           0
 nber tot redund int=         153
 Reading file: 
 ./conjugated_carbonyls_0_C-3S0.log                                             
                                          
  Entering Gaussian System, Link 0=g16                                          
  
 Gaussian format, type: g94, g98, g03= F F F
  File lengths (MBytes):  RWF=    177 Int=      0 D2E=      0 Chk=     15 Sc
