 Enter ifcurve (0=recti, 1=orth curvi, 2=apprx curvi, -1 = skip
 And atom ordering flag, 0= never changes, 1= use the first order thenceforth,
  2= deduce it (does read on fail), 3= always read it
 Reading file: 
 ./phenothiazine_0_C-1S0.log                                                    
                                          
  Entering Gaussian System, Link 0=g16                                          
  
 Gaussian format, type: g94, g98, g03= F F F
  #P Geom=AllCheck Guess=TCheck SCRF=Check GenChk UB3LYP/6-311G(d,p) Fre    
 energy type= B3LYP   
 Original G94 input coords:
  6 -1.814772  3.448269  0.099414
  6 -0.468765  4.148076 -0.155354
  6  0.712989  3.256618  0.305658
  6  0.600245  1.882640 -0.266385
 16  2.009878 -0.043635  1.367762
  6  1.328205 -1.335063  0.229747
  6  1.806967 -2.718108  0.719693
  6  1.294996 -3.903853 -0.110537
  6 -0.234927 -3.890015 -0.161319
  6 -0.731874 -2.547102 -0.699213
  6 -0.214421 -1.316890  0.082430
  7 -0.734680 -0.149748 -0.657468
  1 -1.710942 -0.351118 -0.855964
  6 -0.685466  1.169546 -0.008686
  6 -1.870320  2.035935 -0.507009
  1 -2.640792  4.058656 -0.287401
  1 -1.969768  3.369301  1.184432
  1 -0.453179  5.121006  0.358448
  1 -0.365792  4.350618 -1.229656
  1  0.694369  3.207465  1.407174
  1  1.665819  3.722621  0.033227
  1  1.162408  1.605673 -1.148897
  1  1.738723 -1.162868 -0.774361
  1  1.482756 -2.838934  1.761068
  1  2.899806 -2.702782  0.746021
  1  1.658494 -4.850855  0.310179
  1  1.689852 -3.842495 -1.134347
  1 -0.629061 -4.052074  0.851070
  1 -0.618832 -4.709652 -0.782778
  1 -1.831581 -2.527811 -0.703743
  1 -0.415700 -2.431166 -1.743768
  1 -0.625602 -1.354613  1.108721
  1 -0.811052  1.066875  1.086983
  1 -2.828157  1.558474 -0.243654
  1 -1.823155  2.091609 -1.602669
 nber atoms=          35
  SCF Done:  E(UB3LYP) =  -923.011268628     A.U. after    1 cycles             
  
          23          40 "  -923.011268628"
After scan for Atom:   Atom  AN      X      Y      Z        X      Y      Z        X      Y      Z   
After scan for Atom:   Atom  AN      X      Y      Z        X      Y      Z        X      Y      Z   
After scan for Atom:   Atom  AN      X      Y      Z        X      Y      Z        X      Y      Z   
After scan for Atom:   Atom  AN      X      Y      Z        X      Y      Z        X      Y      Z   
After scan for Atom:   Atom  AN      X      Y      Z        X      Y      Z        X      Y      Z   
After scan for Atom:   Atom  AN      X      Y      Z        X      Y      Z        X      Y      Z   
After scan for Atom:   Atom  AN      X      Y      Z        X      Y      Z        X      Y      Z   
After scan for Atom:   Atom  AN      X      Y      Z        X      Y      Z        X      Y      Z   
After scan for Atom:   Atom  AN      X      Y      Z        X      Y      Z        X      Y      Z   
After scan for Atom:   Atom  AN      X      Y      Z        X      Y      Z        X      Y      Z   
After scan for Atom:   Atom  AN      X      Y      Z        X      Y      Z        X      Y      Z   
After scan for Atom:   Atom  AN      X      Y      Z        X      Y      Z        X      Y      Z   
After scan for Atom:   Atom  AN      X      Y      Z        X      Y      Z        X      Y      Z   
After scan for Atom:   Atom  AN      X      Y      Z        X      Y      Z        X      Y      Z   
After scan for Atom:   Atom  AN      X      Y      Z        X      Y      Z        X      Y      Z   
After scan for Atom:   Atom  AN      X      Y      Z        X      Y      Z        X      Y      Z   
After scan for Atom:   Atom  AN      X      Y      Z        X      Y      Z        X      Y      Z   
After scan for Atom:   Atom  AN      X      Y      Z        X      Y      Z        X      Y      Z   
After scan for Atom:   Atom  AN      X      Y      Z        X      Y      Z        X      Y      Z   
After scan for Atom:   Atom  AN      X      Y      Z        X      Y      Z        X      Y      Z   
After scan for Atom:   Atom  AN      X      Y      Z        X      Y      Z        X      Y      Z   
After scan for Atom:   Atom  AN      X      Y      Z        X      Y      Z        X      Y      Z   
After scan for Atom:   Atom  AN      X      Y      Z        X      Y      Z        X      Y      Z   
After scan for Atom:   Atom  AN      X      Y      Z        X      Y      Z        X      Y      Z   
After scan for Atom:   Atom  AN      X      Y      Z        X      Y      Z        X      Y      Z   
After scan for Atom:   Atom  AN      X      Y      Z        X      Y      Z        X      Y      Z   
After scan for Atom:   Atom  AN      X      Y      Z        X      Y      Z        X      Y      Z   
After scan for Atom:   Atom  AN      X      Y      Z        X      Y      Z        X      Y      Z   
After scan for Atom:   Atom  AN      X      Y      Z        X      Y      Z        X      Y      Z   
After scan for Atom:   Atom  AN      X      Y      Z        X      Y      Z        X      Y      Z   
After scan for Atom:   Atom  AN      X      Y      Z        X      Y      Z        X      Y      Z   
After scan for Atom:   Atom  AN      X      Y      Z        X      Y      Z        X      Y      Z   
After scan for Atom:   Atom  AN      X      Y      Z        X      Y      Z        X      Y      Z   
 g94    frequencies=
     0.0    0.0    0.0    0.0    0.0    0.0   34.7   56.6   75.0  109.2
   164.3  197.1  213.5  242.4  255.1  312.0  322.3  329.0  342.0  365.2
   382.6  436.4  449.3  472.6  494.7  515.7  564.6  602.8  723.1  777.8
   790.4  797.1  830.0  843.5  858.1  874.8  900.0  906.0  915.3  938.7
   962.6  976.0 1021.5 1026.5 1049.3 1058.1 1074.7 1083.1 1097.1 1110.4
  1123.1 1128.4 1145.9 1156.5 1193.6 1201.0 1219.9 1252.5 1256.3 1265.8
  1281.9 1293.3 1304.0 1311.7 1323.5 1331.2 1334.9 1345.7 1347.3 1354.0
  1357.2 1369.3 1371.1 1373.3 1414.6 1473.0 1477.4 1478.4 1481.8 1482.1
  1487.8 1494.5 1500.4 1516.2 2872.0 2895.5 2937.2 2942.5 2960.7 2968.2
  2977.0 2980.4 2985.6 2987.7 2999.9 3002.1 3007.6 3008.1 3017.5 3023.6
  3030.8 3037.9 3063.8 3182.6 3475.4
 g94    symmetries=
                                                 A      A      A      A
       A      A      A      A      A      A      A      A      A      A
       A      A      A      A      A      A      A      A      A      A
       A      A      A      A      A      A      A      A      A      A
       A      A      A      A      A      A      A      A      A      A
       A      A      A      A      A      A      A      A      A      A
       A      A      A      A      A      A      A      A      A      A
       A      A      A      A      A      A      A      A      A      A
       A      A      A      A      A      A      A      A      A      A
       A      A      A      A      A      A      A      A      A      A
       A      A      A      A      A
 atomic masses:
 12.0000 12.0000 12.0000 12.0000 31.9721 12.0000 12.0000 12.0000 12.0000 12.0000
 12.0000 14.0031  1.0078 12.0000 12.0000  1.0078  1.0078  1.0078  1.0078  1.0078
  1.0078  1.0078  1.0078  1.0078  1.0078  1.0078  1.0078  1.0078  1.0078  1.0078
  1.0078  1.0078  1.0078  1.0078  1.0078
 looking for force constants in 
 ./phenothiazine_0_C-1S0.fchk                                                   
  
 Cartesian Force Constants                  R   N=        5565                  
  
 n3=         105        5565
 g94-fc frequencies=
    -6.8   -0.0   -0.0   -0.0    0.8    4.8   34.8   56.6   75.0  109.2
   164.3  197.1  213.5  242.4  255.1  312.0  322.3  329.0  342.0  365.2
   382.6  436.4  449.3  472.6  494.7  515.7  564.6  602.9  723.2  777.9
   790.4  797.1  830.0  843.6  858.2  874.8  900.0  906.0  915.3  938.7
   962.6  976.0 1021.5 1026.6 1049.3 1058.1 1074.7 1083.1 1097.1 1110.4
  1123.2 1128.4 1146.0 1156.5 1193.6 1201.0 1219.9 1252.6 1256.3 1265.8
  1282.0 1293.4 1304.0 1311.8 1323.5 1331.2 1335.0 1345.7 1347.3 1354.0
  1357.2 1369.3 1371.1 1373.4 1414.6 1473.0 1477.4 1478.4 1481.8 1482.2
  1487.8 1494.5 1500.5 1516.2 2872.0 2895.6 2937.2 2942.6 2960.7 2968.2
  2977.1 2980.5 2985.6 2987.8 3000.0 3002.2 3007.7 3008.1 3017.6 3023.7
  3030.8 3038.0 3063.9 3182.6 3475.4
 at 99999: n3=         105
 symm operator            1 :  F  nop=           0
 symm operator            2 :  F  nop=           0
 symm operator            3 :  F  nop=           0
 symm operator            4 :  F  nop=           0
 symm operator            5 :  F  nop=           0
 symm operator            6 :  F  nop=           0
 symm operator            7 :  F  nop=           0
 The point group of the molecule is  C1
 Symmetry rotation matrix:
   1.00000   0.00000   0.00000
   0.00000   1.00000   0.00000
   0.00000   0.00000   1.00000

 Projecting out zero-frequency components
 generating redundant internal coords
         300        3600          35
 search for int coords
   1 str   2   1   1.538
   2 str   3   2   1.550
   3 str   4   3   1.493
   4 str   6   5   1.851
   5 str   7   6   1.543
   6 str   8   7   1.535
   7 str   9   8   1.531
   8 str  10   9   1.530
   9 str  11   6   1.550
  10 str  11  10   1.547
  11 str  12  11   1.477
  12 str  13  12   1.016
  13 str  14   4   1.493
  14 str  14  12   1.471
  15 str  15   1   1.538
  16 str  15  14   1.550
  17 str  16   1   1.098
  18 str  17   1   1.099
  19 str  18   2   1.100
  20 str  19   2   1.098
  21 str  20   3   1.103
  22 str  21   3   1.095
  23 str  22   4   1.082
  24 str  23   6   1.098
  25 str  24   7   1.097
  26 str  25   7   1.093
  27 str  26   8   1.098
  28 str  27   8   1.099
  29 str  28   9   1.098
  30 str  29   9   1.098
  31 str  30  10   1.100
  32 str  31  10   1.097
  33 str  32  11   1.106
  34 str  33  14   1.108
  35 str  34  15   1.102
  36 str  35  15   1.098
 nber stretches=          36
  37 ben   1   2   3
  38 prop tor   1   2   3   4
  39 prop tor   1   2   3  20
  40 prop tor   1   2   3  21
  41 ben   1   2  18
  42 ben   1   2  19
  43 ben   1  15  14
  44 ben   1  15  34
  45 ben   1  15  35
  46 ben   2   1  15
  47 prop tor   2   1  15  14
  48 prop tor   2   1  15  34
  49 prop tor   2   1  15  35
  50 ben   2   1  16
  51 ben   2   1  17
  52 ben   2   3   4
  53 prop tor   2   3   4  14
  54 prop tor   2   3   4  22
  55 ben   2   3  20
  56 ben   2   3  21
  57 ben   3   2  18
  58 ben   3   2  19
  59 ben   3   4  14
  60 prop tor   3   4  14  12
  61 prop tor   3   4  14  15
  62 prop tor   3   4  14  33
  63 ben   3   4  22
  64 ben   4   3  20
  65 ben   4   3  21
  66 ben   4  14  12
  67 ben   4  14  15
  68 prop tor   4  14  15   1
  69 prop tor   4  14  15  34
  70 prop tor   4  14  15  35
  71 ben   4  14  33
  72 ben   5   6   7
  73 prop tor   5   6   7   8
  74 prop tor   5   6   7  24
  75 prop tor   5   6   7  25
  76 ben   5   6  11
  77 prop tor   5   6  11  10
  78 prop tor   5   6  11  12
  79 prop tor   5   6  11  32
  80 ben   5   6  23
  81 ben   6   7   8
  82 prop tor   6   7   8   9
  83 prop tor   6   7   8  26
  84 prop tor   6   7   8  27
  85 ben   6   7  24
  86 ben   6   7  25
  87 ben   6  11  10
  88 ben   6  11  12
  89 prop tor   6  11  12  13
  90 prop tor   6  11  12  14
  91 ben   6  11  32
  92 ben   7   6  11
  93 prop tor   7   6  11  10
  94 prop tor   7   6  11  12
  95 prop tor   7   6  11  32
  96 ben   7   6  23
  97 ben   7   8   9
  98 prop tor   7   8   9  10
  99 prop tor   7   8   9  28
 100 prop tor   7   8   9  29
 101 ben   7   8  26
 102 ben   7   8  27
 103 ben   8   7  24
 104 ben   8   7  25
 105 ben   8   9  10
 106 prop tor   8   9  10  11
 107 prop tor   8   9  10  30
 108 prop tor   8   9  10  31
 109 ben   8   9  28
 110 ben   8   9  29
 111 ben   9   8  26
 112 ben   9   8  27
 113 ben   9  10  11
 114 prop tor   9  10  11   6
 115 prop tor   9  10  11  12
 116 prop tor   9  10  11  32
 117 ben   9  10  30
 118 ben   9  10  31
 119 ben  10   9  28
 120 ben  10   9  29
 121 ben  10  11  12
 122 prop tor  10  11  12  13
 123 prop tor  10  11  12  14
 124 ben  10  11  32
 125 prop tor  11   6   7   8
 126 prop tor  11   6   7  24
 127 prop tor  11   6   7  25
 128 ben  11   6  23
 129 ben  11  10  30
 130 ben  11  10  31
 131 ben  11  12  13
 132 ben  11  12  14
 133 prop tor  11  12  14   4
 134 prop tor  11  12  14  15
 135 prop tor  11  12  14  33
 136 ben  12  11  32
 137 ben  12  14  15
 138 prop tor  12  14  15   1
 139 prop tor  12  14  15  34
 140 prop tor  12  14  15  35
 141 ben  12  14  33
 142 ben  13  12  14
 143 prop tor  13  12  14   4
 144 prop tor  13  12  14  15
 145 prop tor  13  12  14  33
 146 ben  14   4  22
 147 ben  14  15  34
 148 ben  14  15  35
 149 prop tor  15   1   2   3
 150 prop tor  15   1   2  18
 151 prop tor  15   1   2  19
 152 ben  15   1  16
 153 ben  15   1  17
 154 ben  15  14  33
 155 prop tor  16   1   2   3
 156 prop tor  16   1   2  18
 157 prop tor  16   1   2  19
 158 prop tor  16   1  15  14
 159 prop tor  16   1  15  34
 160 prop tor  16   1  15  35
 161 ben  16   1  17
 162 prop tor  17   1   2   3
 163 prop tor  17   1   2  18
 164 prop tor  17   1   2  19
 165 prop tor  17   1  15  14
 166 prop tor  17   1  15  34
 167 prop tor  17   1  15  35
 168 prop tor  18   2   3   4
 169 prop tor  18   2   3  20
 170 prop tor  18   2   3  21
 171 ben  18   2  19
 172 prop tor  19   2   3   4
 173 prop tor  19   2   3  20
 174 prop tor  19   2   3  21
 175 prop tor  20   3   4  14
 176 prop tor  20   3   4  22
 177 ben  20   3  21
 178 prop tor  21   3   4  14
 179 prop tor  21   3   4  22
 180 prop tor  22   4  14  12
 181 prop tor  22   4  14  15
 182 prop tor  22   4  14  33
 183 prop tor  23   6   7   8
 184 prop tor  23   6   7  24
 185 prop tor  23   6   7  25
 186 prop tor  23   6  11  10
 187 prop tor  23   6  11  12
 188 prop tor  23   6  11  32
 189 prop tor  24   7   8   9
 190 prop tor  24   7   8  26
 191 prop tor  24   7   8  27
 192 ben  24   7  25
 193 prop tor  25   7   8   9
 194 prop tor  25   7   8  26
 195 prop tor  25   7   8  27
 196 prop tor  26   8   9  10
 197 prop tor  26   8   9  28
 198 prop tor  26   8   9  29
 199 ben  26   8  27
 200 prop tor  27   8   9  10
 201 prop tor  27   8   9  28
 202 prop tor  27   8   9  29
 203 prop tor  28   9  10  11
 204 prop tor  28   9  10  30
 205 prop tor  28   9  10  31
 206 ben  28   9  29
 207 prop tor  29   9  10  11
 208 prop tor  29   9  10  30
 209 prop tor  29   9  10  31
 210 prop tor  30  10  11   6
 211 prop tor  30  10  11  12
 212 prop tor  30  10  11  32
 213 ben  30  10  31
 214 prop tor  31  10  11   6
 215 prop tor  31  10  11  12
 216 prop tor  31  10  11  32
 217 prop tor  32  11  12  13
 218 prop tor  32  11  12  14
 219 prop tor  33  14  15   1
 220 prop tor  33  14  15  34
 221 prop tor  33  14  15  35
 222 ben  34  15  35
 nber bend=              72
 nber lin bend=           0
 nber prop tor=         114
 nber impr tor=           0
 nber tot redund int=         222
 Eigenvalues of G in red int coords
    Gval -0.00000000 -0.00000000 -0.00000000 -0.00000000 -0.00000000 -0.00000000 -0.00000000 -0.00000000
    Gval -0.00000000 -0.00000000 -0.00000000 -0.00000000 -0.00000000 -0.00000000 -0.00000000 -0.00000000
    Gval -0.00000000 -0.00000000 -0.00000000 -0.00000000 -0.00000000 -0.00000000 -0.00000000 -0.00000000
    Gval -0.00000000 -0.00000000 -0.00000000 -0.00000000 -0.00000000 -0.00000000 -0.00000000 -0.00000000
    Gval -0.00000000 -0.00000000 -0.00000000 -0.00000000 -0.00000000 -0.00000000 -0.00000000 -0.00000000
    Gval -0.00000000 -0.00000000 -0.00000000 -0.00000000 -0.00000000 -0.00000000 -0.00000000 -0.00000000
    Gval -0.00000000 -0.00000000 -0.00000000 -0.00000000 -0.00000000 -0.00000000 -0.00000000 -0.00000000
    Gval -0.00000000 -0.00000000 -0.00000000  0.00000000  0.00000000  0.00000000  0.00000000  0.00000000
    Gval  0.00000000  0.00000000  0.00000000  0.00000000  0.00000000  0.00000000  0.00000000  0.00000000
    Gval  0.00000000  0.00000000  0.00000000  0.00000000  0.00000000  0.00000000  0.00000000  0.00000000
    Gval  0.00000000  0.00000000  0.00000000  0.00000000  0.00000000  0.00000000  0.00000000  0.00000000
    Gval  0.00000000  0.00000000  0.00000000  0.00000000  0.00000000  0.00000000  0.00000000  0.00000000
    Gval  0.00000000  0.00000000  0.00000000  0.00000000  0.00000000  0.00000000  0.00000000  0.00000000
    Gval  0.00000000  0.00000000  0.00000000  0.00000000  0.00000000  0.00000000  0.00000000  0.00000000
    Gval  0.00000000  0.00000000  0.00000000  0.00000000  0.00000000  0.00000000  0.00000000  0.00000000
    Gval  0.00000000  0.00000000  0.00000000  0.00000176  0.00000593  0.00000645  0.00001074  0.00001413
    Gval  0.00001709  0.00003105  0.00003705  0.00004264  0.00004860  0.00005247  0.00005782  0.00006316
    Gval  0.00006554  0.00008484  0.00008866  0.00010307  0.00012190  0.00014002  0.00016971  0.00017435
    Gval  0.00019309  0.00020656  0.00022366  0.00023511  0.00025767  0.00026631  0.00027563  0.00028607
    Gval  0.00031772  0.00038808  0.00038992  0.00040279  0.00048091  0.00051349  0.00052238  0.00057481
    Gval  0.00057495  0.00057636  0.00057688  0.00057933  0.00058074  0.00058403  0.00058459  0.00058509
    Gval  0.00058590  0.00058790  0.00059011  0.00060275  0.00060329  0.00061434  0.00063751  0.00064826
    Gval  0.00066644  0.00078745  0.00100676  0.00102801  0.00115877  0.00117682  0.00121367  0.00121848
    Gval  0.00126099  0.00132643  0.00139039  0.00147259  0.00153152  0.00155995  0.00163343  0.00170773
    Gval  0.00173478  0.00174446  0.00176917  0.00178291  0.00185290  0.00186128  0.00186416  0.00189185
    Gval  0.00190876  0.00244493  0.00255328  0.00263506  0.00283670  0.00302655  0.00304552  0.00347887
    Gval  0.00361459  0.00369674  0.00376159  0.00385035  0.00389146  0.00391738  0.00396187  0.00400839
    Gval  0.00401611  0.00401757  0.00406871  0.00423122  0.00434252  0.00456722
  1.764365276007757E-006  1.764365276007757E-006
  5.928124532974276E-006  1.764365276007757E-006
  6.450752447301858E-006  1.764365276007757E-006
  1.074470582067403E-005  1.764365276007757E-006
  1.413079314038983E-005  1.764365276007757E-006
  1.708873019671893E-005  1.764365276007757E-006
  3.104520386821542E-005  1.764365276007757E-006
  3.704684575304857E-005  1.764365276007757E-006
  4.263550274172947E-005  1.764365276007757E-006
  4.860413895241022E-005  1.764365276007757E-006
  5.246622411296300E-005  1.764365276007757E-006
  5.782356441561410E-005  1.764365276007757E-006
  6.316357727281223E-005  1.764365276007757E-006
  6.554118973478140E-005  1.764365276007757E-006
  8.484199605379832E-005  1.764365276007757E-006
  8.865792396726110E-005  1.764365276007757E-006
  1.030737578402900E-004  1.764365276007757E-006
  1.219029359123801E-004  1.764365276007757E-006
  1.400157493326421E-004  1.764365276007757E-006
  1.697135906444187E-004  1.764365276007757E-006
  1.743549268652805E-004  1.764365276007757E-006
  1.930869103861275E-004  1.764365276007757E-006
  2.065587328744230E-004  1.764365276007757E-006
  2.236622066887140E-004  1.764365276007757E-006
  2.351096100452684E-004  1.764365276007757E-006
  2.576695244166945E-004  1.764365276007757E-006
  2.663136329534829E-004  1.764365276007757E-006
  2.756309526752245E-004  1.764365276007757E-006
  2.860681066894138E-004  1.764365276007757E-006
  3.177155236563300E-004  1.764365276007757E-006
  3.880768856176447E-004  1.764365276007757E-006
  3.899186175853122E-004  1.764365276007757E-006
  4.027881648421041E-004  1.764365276007757E-006
  4.809089532870363E-004  1.764365276007757E-006
  5.134913180717424E-004  1.764365276007757E-006
  5.223781857608790E-004  1.764365276007757E-006
  5.748094964276321E-004  1.764365276007757E-006
  5.749531448768322E-004  1.764365276007757E-006
  5.763634227450276E-004  1.764365276007757E-006
  5.768826423998394E-004  1.764365276007757E-006
  5.793302820085804E-004  1.764365276007757E-006
  5.807352868620855E-004  1.764365276007757E-006
  5.840328995326738E-004  1.764365276007757E-006
  5.845919745791141E-004  1.764365276007757E-006
  5.850873458846675E-004  1.764365276007757E-006
  5.858972394435208E-004  1.764365276007757E-006
  5.879046548085685E-004  1.764365276007757E-006
  5.901117748073827E-004  1.764365276007757E-006
  6.027544168865080E-004  1.764365276007757E-006
  6.032876994107650E-004  1.764365276007757E-006
  6.143387017742515E-004  1.764365276007757E-006
  6.375092902410319E-004  1.764365276007757E-006
  6.482643929513987E-004  1.764365276007757E-006
  6.664365599001949E-004  1.764365276007757E-006
  7.874547572519258E-004  1.764365276007757E-006
  1.006762937389791E-003  1.764365276007757E-006
  1.028013872300168E-003  1.764365276007757E-006
  1.158771839690467E-003  1.764365276007757E-006
  1.176819207225055E-003  1.764365276007757E-006
  1.213672215102696E-003  1.764365276007757E-006
  1.218476636203663E-003  1.764365276007757E-006
  1.260990136746473E-003  1.764365276007757E-006
  1.326428679977988E-003  1.764365276007757E-006
  1.390387175791712E-003  1.764365276007757E-006
  1.472593844881665E-003  1.764365276007757E-006
  1.531519192797458E-003  1.764365276007757E-006
  1.559948710620166E-003  1.764365276007757E-006
  1.633426078208806E-003  1.764365276007757E-006
  1.707734847970347E-003  1.764365276007757E-006
  1.734777933001655E-003  1.764365276007757E-006
  1.744455029701026E-003  1.764365276007757E-006
  1.769165105524217E-003  1.764365276007757E-006
  1.782909522725484E-003  1.764365276007757E-006
  1.852903296307554E-003  1.764365276007757E-006
  1.861276391913336E-003  1.764365276007757E-006
  1.864158329770607E-003  1.764365276007757E-006
  1.891851240753711E-003  1.764365276007757E-006
  1.908758089797184E-003  1.764365276007757E-006
  2.444933279184332E-003  1.764365276007757E-006
  2.553280477149603E-003  1.764365276007757E-006
  2.635061419395548E-003  1.764365276007757E-006
  2.836696567954996E-003  1.764365276007757E-006
  3.026547337055938E-003  1.764365276007757E-006
  3.045521600744128E-003  1.764365276007757E-006
  3.478872821065047E-003  1.764365276007757E-006
  3.614586956225828E-003  1.764365276007757E-006
  3.696736989569325E-003  1.764365276007757E-006
  3.761592476252478E-003  1.764365276007757E-006
  3.850353340964765E-003  1.764365276007757E-006
  3.891457861296389E-003  1.764365276007757E-006
  3.917378301802567E-003  1.764365276007757E-006
  3.961869544078623E-003  1.764365276007757E-006
  4.008388926000054E-003  1.764365276007757E-006
  4.016106030601491E-003  1.764365276007757E-006
  4.017569121879777E-003  1.764365276007757E-006
  4.068705236162310E-003  1.764365276007757E-006
  4.231221237551023E-003  1.764365276007757E-006
  4.342524172794692E-003  1.764365276007757E-006
  4.567222921882550E-003  1.764365276007757E-006
 cut=1d-8, nber non-redundant internal coords=          99
 Check on Eigenvals of non-red overlap matrix:
  0.00000176  0.00000593  0.00000645  0.00001074  0.00001413  0.00001709  0.00003105  0.00003705
  0.00004264  0.00004860  0.00005247  0.00005782  0.00006316  0.00006554  0.00008484  0.00008866
  0.00010307  0.00012190  0.00014002  0.00016971  0.00017435  0.00019309  0.00020656  0.00022366
  0.00023511  0.00025767  0.00026631  0.00027563  0.00028607  0.00031772  0.00038808  0.00038992
  0.00040279  0.00048091  0.00051349  0.00052238  0.00057481  0.00057495  0.00057636  0.00057688
  0.00057933  0.00058074  0.00058403  0.00058459  0.00058509  0.00058590  0.00058790  0.00059011
  0.00060275  0.00060329  0.00061434  0.00063751  0.00064826  0.00066644  0.00078745  0.00100676
  0.00102801  0.00115877  0.00117682  0.00121367  0.00121848  0.00126099  0.00132643  0.00139039
  0.00147259  0.00153152  0.00155995  0.00163343  0.00170773  0.00173478  0.00174446  0.00176917
  0.00178291  0.00185290  0.00186128  0.00186416  0.00189185  0.00190876  0.00244493  0.00255328
  0.00263506  0.00283670  0.00302655  0.00304552  0.00347887  0.00361459  0.00369674  0.00376159
  0.00385035  0.00389146  0.00391738  0.00396187  0.00400839  0.00401611  0.00401757  0.00406871
  0.00423122  0.00434252  0.00456722
 Checking for correct frequencies
 recalc frequencies=
    -0.0   -0.0   -0.0    0.0    0.0    0.0   34.7   56.6   75.0  109.2
   164.3  197.1  213.5  242.4  255.1  312.0  322.3  329.0  342.0  365.2
   382.6  436.4  449.3  472.6  494.7  515.7  564.6  602.9  723.2  777.9
   790.4  797.1  830.0  843.6  858.2  874.8  900.0  906.0  915.3  938.7
   962.6  976.0 1021.5 1026.6 1049.3 1058.1 1074.7 1083.1 1097.1 1110.4
  1123.2 1128.4 1146.0 1156.5 1193.6 1201.0 1219.9 1252.6 1256.3 1265.8
  1282.0 1293.4 1304.0 1311.8 1323.5 1331.2 1335.0 1345.7 1347.3 1354.0
  1357.2 1369.3 1371.1 1373.4 1414.6 1473.0 1477.4 1478.4 1481.8 1482.2
  1487.8 1494.5 1500.5 1516.2 2872.0 2895.6 2937.2 2942.6 2960.7 2968.2
  2977.1 2980.5 2985.6 2987.8 3000.0 3002.2 3007.7 3008.1 3017.6 3023.7
  3030.8 3038.0 3063.9 3182.6 3475.4
 recalc symmetries=
                                                                       
                                                                       
                                                                       
                                                                       
                                                                       
                                                                       
                                                                       
                                                                       
                                                                       
                                                                       
                                    
 recalc freqs check OK
 Zero-point lengths:
 10.0000 10.0000 10.0000 10.0000 10.0000 10.0000 42.0926 32.9651 28.6257 23.7231
 19.3405 17.6571 16.9651 15.9237 15.5209 14.0352 13.8081 13.6681 13.4058 12.9722
 12.6745 11.8672 11.6959 11.4042 11.1465 10.9164 10.4330 10.0969  9.2189  8.8889
  8.8181  8.7811  8.6051  8.5357  8.4628  8.3819  8.2635  8.2364  8.1941  8.0916
  7.9905  7.9355  7.7566  7.7375  7.6533  7.6214  7.5624  7.5328  7.4845  7.4396
  7.3973  7.3800  7.3233  7.2900  7.1756  7.1535  7.0979  7.0048  6.9944  6.9680
  6.9240  6.8934  6.8652  6.8449  6.8144  6.7947  6.7851  6.7579  6.7540  6.7374
  6.7292  6.6995  6.6952  6.6897  6.5914  6.4594  6.4497  6.4476  6.4402  6.4394
  6.4272  6.4128  6.4000  6.3666  4.6260  4.6071  4.5743  4.5701  4.5561  4.5504
  4.5436  4.5410  4.5371  4.5354  4.5262  4.5246  4.5204  4.5201  4.5130  4.5085
  4.5031  4.4978  4.4788  4.3944  4.2052
 highest evec of mol 1
  0.0001  0.0000 -0.0001
  0.0000  0.0002  0.0000
 -0.0004  0.0003  0.0005
  0.0018 -0.0004 -0.0014
  0.0000  0.0000 -0.0000
  0.0019  0.0008 -0.0007
 -0.0004 -0.0005  0.0002
  0.0001 -0.0001  0.0000
  0.0003  0.0003 -0.0001
  0.0007 -0.0007  0.0002
 -0.0071 -0.0024  0.0046
 -0.2428 -0.0512 -0.0626
  0.9250  0.1909  0.2056
 -0.0063  0.0007  0.0048
  0.0006  0.0013  0.0002
 -0.0000  0.0001 -0.0001
 -0.0000 -0.0000  0.0001
  0.0003 -0.0006 -0.0002
  0.0000 -0.0000  0.0001
  0.0001  0.0001 -0.0008
 -0.0003 -0.0007 -0.0002
 -0.0010  0.0009  0.0014
  0.0002 -0.0005  0.0010
  0.0002  0.0002 -0.0008
 -0.0004  0.0007 -0.0003
  0.0001  0.0003  0.0001
  0.0000  0.0000  0.0001
 -0.0001 -0.0000  0.0002
  0.0000  0.0001 -0.0000
  0.0034  0.0019  0.0015
 -0.0005  0.0008 -0.0002
  0.0030 -0.0016 -0.0035
 -0.0004  0.0025  0.0000
  0.0041 -0.0011  0.0005
  0.0006 -0.0012  0.0007
 generating redundant internal coords
         300        3600          35
 Adding extra bonds for z output only
           6           6           6           6          16           6
           6           6           6           6           6           7
           1           6           6           1           1           1
           1           1           1           1           1           1
           1           1           1           1           1           1
           1           1           1           1           1
 search for int coords
   1 str   2   1   1.538
   2 str   3   2   1.550
   3 str   4   3   1.493
   4 str   6   5   1.851
   5 str   7   6   1.543
   6 str   8   7   1.535
   7 str   9   8   1.531
   8 str  10   9   1.530
   9 str  11   6   1.550
  10 str  11  10   1.547
  11 str  12  11   1.477
  12 str  13  12   1.016
  13 str  14   4   1.493
  14 str  14  12   1.471
  15 str  15   1   1.538
  16 str  15  14   1.550
  17 str  16   1   1.098
  18 str  17   1   1.099
  19 str  18   2   1.100
  20 str  19   2   1.098
  21 str  20   3   1.103
  22 str  21   3   1.095
  23 str  22   4   1.082
  24 str  23   6   1.098
  25 str  24   7   1.097
  26 str  25   7   1.093
  27 str  26   8   1.098
  28 str  27   8   1.099
  29 str  28   9   1.098
  30 str  29   9   1.098
  31 str  30  10   1.100
  32 str  31  10   1.097
  33 str  32  11   1.106
  34 str  33  14   1.108
  35 str  34  15   1.102
  36 str  35  15   1.098
 nber stretches=          36
  37 ben   1   2   3
  38 prop tor   1   2   3   4
  39 prop tor   1   2   3  20
  40 prop tor   1   2   3  21
  41 ben   1   2  18
  42 ben   1   2  19
  43 ben   1  15  14
  44 ben   1  15  34
  45 ben   1  15  35
  46 ben   2   1  15
  47 prop tor   2   1  15  14
  48 prop tor   2   1  15  34
  49 prop tor   2   1  15  35
  50 ben   2   1  16
  51 ben   2   1  17
  52 ben   2   3   4
  53 prop tor   2   3   4  14
  54 prop tor   2   3   4  22
  55 ben   2   3  20
  56 ben   2   3  21
  57 ben   3   2  18
  58 ben   3   2  19
  59 ben   3   4  14
  60 prop tor   3   4  14  12
  61 prop tor   3   4  14  15
  62 prop tor   3   4  14  33
  63 ben   3   4  22
  64 ben   4   3  20
  65 ben   4   3  21
  66 ben   4  14  12
  67 ben   4  14  15
  68 prop tor   4  14  15   1
  69 prop tor   4  14  15  34
  70 prop tor   4  14  15  35
  71 ben   4  14  33
  72 ben   5   6   7
  73 prop tor   5   6   7   8
  74 prop tor   5   6   7  24
  75 prop tor   5   6   7  25
  76 ben   5   6  11
  77 prop tor   5   6  11  10
  78 prop tor   5   6  11  12
  79 prop tor   5   6  11  32
  80 ben   5   6  23
  81 ben   6   7   8
  82 prop tor   6   7   8   9
  83 prop tor   6   7   8  26
  84 prop tor   6   7   8  27
  85 ben   6   7  24
  86 ben   6   7  25
  87 ben   6  11  10
  88 ben   6  11  12
  89 prop tor   6  11  12  13
  90 prop tor   6  11  12  14
  91 ben   6  11  32
  92 ben   7   6  11
  93 prop tor   7   6  11  10
  94 prop tor   7   6  11  12
  95 prop tor   7   6  11  32
  96 ben   7   6  23
  97 ben   7   8   9
  98 prop tor   7   8   9  10
  99 prop tor   7   8   9  28
 100 prop tor   7   8   9  29
 101 ben   7   8  26
 102 ben   7   8  27
 103 ben   8   7  24
 104 ben   8   7  25
 105 ben   8   9  10
 106 prop tor   8   9  10  11
 107 prop tor   8   9  10  30
 108 prop tor   8   9  10  31
 109 ben   8   9  28
 110 ben   8   9  29
 111 ben   9   8  26
 112 ben   9   8  27
 113 ben   9  10  11
 114 prop tor   9  10  11   6
 115 prop tor   9  10  11  12
 116 prop tor   9  10  11  32
 117 ben   9  10  30
 118 ben   9  10  31
 119 ben  10   9  28
 120 ben  10   9  29
 121 ben  10  11  12
 122 prop tor  10  11  12  13
 123 prop tor  10  11  12  14
 124 ben  10  11  32
 125 prop tor  11   6   7   8
 126 prop tor  11   6   7  24
 127 prop tor  11   6   7  25
 128 ben  11   6  23
 129 ben  11  10  30
 130 ben  11  10  31
 131 ben  11  12  13
 132 ben  11  12  14
 133 prop tor  11  12  14   4
 134 prop tor  11  12  14  15
 135 prop tor  11  12  14  33
 136 ben  12  11  32
 137 ben  12  14  15
 138 prop tor  12  14  15   1
 139 prop tor  12  14  15  34
 140 prop tor  12  14  15  35
 141 ben  12  14  33
 142 ben  13  12  14
 143 prop tor  13  12  14   4
 144 prop tor  13  12  14  15
 145 prop tor  13  12  14  33
 146 ben  14   4  22
 147 ben  14  15  34
 148 ben  14  15  35
 149 prop tor  15   1   2   3
 150 prop tor  15   1   2  18
 151 prop tor  15   1   2  19
 152 ben  15   1  16
 153 ben  15   1  17
 154 ben  15  14  33
 155 prop tor  16   1   2   3
 156 prop tor  16   1   2  18
 157 prop tor  16   1   2  19
 158 prop tor  16   1  15  14
 159 prop tor  16   1  15  34
 160 prop tor  16   1  15  35
 161 ben  16   1  17
 162 prop tor  17   1   2   3
 163 prop tor  17   1   2  18
 164 prop tor  17   1   2  19
 165 prop tor  17   1  15  14
 166 prop tor  17   1  15  34
 167 prop tor  17   1  15  35
 168 prop tor  18   2   3   4
 169 prop tor  18   2   3  20
 170 prop tor  18   2   3  21
 171 ben  18   2  19
 172 prop tor  19   2   3   4
 173 prop tor  19   2   3  20
 174 prop tor  19   2   3  21
 175 prop tor  20   3   4  14
 176 prop tor  20   3   4  22
 177 ben  20   3  21
 178 prop tor  21   3   4  14
 179 prop tor  21   3   4  22
 180 prop tor  22   4  14  12
 181 prop tor  22   4  14  15
 182 prop tor  22   4  14  33
 183 prop tor  23   6   7   8
 184 prop tor  23   6   7  24
 185 prop tor  23   6   7  25
 186 prop tor  23   6  11  10
 187 prop tor  23   6  11  12
 188 prop tor  23   6  11  32
 189 prop tor  24   7   8   9
 190 prop tor  24   7   8  26
 191 prop tor  24   7   8  27
 192 ben  24   7  25
 193 prop tor  25   7   8   9
 194 prop tor  25   7   8  26
 195 prop tor  25   7   8  27
 196 prop tor  26   8   9  10
 197 prop tor  26   8   9  28
 198 prop tor  26   8   9  29
 199 ben  26   8  27
 200 prop tor  27   8   9  10
 201 prop tor  27   8   9  28
 202 prop tor  27   8   9  29
 203 prop tor  28   9  10  11
 204 prop tor  28   9  10  30
 205 prop tor  28   9  10  31
 206 ben  28   9  29
 207 prop tor  29   9  10  11
 208 prop tor  29   9  10  30
 209 prop tor  29   9  10  31
 210 prop tor  30  10  11   6
 211 prop tor  30  10  11  12
 212 prop tor  30  10  11  32
 213 ben  30  10  31
 214 prop tor  31  10  11   6
 215 prop tor  31  10  11  12
 216 prop tor  31  10  11  32
 217 prop tor  32  11  12  13
 218 prop tor  32  11  12  14
 219 prop tor  33  14  15   1
 220 prop tor  33  14  15  34
 221 prop tor  33  14  15  35
 222 ben  34  15  35
 nber bend=              72
 nber lin bend=           0
 nber prop tor=         114
 nber impr tor=           0
 nber tot redund int=         222
 Reading file: 
 ./phenothiazine_0_C0S0.log                                                     
                                          
  Entering Gaussian System, Link 0=g16                                          
  
 Gaussian format, type: g94, g98, g03= F F F
  #P Geom=AllCheck Guess=TCheck SCRF=Check GenChk RB3LYP/6-311G(d,p) Fre    
 energy type= B3LYP   
 Original G94 input coords:
  6 -1.658272  3.504120  0.003656
  6 -0.194246  3.959882 -0.060296
  6  0.740839  2.931219  0.593199
  6  0.553669  1.543193 -0.030076
 16  1.691950  0.349404  0.795073
  6  1.130411 -1.191435 -0.048864
  6  1.863560 -2.393807  0.556835
  6  1.422180 -3.703684 -0.113232
  6 -0.101069 -3.878864 -0.048302
  6 -0.826878 -2.661161 -0.634184
  6 -0.394190 -1.351643  0.042312
  7 -1.064045 -0.222104 -0.608136
  1 -2.054956 -0.430557 -0.688099
  6 -0.905562  1.072947  0.059217
  6 -1.832440  2.105045 -0.600575
  1 -2.302225  4.219014 -0.517859
  1 -1.988084  3.493220  1.050040
  1 -0.076229  4.931645  0.429229
  1  0.096666  4.100011 -1.108784
  1  0.532180  2.875562  1.668272
  1  1.784157  3.243498  0.490046
  1  0.833477  1.575815 -1.088355
  1  1.396821 -1.094467 -1.106665
  1  1.652427 -2.441449  1.631795
  1  2.943907 -2.256723  0.453203
  1  1.923656 -4.551442  0.363963
  1  1.742703 -3.700423 -1.162446
  1 -0.404828 -4.016514  0.996972
  1 -0.402612 -4.785682 -0.581665
  1 -1.912005 -2.779450 -0.528107
  1 -0.622279 -2.578688 -1.708030
  1 -0.652158 -1.410101  1.116135
  1 -1.161906  1.007972  1.133049
  1 -2.872546  1.773532 -0.495566
  1 -1.615401  2.126717 -1.674934
 nber atoms=          35
  SCF Done:  E(RB3LYP) =  -923.050274279     A.U. after    1 cycles             
  
          23          40 "  -923.050274279"
After scan for Atom:   Atom  AN      X      Y      Z        X      Y      Z        X      Y      Z   
After scan for Atom:   Atom  AN      X      Y      Z        X      Y      Z        X      Y      Z   
After scan for Atom:   Atom  AN      X      Y      Z        X      Y      Z        X      Y      Z   
After scan for Atom:   Atom  AN      X      Y      Z        X      Y      Z        X      Y      Z   
After scan for Atom:   Atom  AN      X      Y      Z        X      Y      Z        X      Y      Z   
After scan for Atom:   Atom  AN      X      Y      Z        X      Y      Z        X      Y      Z   
After scan for Atom:   Atom  AN      X      Y      Z        X      Y      Z        X      Y      Z   
After scan for Atom:   Atom  AN      X      Y      Z        X      Y      Z        X      Y      Z   
After scan for Atom:   Atom  AN      X      Y      Z        X      Y      Z        X      Y      Z   
After scan for Atom:   Atom  AN      X      Y      Z        X      Y      Z        X      Y      Z   
After scan for Atom:   Atom  AN      X      Y      Z        X      Y      Z        X      Y      Z   
After scan for Atom:   Atom  AN      X      Y      Z        X      Y      Z        X      Y      Z   
After scan for Atom:   Atom  AN      X      Y      Z        X      Y      Z        X      Y      Z   
After scan for Atom:   Atom  AN      X      Y      Z        X      Y      Z        X      Y      Z   
After scan for Atom:   Atom  AN      X      Y      Z        X      Y      Z        X      Y      Z   
After scan for Atom:   Atom  AN      X      Y      Z        X      Y      Z        X      Y      Z   
After scan for Atom:   Atom  AN      X      Y      Z        X      Y      Z        X      Y      Z   
After scan for Atom:   Atom  AN      X      Y      Z        X      Y      Z        X      Y      Z   
After scan for Atom:   Atom  AN      X      Y      Z        X      Y      Z        X      Y      Z   
After scan for Atom:   Atom  AN      X      Y      Z        X      Y      Z        X      Y      Z   
After scan for Atom:   Atom  AN      X      Y      Z        X      Y      Z        X      Y      Z   
After scan for Atom:   Atom  AN      X      Y      Z        X      Y      Z        X      Y      Z   
After scan for Atom:   Atom  AN      X      Y      Z        X      Y      Z        X      Y      Z   
After scan for Atom:   Atom  AN      X      Y      Z        X      Y      Z        X      Y      Z   
After scan for Atom:   Atom  AN      X      Y      Z        X      Y      Z        X      Y      Z   
After scan for Atom:   Atom  AN      X      Y      Z        X      Y      Z        X      Y      Z   
After scan for Atom:   Atom  AN      X      Y      Z        X      Y      Z        X      Y      Z   
After scan for Atom:   Atom  AN      X      Y      Z        X      Y      Z        X      Y      Z   
After scan for Atom:   Atom  AN      X      Y      Z        X      Y      Z        X      Y      Z   
After scan for Atom:   Atom  AN      X      Y      Z        X      Y      Z        X      Y      Z   
After scan for Atom:   Atom  AN      X      Y      Z        X      Y      Z        X      Y      Z   
After scan for Atom:   Atom  AN      X      Y      Z        X      Y      Z        X      Y      Z   
After scan for Atom:   Atom  AN      X      Y      Z        X      Y      Z        X      Y      Z   
 g94    frequencies=
     0.0    0.0    0.0    0.0    0.0    0.0   62.2   87.4  153.4  170.3
   181.4  220.1  291.7  316.0  325.4  328.1  339.6  366.3  369.5  380.3
   445.0  483.3  488.6  495.1  571.0  597.1  741.0  743.7  797.0  805.0
   807.0  847.6  853.3  878.4  883.4  903.0  909.1  943.7  954.2  984.5
   984.6 1049.4 1055.0 1055.6 1064.3 1085.3 1088.8 1112.8 1114.8 1125.5
  1141.1 1155.1 1173.7 1218.9 1223.2 1237.5 1247.4 1262.0 1277.4 1291.0
  1302.7 1310.0 1320.7 1328.0 1347.7 1355.1 1366.8 1367.6 1370.4 1372.6
  1375.3 1382.5 1382.6 1383.0 1419.2 1485.0 1488.7 1489.1 1490.2 1494.7
  1495.2 1500.0 1505.4 1505.8 2902.8 2906.2 3005.0 3005.2 3008.2 3008.7
  3010.8 3010.9 3017.1 3017.2 3031.3 3031.7 3044.9 3045.2 3054.4 3054.7
  3058.7 3058.8 3067.1 3067.2 3500.9
 g94    symmetries=
                                                 A      A      A      A
       A      A      A      A      A      A      A      A      A      A
       A      A      A      A      A      A      A      A      A      A
       A      A      A      A      A      A      A      A      A      A
       A      A      A      A      A      A      A      A      A      A
       A      A      A      A      A      A      A      A      A      A
       A      A      A      A      A      A      A      A      A      A
       A      A      A      A      A      A      A      A      A      A
       A      A      A      A      A      A      A      A      A      A
       A      A      A      A      A      A      A      A      A      A
       A      A      A      A      A
 atomic masses:
 12.0000 12.0000 12.0000 12.0000 31.9721 12.0000 12.0000 12.0000 12.0000 12.0000
 12.0000 14.0031  1.0078 12.0000 12.0000  1.0078  1.0078  1.0078  1.0078  1.0078
  1.0078  1.0078  1.0078  1.0078  1.0078  1.0078  1.0078  1.0078  1.0078  1.0078
  1.0078  1.0078  1.0078  1.0078  1.0078
 looking for force constants in 
 ./phenothiazine_0_C0S0.fchk                                                    
  
 Cartesian Force Constants                  R   N=        5565                  
  
 n3=         105        5565
 g94-fc frequencies=
    -7.5   -2.3   -0.0    0.0    0.0    2.4   62.2   87.4  153.4  170.3
   181.4  220.1  291.7  316.0  325.4  328.1  339.6  366.3  369.5  380.3
   445.0  483.3  488.6  495.1  571.0  597.1  741.0  743.8  797.0  805.0
   807.0  847.6  853.3  878.4  883.4  903.0  909.1  943.8  954.2  984.6
   984.6 1049.4 1055.0 1055.7 1064.3 1085.3 1088.8 1112.8 1114.8 1125.5
  1141.1 1155.2 1173.7 1218.9 1223.2 1237.6 1247.5 1262.0 1277.4 1291.0
  1302.7 1310.1 1320.7 1328.0 1347.7 1355.1 1366.8 1367.7 1370.4 1372.6
  1375.4 1382.5 1382.7 1383.0 1419.3 1485.0 1488.7 1489.2 1490.2 1494.8
  1495.2 1500.1 1505.4 1505.8 2902.8 2906.3 3005.1 3005.3 3008.3 3008.8
  3010.8 3010.9 3017.2 3017.3 3031.4 3031.8 3044.9 3045.3 3054.5 3054.8
  3058.8 3058.9 3067.1 3067.2 3500.9
 at 99999: n3=         105
 symm operator            1 :  F  nop=           0
 symm operator            2 :  F  nop=           0
 symm operator            3 :  F  nop=           0
 symm operator            4 :  F  nop=           0
 symm operator            5 :  F  nop=           0
 symm operator            6 :  F  nop=           0
 symm operator            7 :  F  nop=           0
 The point group of the molecule is  C1
 Symmetry rotation matrix:
   1.00000   0.00000   0.00000
   0.00000   1.00000   0.00000
   0.00000   0.00000   1.00000

 Projecting out zero-frequency components
 generating redundant internal coords
         300        3600          35
 search for int coords
   1 str   2   1   1.535
   2 str   3   2   1.536
   3 str   4   3   1.533
   4 str   5   4   1.844
   5 str   6   5   1.844
   6 str   7   6   1.533
   7 str   8   7   1.536
   8 str   9   8   1.535
   9 str  10   9   1.534
  10 str  11   6   1.536
  11 str  11  10   1.536
  12 str  12  11   1.465
  13 str  13  12   1.016
  14 str  14   4   1.536
  15 str  14  12   1.465
  16 str  15   1   1.534
  17 str  15  14   1.536
  18 str  16   1   1.094
  19 str  17   1   1.097
  20 str  18   2   1.094
  21 str  19   2   1.097
  22 str  20   3   1.097
  23 str  21   3   1.094
  24 str  22   4   1.095
  25 str  23   6   1.095
  26 str  24   7   1.097
  27 str  25   7   1.094
  28 str  26   8   1.094
  29 str  27   8   1.097
  30 str  28   9   1.097
  31 str  29   9   1.094
  32 str  30  10   1.097
  33 str  31  10   1.096
  34 str  32  11   1.106
  35 str  33  14   1.106
  36 str  34  15   1.097
  37 str  35  15   1.096
 nber stretches=          37
  38 ben   1   2   3
  39 prop tor   1   2   3   4
  40 prop tor   1   2   3  20
  41 prop tor   1   2   3  21
  42 ben   1   2  18
  43 ben   1   2  19
  44 ben   1  15  14
  45 ben   1  15  34
  46 ben   1  15  35
  47 ben   2   1  15
  48 prop tor   2   1  15  14
  49 prop tor   2   1  15  34
  50 prop tor   2   1  15  35
  51 ben   2   1  16
  52 ben   2   1  17
  53 ben   2   3   4
  54 prop tor   2   3   4   5
  55 prop tor   2   3   4  14
  56 prop tor   2   3   4  22
  57 ben   2   3  20
  58 ben   2   3  21
  59 ben   3   2  18
  60 ben   3   2  19
  61 ben   3   4   5
  62 prop tor   3   4   5   6
  63 ben   3   4  14
  64 prop tor   3   4  14  12
  65 prop tor   3   4  14  15
  66 prop tor   3   4  14  33
  67 ben   3   4  22
  68 ben   4   3  20
  69 ben   4   3  21
  70 ben   4   5   6
  71 prop tor   4   5   6   7
  72 prop tor   4   5   6  11
  73 prop tor   4   5   6  23
  74 ben   4  14  12
  75 ben   4  14  15
  76 prop tor   4  14  15   1
  77 prop tor   4  14  15  34
  78 prop tor   4  14  15  35
  79 ben   4  14  33
  80 ben   5   4  14
  81 prop tor   5   4  14  12
  82 prop tor   5   4  14  15
  83 prop tor   5   4  14  33
  84 ben   5   4  22
  85 ben   5   6   7
  86 prop tor   5   6   7   8
  87 prop tor   5   6   7  24
  88 prop tor   5   6   7  25
  89 ben   5   6  11
  90 prop tor   5   6  11  10
  91 prop tor   5   6  11  12
  92 prop tor   5   6  11  32
  93 ben   5   6  23
  94 ben   6   7   8
  95 prop tor   6   7   8   9
  96 prop tor   6   7   8  26
  97 prop tor   6   7   8  27
  98 ben   6   7  24
  99 ben   6   7  25
 100 ben   6  11  10
 101 ben   6  11  12
 102 prop tor   6  11  12  13
 103 prop tor   6  11  12  14
 104 ben   6  11  32
 105 ben   7   6  11
 106 prop tor   7   6  11  10
 107 prop tor   7   6  11  12
 108 prop tor   7   6  11  32
 109 ben   7   6  23
 110 ben   7   8   9
 111 prop tor   7   8   9  10
 112 prop tor   7   8   9  28
 113 prop tor   7   8   9  29
 114 ben   7   8  26
 115 ben   7   8  27
 116 ben   8   7  24
 117 ben   8   7  25
 118 ben   8   9  10
 119 prop tor   8   9  10  11
 120 prop tor   8   9  10  30
 121 prop tor   8   9  10  31
 122 ben   8   9  28
 123 ben   8   9  29
 124 ben   9   8  26
 125 ben   9   8  27
 126 ben   9  10  11
 127 prop tor   9  10  11   6
 128 prop tor   9  10  11  12
 129 prop tor   9  10  11  32
 130 ben   9  10  30
 131 ben   9  10  31
 132 ben  10   9  28
 133 ben  10   9  29
 134 ben  10  11  12
 135 prop tor  10  11  12  13
 136 prop tor  10  11  12  14
 137 ben  10  11  32
 138 prop tor  11   6   7   8
 139 prop tor  11   6   7  24
 140 prop tor  11   6   7  25
 141 ben  11   6  23
 142 ben  11  10  30
 143 ben  11  10  31
 144 ben  11  12  13
 145 ben  11  12  14
 146 prop tor  11  12  14   4
 147 prop tor  11  12  14  15
 148 prop tor  11  12  14  33
 149 ben  12  11  32
 150 ben  12  14  15
 151 prop tor  12  14  15   1
 152 prop tor  12  14  15  34
 153 prop tor  12  14  15  35
 154 ben  12  14  33
 155 ben  13  12  14
 156 prop tor  13  12  14   4
 157 prop tor  13  12  14  15
 158 prop tor  13  12  14  33
 159 prop tor  14   4   5   6
 160 ben  14   4  22
 161 ben  14  15  34
 162 ben  14  15  35
 163 prop tor  15   1   2   3
 164 prop tor  15   1   2  18
 165 prop tor  15   1   2  19
 166 ben  15   1  16
 167 ben  15   1  17
 168 ben  15  14  33
 169 prop tor  16   1   2   3
 170 prop tor  16   1   2  18
 171 prop tor  16   1   2  19
 172 prop tor  16   1  15  14
 173 prop tor  16   1  15  34
 174 prop tor  16   1  15  35
 175 ben  16   1  17
 176 prop tor  17   1   2   3
 177 prop tor  17   1   2  18
 178 prop tor  17   1   2  19
 179 prop tor  17   1  15  14
 180 prop tor  17   1  15  34
 181 prop tor  17   1  15  35
 182 prop tor  18   2   3   4
 183 prop tor  18   2   3  20
 184 prop tor  18   2   3  21
 185 ben  18   2  19
 186 prop tor  19   2   3   4
 187 prop tor  19   2   3  20
 188 prop tor  19   2   3  21
 189 prop tor  20   3   4   5
 190 prop tor  20   3   4  14
 191 prop tor  20   3   4  22
 192 ben  20   3  21
 193 prop tor  21   3   4   5
 194 prop tor  21   3   4  14
 195 prop tor  21   3   4  22
 196 prop tor  22   4   5   6
 197 prop tor  22   4  14  12
 198 prop tor  22   4  14  15
 199 prop tor  22   4  14  33
 200 prop tor  23   6   7   8
 201 prop tor  23   6   7  24
 202 prop tor  23   6   7  25
 203 prop tor  23   6  11  10
 204 prop tor  23   6  11  12
 205 prop tor  23   6  11  32
 206 prop tor  24   7   8   9
 207 prop tor  24   7   8  26
 208 prop tor  24   7   8  27
 209 ben  24   7  25
 210 prop tor  25   7   8   9
 211 prop tor  25   7   8  26
 212 prop tor  25   7   8  27
 213 prop tor  26   8   9  10
 214 prop tor  26   8   9  28
 215 prop tor  26   8   9  29
 216 ben  26   8  27
 217 prop tor  27   8   9  10
 218 prop tor  27   8   9  28
 219 prop tor  27   8   9  29
 220 prop tor  28   9  10  11
 221 prop tor  28   9  10  30
 222 prop tor  28   9  10  31
 223 ben  28   9  29
 224 prop tor  29   9  10  11
 225 prop tor  29   9  10  30
 226 prop tor  29   9  10  31
 227 prop tor  30  10  11   6
 228 prop tor  30  10  11  12
 229 prop tor  30  10  11  32
 230 ben  30  10  31
 231 prop tor  31  10  11   6
 232 prop tor  31  10  11  12
 233 prop tor  31  10  11  32
 234 prop tor  32  11  12  13
 235 prop tor  32  11  12  14
 236 prop tor  33  14  15   1
 237 prop tor  33  14  15  34
 238 prop tor  33  14  15  35
 239 ben  34  15  35
 nber bend=              76
 nber lin bend=           0
 nber prop tor=         126
 nber impr tor=           0
 nber tot redund int=         239
 Eigenvalues of G in red int coords
    Gval -0.00000000 -0.00000000 -0.00000000 -0.00000000 -0.00000000 -0.00000000 -0.00000000 -0.00000000
    Gval -0.00000000 -0.00000000 -0.00000000 -0.00000000 -0.00000000 -0.00000000 -0.00000000 -0.00000000
    Gval -0.00000000 -0.00000000 -0.00000000 -0.00000000 -0.00000000 -0.00000000 -0.00000000 -0.00000000
    Gval -0.00000000 -0.00000000 -0.00000000 -0.00000000 -0.00000000 -0.00000000 -0.00000000 -0.00000000
    Gval -0.00000000 -0.00000000 -0.00000000 -0.00000000 -0.00000000 -0.00000000 -0.00000000 -0.00000000
    Gval -0.00000000 -0.00000000 -0.00000000 -0.00000000 -0.00000000 -0.00000000 -0.00000000 -0.00000000
    Gval -0.00000000 -0.00000000 -0.00000000 -0.00000000 -0.00000000 -0.00000000 -0.00000000 -0.00000000
    Gval -0.00000000 -0.00000000 -0.00000000 -0.00000000 -0.00000000 -0.00000000 -0.00000000 -0.00000000
    Gval -0.00000000 -0.00000000 -0.00000000 -0.00000000  0.00000000  0.00000000  0.00000000  0.00000000
    Gval  0.00000000  0.00000000  0.00000000  0.00000000  0.00000000  0.00000000  0.00000000  0.00000000
    Gval  0.00000000  0.00000000  0.00000000  0.00000000  0.00000000  0.00000000  0.00000000  0.00000000
    Gval  0.00000000  0.00000000  0.00000000  0.00000000  0.00000000  0.00000000  0.00000000  0.00000000
    Gval  0.00000000  0.00000000  0.00000000  0.00000000  0.00000000  0.00000000  0.00000000  0.00000000
    Gval  0.00000000  0.00000000  0.00000000  0.00000000  0.00000000  0.00000000  0.00000000  0.00000000
    Gval  0.00000000  0.00000000  0.00000000  0.00000000  0.00000000  0.00000000  0.00000000  0.00000000
    Gval  0.00000000  0.00000000  0.00000000  0.00000000  0.00000000  0.00000000  0.00000000  0.00000000
    Gval  0.00000000  0.00000000  0.00000000  0.00000000  0.00000000  0.00000000  0.00000000  0.00000000
    Gval  0.00000000  0.00000000  0.00000000  0.00000000  0.00000758  0.00001003  0.00002022  0.00002291
    Gval  0.00003149  0.00003269  0.00003742  0.00004273  0.00004932  0.00005832  0.00006061  0.00006524
    Gval  0.00007700  0.00008485  0.00009781  0.00010401  0.00013512  0.00016921  0.00017833  0.00018399
    Gval  0.00018985  0.00020827  0.00021333  0.00023841  0.00024810  0.00027240  0.00028674  0.00029926
    Gval  0.00031622  0.00036196  0.00038331  0.00041694  0.00041807  0.00048060  0.00051358  0.00052400
    Gval  0.00057466  0.00057495  0.00057690  0.00057694  0.00058092  0.00058138  0.00058462  0.00058505
    Gval  0.00058571  0.00058579  0.00058953  0.00059024  0.00060315  0.00061028  0.00063535  0.00064772
    Gval  0.00066421  0.00068629  0.00081268  0.00104422  0.00105037  0.00119635  0.00119825  0.00122995
    Gval  0.00123072  0.00137054  0.00143416  0.00158414  0.00161872  0.00162001  0.00176995  0.00177075
    Gval  0.00180262  0.00181088  0.00183814  0.00185587  0.00188159  0.00188429  0.00190115  0.00191365
    Gval  0.00221204  0.00224215  0.00263836  0.00264123  0.00271186  0.00301769  0.00309770  0.00310926
    Gval  0.00372322  0.00374522  0.00374849  0.00382262  0.00392936  0.00393117  0.00393758  0.00401111
    Gval  0.00401415  0.00403494  0.00404643  0.00405735  0.00407616  0.00435376  0.00435706
  7.577091254382390E-006  7.577091254382390E-006
  1.003251969930642E-005  7.577091254382390E-006
  2.021745129420461E-005  7.577091254382390E-006
  2.291274037011534E-005  7.577091254382390E-006
  3.148668262989684E-005  7.577091254382390E-006
  3.268729246238072E-005  7.577091254382390E-006
  3.741962257497186E-005  7.577091254382390E-006
  4.273038585775981E-005  7.577091254382390E-006
  4.931676666123750E-005  7.577091254382390E-006
  5.832002412427361E-005  7.577091254382390E-006
  6.061307407102171E-005  7.577091254382390E-006
  6.523926653898072E-005  7.577091254382390E-006
  7.700121107241880E-005  7.577091254382390E-006
  8.485041488487165E-005  7.577091254382390E-006
  9.781318066974232E-005  7.577091254382390E-006
  1.040145242138236E-004  7.577091254382390E-006
  1.351211269067499E-004  7.577091254382390E-006
  1.692112011722799E-004  7.577091254382390E-006
  1.783329961203941E-004  7.577091254382390E-006
  1.839851072070355E-004  7.577091254382390E-006
  1.898453162840393E-004  7.577091254382390E-006
  2.082688569342688E-004  7.577091254382390E-006
  2.133280127368733E-004  7.577091254382390E-006
  2.384053659766560E-004  7.577091254382390E-006
  2.480960062533563E-004  7.577091254382390E-006
  2.723973188325760E-004  7.577091254382390E-006
  2.867427726746340E-004  7.577091254382390E-006
  2.992625341928894E-004  7.577091254382390E-006
  3.162224388340094E-004  7.577091254382390E-006
  3.619616356323326E-004  7.577091254382390E-006
  3.833092695554989E-004  7.577091254382390E-006
  4.169360670521515E-004  7.577091254382390E-006
  4.180745759691714E-004  7.577091254382390E-006
  4.806032369050060E-004  7.577091254382390E-006
  5.135804637174567E-004  7.577091254382390E-006
  5.240002892542678E-004  7.577091254382390E-006
  5.746641179576613E-004  7.577091254382390E-006
  5.749542232610851E-004  7.577091254382390E-006
  5.768957552803436E-004  7.577091254382390E-006
  5.769385018424708E-004  7.577091254382390E-006
  5.809194752335597E-004  7.577091254382390E-006
  5.813821124716177E-004  7.577091254382390E-006
  5.846195627745712E-004  7.577091254382390E-006
  5.850506018401381E-004  7.577091254382390E-006
  5.857124851067061E-004  7.577091254382390E-006
  5.857921616717251E-004  7.577091254382390E-006
  5.895290208497416E-004  7.577091254382390E-006
  5.902401157980712E-004  7.577091254382390E-006
  6.031487881289433E-004  7.577091254382390E-006
  6.102847104818234E-004  7.577091254382390E-006
  6.353508079473254E-004  7.577091254382390E-006
  6.477220752913254E-004  7.577091254382390E-006
  6.642123243638820E-004  7.577091254382390E-006
  6.862889537514596E-004  7.577091254382390E-006
  8.126824421598431E-004  7.577091254382390E-006
  1.044217712876963E-003  7.577091254382390E-006
  1.050373749691202E-003  7.577091254382390E-006
  1.196347914425305E-003  7.577091254382390E-006
  1.198246869238367E-003  7.577091254382390E-006
  1.229952516300577E-003  7.577091254382390E-006
  1.230722906972882E-003  7.577091254382390E-006
  1.370538655000997E-003  7.577091254382390E-006
  1.434161509859764E-003  7.577091254382390E-006
  1.584135819985183E-003  7.577091254382390E-006
  1.618717057104820E-003  7.577091254382390E-006
  1.620013306348536E-003  7.577091254382390E-006
  1.769947369307380E-003  7.577091254382390E-006
  1.770745538605423E-003  7.577091254382390E-006
  1.802616463223855E-003  7.577091254382390E-006
  1.810882200684293E-003  7.577091254382390E-006
  1.838135358874624E-003  7.577091254382390E-006
  1.855867828742756E-003  7.577091254382390E-006
  1.881590005189749E-003  7.577091254382390E-006
  1.884294571624626E-003  7.577091254382390E-006
  1.901152220845412E-003  7.577091254382390E-006
  1.913645165585804E-003  7.577091254382390E-006
  2.212037144745522E-003  7.577091254382390E-006
  2.242154855271934E-003  7.577091254382390E-006
  2.638358327751438E-003  7.577091254382390E-006
  2.641234952623408E-003  7.577091254382390E-006
  2.711857300406176E-003  7.577091254382390E-006
  3.017685559352896E-003  7.577091254382390E-006
  3.097702035303379E-003  7.577091254382390E-006
  3.109264893936446E-003  7.577091254382390E-006
  3.723222187329484E-003  7.577091254382390E-006
  3.745215085084818E-003  7.577091254382390E-006
  3.748491584183261E-003  7.577091254382390E-006
  3.822618367083670E-003  7.577091254382390E-006
  3.929363490716874E-003  7.577091254382390E-006
  3.931173042818109E-003  7.577091254382390E-006
  3.937582325912051E-003  7.577091254382390E-006
  4.011105916536092E-003  7.577091254382390E-006
  4.014153085351387E-003  7.577091254382390E-006
  4.034940175457784E-003  7.577091254382390E-006
  4.046432534477029E-003  7.577091254382390E-006
  4.057350192146526E-003  7.577091254382390E-006
  4.076163473301728E-003  7.577091254382390E-006
  4.353757000991684E-003  7.577091254382390E-006
  4.357060342066110E-003  7.577091254382390E-006
 cut=1d-8, nber non-redundant internal coords=          99
 Check on Eigenvals of non-red overlap matrix:
  0.00000758  0.00001003  0.00002022  0.00002291  0.00003149  0.00003269  0.00003742  0.00004273
  0.00004932  0.00005832  0.00006061  0.00006524  0.00007700  0.00008485  0.00009781  0.00010401
  0.00013512  0.00016921  0.00017833  0.00018399  0.00018985  0.00020827  0.00021333  0.00023841
  0.00024810  0.00027240  0.00028674  0.00029926  0.00031622  0.00036196  0.00038331  0.00041694
  0.00041807  0.00048060  0.00051358  0.00052400  0.00057466  0.00057495  0.00057690  0.00057694
  0.00058092  0.00058138  0.00058462  0.00058505  0.00058571  0.00058579  0.00058953  0.00059024
  0.00060315  0.00061028  0.00063535  0.00064772  0.00066421  0.00068629  0.00081268  0.00104422
  0.00105037  0.00119635  0.00119825  0.00122995  0.00123072  0.00137054  0.00143416  0.00158414
  0.00161872  0.00162001  0.00176995  0.00177075  0.00180262  0.00181088  0.00183814  0.00185587
  0.00188159  0.00188429  0.00190115  0.00191365  0.00221204  0.00224215  0.00263836  0.00264123
  0.00271186  0.00301769  0.00309770  0.00310926  0.00372322  0.00374522  0.00374849  0.00382262
  0.00392936  0.00393117  0.00393758  0.00401111  0.00401415  0.00403494  0.00404643  0.00405735
  0.00407616  0.00435376  0.00435706
 Checking for correct frequencies
 recalc frequencies=
    -0.0   -0.0    0.0    0.0    0.0    0.0   62.2   87.4  153.4  170.3
   181.4  220.1  291.7  316.0  325.4  328.1  339.6  366.3  369.5  380.3
   445.0  483.3  488.6  495.1  571.0  597.1  741.0  743.8  797.0  805.0
   807.0  847.6  853.3  878.4  883.4  903.0  909.1  943.8  954.2  984.6
   984.6 1049.4 1055.0 1055.7 1064.3 1085.3 1088.8 1112.8 1114.8 1125.5
  1141.1 1155.2 1173.7 1218.9 1223.2 1237.6 1247.5 1262.0 1277.4 1291.0
  1302.7 1310.1 1320.7 1328.0 1347.7 1355.1 1366.8 1367.7 1370.4 1372.6
  1375.4 1382.5 1382.7 1383.0 1419.3 1485.0 1488.7 1489.2 1490.2 1494.8
  1495.2 1500.1 1505.4 1505.8 2902.8 2906.3 3005.1 3005.3 3008.3 3008.8
  3010.8 3010.9 3017.2 3017.3 3031.4 3031.8 3044.9 3045.3 3054.5 3054.8
  3058.8 3058.9 3067.1 3067.2 3500.9
 recalc symmetries=
                                                                       
                                                                       
                                                                       
                                                                       
                                                                       
                                                                       
                                                                       
                                                                       
                                                                       
                                                                       
                                    
 recalc freqs check OK
 Zero-point lengths:
 10.0000 10.0000 10.0000 10.0000 10.0000 10.0000 31.4345 26.5244 20.0142 18.9951
 18.4073 16.7102 14.5163 13.9468 13.7437 13.6873 13.4536 12.9536 12.8972 12.7130
 11.7515 11.2765 11.2151 11.1418 10.3748 10.1454  9.1070  9.0904  8.7812  8.7377
  8.7268  8.5152  8.4867  8.3648  8.3408  8.2498  8.2223  8.0698  8.0256  7.9008
  7.9006  7.6530  7.6325  7.6301  7.5991  7.5253  7.5131  7.4316  7.4250  7.3895
  7.3390  7.2941  7.2364  7.1008  7.0883  7.0471  7.0191  6.9784  6.9364  6.8998
  6.8687  6.8493  6.8217  6.8029  6.7530  6.7345  6.7056  6.7036  6.6968  6.6914
  6.6848  6.6675  6.6671  6.6662  6.5806  6.4332  6.4252  6.4243  6.4219  6.4122
  6.4113  6.4009  6.3895  6.3887  4.6013  4.5986  4.5224  4.5222  4.5200  4.5196
  4.5181  4.5180  4.5133  4.5133  4.5027  4.5024  4.4927  4.4925  4.4857  4.4854
  4.4825  4.4825  4.4764  4.4763  4.1899
 highest evec of mol 2
 -0.0002  0.0002  0.0001
 -0.0001 -0.0001 -0.0000
  0.0004 -0.0003 -0.0003
 -0.0017 -0.0001  0.0009
 -0.0001 -0.0000 -0.0001
 -0.0016 -0.0006  0.0009
  0.0002  0.0005 -0.0003
 -0.0001  0.0000 -0.0000
 -0.0001 -0.0002  0.0000
 -0.0011  0.0000  0.0001
  0.0044  0.0026 -0.0052
  0.2498  0.0525  0.0329
 -0.9412 -0.1979 -0.0926
  0.0051 -0.0005 -0.0052
 -0.0010 -0.0004  0.0001
  0.0000 -0.0001  0.0001
  0.0000  0.0000 -0.0000
 -0.0001  0.0001 -0.0001
 -0.0000  0.0000 -0.0000
 -0.0001  0.0000  0.0007
 -0.0001  0.0004  0.0003
 -0.0000 -0.0003 -0.0011
 -0.0002  0.0003 -0.0011
 -0.0001 -0.0001  0.0007
  0.0001 -0.0004  0.0003
 -0.0001 -0.0001 -0.0001
 -0.0000 -0.0000 -0.0000
  0.0000 -0.0000 -0.0000
 -0.0000  0.0001  0.0001
 -0.0004 -0.0022 -0.0011
  0.0003 -0.0005  0.0002
 -0.0018  0.0016  0.0017
 -0.0010 -0.0022  0.0017
 -0.0013  0.0019 -0.0011
  0.0001  0.0005  0.0002
 Enter nber and list of atoms to keep of mol #2
 keep list:          35           1           2           3           4
           5           6           7           8           9          10
          11          12          13          14          15          16
          17          18          19          20          21          22
          23          24          25          26          27          28
          29          30          31          32          33          34
          35
 reordering atoms
           1  -3.77275906708599     
           2  -3.91613345049547     
           3  -2.72111088283975     
           4  -1.39738162659120     
           5 -2.589947037768322E-005
           6   1.39746623482311     
           7   2.72110613616297     
           8   3.91622755612116     
           9   3.77283787298570     
          10   2.43557726340326     
          11   1.23896959467254     
          12 -4.036485579184557E-005
          13 -2.960702154349709E-005
          14  -1.23901825183992     
          15  -2.43566527168467     
          16  -4.60159137374283     
          17  -3.83727715792086     
          18  -4.84593104165257     
          19  -3.98607299853484     
          20  -2.71702934035737     
          21  -2.81064902304884     
          22  -1.36435582060523     
          23   1.36476447564073     
          24   2.71683560848491     
          25   2.81063254233418     
          26   4.84595928968581     
          27   3.98632231513889     
          28   3.83772247684103     
          29   4.60151404017454     
          30   2.32665779746663     
          31   2.40441138466301     
          32   1.23562438627246     
          33  -1.23565181555704     
          34  -2.32665738538277     
          35  -2.40476965611307     
           1           1
           2           2
           3           3
           4           4
           5           5
           6           6
           7           7
           8           8
           9           9
          10          10
          11          11
          12          12
          13          13
          14          14
          15          15
          16          16
          17          17
          18          18
          19          19
          20          20
          21          21
          22          22
          23          23
          24          24
          25          25
          26          26
          27          27
          28          28
          29          29
          30          30
          31          31
          32          32
          33          33
          34          34
          35          35
 initial cartes coords mol 1
   6   0.55867  -1.07936   3.84381
   6  -0.29127   0.14788   4.21509
   6  -0.30151   1.18226   3.06021
   6  -0.66478   0.53388   1.76584
  16   0.37036   2.03797  -0.47787
   6  -0.27216   0.66784  -1.54438
   6   0.07714   0.98881  -3.01307
   6  -0.36655  -0.07780  -4.02444
   6   0.22896  -1.43780  -3.65133
   6  -0.15294  -1.80409  -2.21617
   6   0.24105  -0.74349  -1.16164
   7  -0.30007  -1.25543   0.11329
   1  -0.05394  -2.24083   0.15130
   6   0.16351  -0.64220   1.36745
   6   0.14326  -1.70078   2.49963
   1   0.50842  -1.83273   4.64031
   1   1.61098  -0.77027   3.77583
   1   0.09127   0.59703   5.14394
   1  -1.32164  -0.17476   4.41507
   1   0.70614   1.62458   2.98885
   1  -0.98416   2.00522   3.29682
   1  -1.67736   0.58894   1.38739
   1  -1.36586   0.63803  -1.44771
   1   1.16430   1.12161  -3.08098
   1  -0.35919   1.96164  -3.25483
   1  -0.06528   0.20960  -5.04060
   1  -1.46288  -0.15440  -4.03132
   1   1.32248  -1.38784  -3.74220
   1  -0.10814  -2.22168  -4.34220
   1   0.30329  -2.76594  -1.93971
   1  -1.23923  -1.94638  -2.15105
   1   1.34465  -0.67488  -1.12803
   1   1.21495  -0.30806   1.26928
   1   0.82070  -2.53455   2.25329
   1  -0.87158  -2.11413   2.57050
 initial cartes coords mol 2
   6   0.27726   1.06519  -3.77276
   6  -0.29234  -0.35262  -3.91613
   6   0.09754  -1.23551  -2.72111
   6  -0.32530  -0.58816  -1.39738
  16   0.17287  -1.68402  -0.00003
   6  -0.32507  -0.58820   1.39747
   6   0.09830  -1.23536   2.72111
   6  -0.29202  -0.35280   3.91623
   6   0.27667   1.06538   3.77284
   6  -0.13154   1.69621   2.43558
   6   0.26769   0.81960   1.23897
   7  -0.21296   1.43724  -0.00004
   1   0.04886   2.41867  -0.00003
   6   0.26772   0.81957  -1.23902
   6  -0.13101   1.69633  -2.43567
   1  -0.05912   1.69576  -4.60159
   1   1.37174   1.02328  -3.83728
   1   0.05805  -0.81152  -4.84593
   1  -1.38587  -0.29896  -3.98607
   1   1.18311  -1.39020  -2.71703
   1  -0.36173  -2.22431  -2.81065
   1  -1.41640  -0.50030  -1.36436
   1  -1.41620  -0.50052   1.36476
   1   1.18397  -1.38927   2.71684
   1  -0.36029  -2.22448   2.81063
   1   0.05877  -0.81152   4.84596
   1  -1.38558  -0.29990   3.98632
   1   1.37116   1.02417   3.83772
   1  -0.06036   1.69580   4.60151
   1   0.32950   2.68531   2.32666
   1  -1.21666   1.84908   2.40441
   1   1.36829   0.71138   1.23562
   1   1.36830   0.71111  -1.23565
   1   0.33041   2.68525  -2.32666
   1  -1.21608   1.84959  -2.40477
 loop 1 0
 mod cartes coords mol 2
   6   0.27726   1.06519  -3.77276
   6  -0.29234  -0.35262  -3.91613
   6   0.09754  -1.23551  -2.72111
   6  -0.32530  -0.58816  -1.39738
  16   0.17287  -1.68402  -0.00003
   6  -0.32507  -0.58820   1.39747
   6   0.09830  -1.23536   2.72111
   6  -0.29202  -0.35280   3.91623
   6   0.27667   1.06538   3.77284
   6  -0.13154   1.69621   2.43558
   6   0.26769   0.81960   1.23897
   7  -0.21296   1.43724  -0.00004
   1   0.04886   2.41867  -0.00003
   6   0.26772   0.81957  -1.23902
   6  -0.13101   1.69633  -2.43567
   1  -0.05912   1.69576  -4.60159
   1   1.37174   1.02328  -3.83728
   1   0.05805  -0.81152  -4.84593
   1  -1.38587  -0.29896  -3.98607
   1   1.18311  -1.39020  -2.71703
   1  -0.36173  -2.22431  -2.81065
   1  -1.41640  -0.50030  -1.36436
   1  -1.41620  -0.50052   1.36476
   1   1.18397  -1.38927   2.71684
   1  -0.36029  -2.22448   2.81063
   1   0.05877  -0.81152   4.84596
   1  -1.38558  -0.29990   3.98632
   1   1.37116   1.02417   3.83772
   1  -0.06036   1.69580   4.60151
   1   0.32950   2.68531   2.32666
   1  -1.21666   1.84908   2.40441
   1   1.36829   0.71138   1.23562
   1   1.36830   0.71111  -1.23565
   1   0.33041   2.68525  -2.32666
   1  -1.21608   1.84959  -2.40477
 read in order, maxerr= 10.09 for atom  18
 loop 1 1
 mod cartes coords mol 2
   6  -0.27726   1.06519  -3.77276
   6   0.29234  -0.35262  -3.91613
   6  -0.09754  -1.23551  -2.72111
   6   0.32530  -0.58816  -1.39738
  16  -0.17287  -1.68402  -0.00003
   6   0.32507  -0.58820   1.39747
   6  -0.09830  -1.23536   2.72111
   6   0.29202  -0.35280   3.91623
   6  -0.27667   1.06538   3.77284
   6   0.13154   1.69621   2.43558
   6  -0.26769   0.81960   1.23897
   7   0.21296   1.43724  -0.00004
   1  -0.04886   2.41867  -0.00003
   6  -0.26772   0.81957  -1.23902
   6   0.13101   1.69633  -2.43567
   1   0.05912   1.69576  -4.60159
   1  -1.37174   1.02328  -3.83728
   1  -0.05805  -0.81152  -4.84593
   1   1.38587  -0.29896  -3.98607
   1  -1.18311  -1.39020  -2.71703
   1   0.36173  -2.22431  -2.81065
   1   1.41640  -0.50030  -1.36436
   1   1.41620  -0.50052   1.36476
   1  -1.18397  -1.38927   2.71684
   1   0.36029  -2.22448   2.81063
   1  -0.05877  -0.81152   4.84596
   1   1.38558  -0.29990   3.98632
   1  -1.37116   1.02417   3.83772
   1   0.06036   1.69580   4.60151
   1  -0.32950   2.68531   2.32666
   1   1.21666   1.84908   2.40441
   1  -1.36829   0.71138   1.23562
   1  -1.36830   0.71111  -1.23565
   1  -0.33041   2.68525  -2.32666
   1   1.21608   1.84959  -2.40477
 read in order, maxerr= 10.09 for atom  18
 loop 1 2
 mod cartes coords mol 2
   6   0.27726  -1.06519  -3.77276
   6  -0.29234   0.35262  -3.91613
   6   0.09754   1.23551  -2.72111
   6  -0.32530   0.58816  -1.39738
  16   0.17287   1.68402  -0.00003
   6  -0.32507   0.58820   1.39747
   6   0.09830   1.23536   2.72111
   6  -0.29202   0.35280   3.91623
   6   0.27667  -1.06538   3.77284
   6  -0.13154  -1.69621   2.43558
   6   0.26769  -0.81960   1.23897
   7  -0.21296  -1.43724  -0.00004
   1   0.04886  -2.41867  -0.00003
   6   0.26772  -0.81957  -1.23902
   6  -0.13101  -1.69633  -2.43567
   1  -0.05912  -1.69576  -4.60159
   1   1.37174  -1.02328  -3.83728
   1   0.05805   0.81152  -4.84593
   1  -1.38587   0.29896  -3.98607
   1   1.18311   1.39020  -2.71703
   1  -0.36173   2.22431  -2.81065
   1  -1.41640   0.50030  -1.36436
   1  -1.41620   0.50052   1.36476
   1   1.18397   1.38927   2.71684
   1  -0.36029   2.22448   2.81063
   1   0.05877   0.81152   4.84596
   1  -1.38558   0.29990   3.98632
   1   1.37116  -1.02417   3.83772
   1  -0.06036  -1.69580   4.60151
   1   0.32950  -2.68531   2.32666
   1  -1.21666  -1.84908   2.40441
   1   1.36829  -0.71138   1.23562
   1   1.36830  -0.71111  -1.23565
   1   0.33041  -2.68525  -2.32666
   1  -1.21608  -1.84959  -2.40477
 read in order, maxerr=  9.99 for atom  18
 loop 1 3
 mod cartes coords mol 2
   6  -0.27726  -1.06519  -3.77276
   6   0.29234   0.35262  -3.91613
   6  -0.09754   1.23551  -2.72111
   6   0.32530   0.58816  -1.39738
  16  -0.17287   1.68402  -0.00003
   6   0.32507   0.58820   1.39747
   6  -0.09830   1.23536   2.72111
   6   0.29202   0.35280   3.91623
   6  -0.27667  -1.06538   3.77284
   6   0.13154  -1.69621   2.43558
   6  -0.26769  -0.81960   1.23897
   7   0.21296  -1.43724  -0.00004
   1  -0.04886  -2.41867  -0.00003
   6  -0.26772  -0.81957  -1.23902
   6   0.13101  -1.69633  -2.43567
   1   0.05912  -1.69576  -4.60159
   1  -1.37174  -1.02328  -3.83728
   1  -0.05805   0.81152  -4.84593
   1   1.38587   0.29896  -3.98607
   1  -1.18311   1.39020  -2.71703
   1   0.36173   2.22431  -2.81065
   1   1.41640   0.50030  -1.36436
   1   1.41620   0.50052   1.36476
   1  -1.18397   1.38927   2.71684
   1   0.36029   2.22448   2.81063
   1  -0.05877   0.81152   4.84596
   1   1.38558   0.29990   3.98632
   1  -1.37116  -1.02417   3.83772
   1   0.06036  -1.69580   4.60151
   1  -0.32950  -2.68531   2.32666
   1   1.21666  -1.84908   2.40441
   1  -1.36829  -0.71138   1.23562
   1  -1.36830  -0.71111  -1.23565
   1  -0.33041  -2.68525  -2.32666
   1   1.21608  -1.84959  -2.40477
 read in order, maxerr=  9.99 for atom  18
 loop 1 4
 mod cartes coords mol 2
   6   0.27726   1.06519   3.77276
   6  -0.29234  -0.35262   3.91613
   6   0.09754  -1.23551   2.72111
   6  -0.32530  -0.58816   1.39738
  16   0.17287  -1.68402   0.00003
   6  -0.32507  -0.58820  -1.39747
   6   0.09830  -1.23536  -2.72111
   6  -0.29202  -0.35280  -3.91623
   6   0.27667   1.06538  -3.77284
   6  -0.13154   1.69621  -2.43558
   6   0.26769   0.81960  -1.23897
   7  -0.21296   1.43724   0.00004
   1   0.04886   2.41867   0.00003
   6   0.26772   0.81957   1.23902
   6  -0.13101   1.69633   2.43567
   1  -0.05912   1.69576   4.60159
   1   1.37174   1.02328   3.83728
   1   0.05805  -0.81152   4.84593
   1  -1.38587  -0.29896   3.98607
   1   1.18311  -1.39020   2.71703
   1  -0.36173  -2.22431   2.81065
   1  -1.41640  -0.50030   1.36436
   1  -1.41620  -0.50052  -1.36476
   1   1.18397  -1.38927  -2.71684
   1  -0.36029  -2.22448  -2.81063
   1   0.05877  -0.81152  -4.84596
   1  -1.38558  -0.29990  -3.98632
   1   1.37116   1.02417  -3.83772
   1  -0.06036   1.69580  -4.60151
   1   0.32950   2.68531  -2.32666
   1  -1.21666   1.84908  -2.40441
   1   1.36829   0.71138  -1.23562
   1   1.36830   0.71111   1.23565
   1   0.33041   2.68525   2.32666
   1  -1.21608   1.84959   2.40477
 read in order, maxerr=  5.47 for atom  30
 loop 1 5
 mod cartes coords mol 2
   6  -0.27726   1.06519   3.77276
   6   0.29234  -0.35262   3.91613
   6  -0.09754  -1.23551   2.72111
   6   0.32530  -0.58816   1.39738
  16  -0.17287  -1.68402   0.00003
   6   0.32507  -0.58820  -1.39747
   6  -0.09830  -1.23536  -2.72111
   6   0.29202  -0.35280  -3.91623
   6  -0.27667   1.06538  -3.77284
   6   0.13154   1.69621  -2.43558
   6  -0.26769   0.81960  -1.23897
   7   0.21296   1.43724   0.00004
   1  -0.04886   2.41867   0.00003
   6  -0.26772   0.81957   1.23902
   6   0.13101   1.69633   2.43567
   1   0.05912   1.69576   4.60159
   1  -1.37174   1.02328   3.83728
   1  -0.05805  -0.81152   4.84593
   1   1.38587  -0.29896   3.98607
   1  -1.18311  -1.39020   2.71703
   1   0.36173  -2.22431   2.81065
   1   1.41640  -0.50030   1.36436
   1   1.41620  -0.50052  -1.36476
   1  -1.18397  -1.38927  -2.71684
   1   0.36029  -2.22448  -2.81063
   1  -0.05877  -0.81152  -4.84596
   1   1.38558  -0.29990  -3.98632
   1  -1.37116   1.02417  -3.83772
   1   0.06036   1.69580  -4.60151
   1  -0.32950   2.68531  -2.32666
   1   1.21666   1.84908  -2.40441
   1  -1.36829   0.71138  -1.23562
   1  -1.36830   0.71111   1.23565
   1  -0.33041   2.68525   2.32666
   1   1.21608   1.84959   2.40477
 read in order, maxerr=  5.50 for atom  30
 loop 1 6
 mod cartes coords mol 2
   6   0.27726  -1.06519   3.77276
   6  -0.29234   0.35262   3.91613
   6   0.09754   1.23551   2.72111
   6  -0.32530   0.58816   1.39738
  16   0.17287   1.68402   0.00003
   6  -0.32507   0.58820  -1.39747
   6   0.09830   1.23536  -2.72111
   6  -0.29202   0.35280  -3.91623
   6   0.27667  -1.06538  -3.77284
   6  -0.13154  -1.69621  -2.43558
   6   0.26769  -0.81960  -1.23897
   7  -0.21296  -1.43724   0.00004
   1   0.04886  -2.41867   0.00003
   6   0.26772  -0.81957   1.23902
   6  -0.13101  -1.69633   2.43567
   1  -0.05912  -1.69576   4.60159
   1   1.37174  -1.02328   3.83728
   1   0.05805   0.81152   4.84593
   1  -1.38587   0.29896   3.98607
   1   1.18311   1.39020   2.71703
   1  -0.36173   2.22431   2.81065
   1  -1.41640   0.50030   1.36436
   1  -1.41620   0.50052  -1.36476
   1   1.18397   1.38927  -2.71684
   1  -0.36029   2.22448  -2.81063
   1   0.05877   0.81152  -4.84596
   1  -1.38558   0.29990  -3.98632
   1   1.37116  -1.02417  -3.83772
   1  -0.06036  -1.69580  -4.60151
   1   0.32950  -2.68531  -2.32666
   1  -1.21666  -1.84908  -2.40441
   1   1.36829  -0.71138  -1.23562
   1   1.36830  -0.71111   1.23565
   1   0.33041  -2.68525   2.32666
   1  -1.21608  -1.84959   2.40477
 read in order, maxerr=  0.82 for atom  21
 loop 1 7
 mod cartes coords mol 2
   6  -0.27726  -1.06519   3.77276
   6   0.29234   0.35262   3.91613
   6  -0.09754   1.23551   2.72111
   6   0.32530   0.58816   1.39738
  16  -0.17287   1.68402   0.00003
   6   0.32507   0.58820  -1.39747
   6  -0.09830   1.23536  -2.72111
   6   0.29202   0.35280  -3.91623
   6  -0.27667  -1.06538  -3.77284
   6   0.13154  -1.69621  -2.43558
   6  -0.26769  -0.81960  -1.23897
   7   0.21296  -1.43724   0.00004
   1  -0.04886  -2.41867   0.00003
   6  -0.26772  -0.81957   1.23902
   6   0.13101  -1.69633   2.43567
   1   0.05912  -1.69576   4.60159
   1  -1.37174  -1.02328   3.83728
   1  -0.05805   0.81152   4.84593
   1   1.38587   0.29896   3.98607
   1  -1.18311   1.39020   2.71703
   1   0.36173   2.22431   2.81065
   1   1.41640   0.50030   1.36436
   1   1.41620   0.50052  -1.36476
   1  -1.18397   1.38927  -2.71684
   1   0.36029   2.22448  -2.81063
   1  -0.05877   0.81152  -4.84596
   1   1.38558   0.29990  -3.98632
   1  -1.37116  -1.02417  -3.83772
   1   0.06036  -1.69580  -4.60151
   1  -0.32950  -2.68531  -2.32666
   1   1.21666  -1.84908  -2.40441
   1  -1.36829  -0.71138  -1.23562
   1  -1.36830  -0.71111   1.23565
   1  -0.33041  -2.68525   2.32666
   1   1.21608  -1.84959   2.40477
 read in order, maxerr=  3.10 for atom  22
 loop 2 0
 mod cartes coords mol 2
   6   0.27726  -3.77276   1.06519
   6  -0.29234  -3.91613  -0.35262
   6   0.09754  -2.72111  -1.23551
   6  -0.32530  -1.39738  -0.58816
  16   0.17287  -0.00003  -1.68402
   6  -0.32507   1.39747  -0.58820
   6   0.09830   2.72111  -1.23536
   6  -0.29202   3.91623  -0.35280
   6   0.27667   3.77284   1.06538
   6  -0.13154   2.43558   1.69621
   6   0.26769   1.23897   0.81960
   7  -0.21296  -0.00004   1.43724
   1   0.04886  -0.00003   2.41867
   6   0.26772  -1.23902   0.81957
   6  -0.13101  -2.43567   1.69633
   1  -0.05912  -4.60159   1.69576
   1   1.37174  -3.83728   1.02328
   1   0.05805  -4.84593  -0.81152
   1  -1.38587  -3.98607  -0.29896
   1   1.18311  -2.71703  -1.39020
   1  -0.36173  -2.81065  -2.22431
   1  -1.41640  -1.36436  -0.50030
   1  -1.41620   1.36476  -0.50052
   1   1.18397   2.71684  -1.38927
   1  -0.36029   2.81063  -2.22448
   1   0.05877   4.84596  -0.81152
   1  -1.38558   3.98632  -0.29990
   1   1.37116   3.83772   1.02417
   1  -0.06036   4.60151   1.69580
   1   0.32950   2.32666   2.68531
   1  -1.21666   2.40441   1.84908
   1   1.36829   1.23562   0.71138
   1   1.36830  -1.23565   0.71111
   1   0.33041  -2.32666   2.68525
   1  -1.21608  -2.40477   1.84959
 read in order, maxerr=  9.11 for atom  29
 loop 2 1
 mod cartes coords mol 2
   6  -0.27726  -3.77276   1.06519
   6   0.29234  -3.91613  -0.35262
   6  -0.09754  -2.72111  -1.23551
   6   0.32530  -1.39738  -0.58816
  16  -0.17287  -0.00003  -1.68402
   6   0.32507   1.39747  -0.58820
   6  -0.09830   2.72111  -1.23536
   6   0.29202   3.91623  -0.35280
   6  -0.27667   3.77284   1.06538
   6   0.13154   2.43558   1.69621
   6  -0.26769   1.23897   0.81960
   7   0.21296  -0.00004   1.43724
   1  -0.04886  -0.00003   2.41867
   6  -0.26772  -1.23902   0.81957
   6   0.13101  -2.43567   1.69633
   1   0.05912  -4.60159   1.69576
   1  -1.37174  -3.83728   1.02328
   1  -0.05805  -4.84593  -0.81152
   1   1.38587  -3.98607  -0.29896
   1  -1.18311  -2.71703  -1.39020
   1   0.36173  -2.81065  -2.22431
   1   1.41640  -1.36436  -0.50030
   1   1.41620   1.36476  -0.50052
   1  -1.18397   2.71684  -1.38927
   1   0.36029   2.81063  -2.22448
   1  -0.05877   4.84596  -0.81152
   1   1.38558   3.98632  -0.29990
   1  -1.37116   3.83772   1.02417
   1   0.06036   4.60151   1.69580
   1  -0.32950   2.32666   2.68531
   1   1.21666   2.40441   1.84908
   1  -1.36829   1.23562   0.71138
   1  -1.36830  -1.23565   0.71111
   1  -0.33041  -2.32666   2.68525
   1   1.21608  -2.40477   1.84959
 read in order, maxerr=  9.11 for atom  29
 loop 2 2
[...]
  5.858972394435210E-004  1.764365276007585E-006
  5.879046548085682E-004  1.764365276007585E-006
  5.901117748073826E-004  1.764365276007585E-006
  6.027544168865080E-004  1.764365276007585E-006
  6.032876994107649E-004  1.764365276007585E-006
  6.143387017742514E-004  1.764365276007585E-006
  6.375092902410319E-004  1.764365276007585E-006
  6.482643929513983E-004  1.764365276007585E-006
  6.664365599001942E-004  1.764365276007585E-006
  7.874547572519261E-004  1.764365276007585E-006
  1.006762937389788E-003  1.764365276007585E-006
  1.028013872300169E-003  1.764365276007585E-006
  1.158771839690466E-003  1.764365276007585E-006
  1.176819207225054E-003  1.764365276007585E-006
  1.213672215102695E-003  1.764365276007585E-006
  1.218476636203663E-003  1.764365276007585E-006
  1.260990136746476E-003  1.764365276007585E-006
  1.326428679977988E-003  1.764365276007585E-006
  1.390387175791712E-003  1.764365276007585E-006
  1.472593844881668E-003  1.764365276007585E-006
  1.531519192797461E-003  1.764365276007585E-006
  1.559948710620164E-003  1.764365276007585E-006
  1.633426078208803E-003  1.764365276007585E-006
  1.707734847970346E-003  1.764365276007585E-006
  1.734777933001655E-003  1.764365276007585E-006
  1.744455029701024E-003  1.764365276007585E-006
  1.769165105524219E-003  1.764365276007585E-006
  1.782909522725485E-003  1.764365276007585E-006
  1.852903296307552E-003  1.764365276007585E-006
  1.861276391913334E-003  1.764365276007585E-006
  1.864158329770608E-003  1.764365276007585E-006
  1.891851240753710E-003  1.764365276007585E-006
  1.908758089797183E-003  1.764365276007585E-006
  2.444933279184330E-003  1.764365276007585E-006
  2.553280477149603E-003  1.764365276007585E-006
  2.635061419395544E-003  1.764365276007585E-006
  2.836696567954987E-003  1.764365276007585E-006
  3.026547337055933E-003  1.764365276007585E-006
  3.045521600744128E-003  1.764365276007585E-006
  3.478872821065048E-003  1.764365276007585E-006
  3.614586956225828E-003  1.764365276007585E-006
  3.696736989569321E-003  1.764365276007585E-006
  3.761592476252476E-003  1.764365276007585E-006
  3.850353340964765E-003  1.764365276007585E-006
  3.891457861296395E-003  1.764365276007585E-006
  3.917378301802571E-003  1.764365276007585E-006
  3.961869544078629E-003  1.764365276007585E-006
  4.008388926000059E-003  1.764365276007585E-006
  4.016106030601493E-003  1.764365276007585E-006
  4.017569121879780E-003  1.764365276007585E-006
  4.068705236162319E-003  1.764365276007585E-006
  4.231221237551029E-003  1.764365276007585E-006
  4.342524172794694E-003  1.764365276007585E-006
  4.567222921882549E-003  1.764365276007585E-006
 cut=1d-8, nber non-redundant internal coords=          99
 Check on Eigenvals of non-red overlap matrix:
  0.00000176  0.00000593  0.00000645  0.00001074  0.00001413  0.00001709  0.00003105  0.00003705
  0.00004264  0.00004860  0.00005247  0.00005782  0.00006316  0.00006554  0.00008484  0.00008866
  0.00010307  0.00012190  0.00014002  0.00016971  0.00017435  0.00019309  0.00020656  0.00022366
  0.00023511  0.00025767  0.00026631  0.00027563  0.00028607  0.00031772  0.00038808  0.00038992
  0.00040279  0.00048091  0.00051349  0.00052238  0.00057481  0.00057495  0.00057636  0.00057688
  0.00057933  0.00058074  0.00058403  0.00058459  0.00058509  0.00058590  0.00058790  0.00059011
  0.00060275  0.00060329  0.00061434  0.00063751  0.00064826  0.00066644  0.00078745  0.00100676
  0.00102801  0.00115877  0.00117682  0.00121367  0.00121848  0.00126099  0.00132643  0.00139039
  0.00147259  0.00153152  0.00155995  0.00163343  0.00170773  0.00173478  0.00174446  0.00176917
  0.00178291  0.00185290  0.00186128  0.00186416  0.00189185  0.00190876  0.00244493  0.00255328
  0.00263506  0.00283670  0.00302655  0.00304552  0.00347887  0.00361459  0.00369674  0.00376159
  0.00385035  0.00389146  0.00391738  0.00396187  0.00400839  0.00401611  0.00401757  0.00406871
  0.00423122  0.00434252  0.00456722
 generating redundant internal coords
         300        3600          35
 search for int coords
   1 str   2   1   1.535
   2 str   3   2   1.536
   3 str   4   3   1.533
   4 str   5   4   1.844
   5 str   6   5   1.844
   6 str   7   6   1.533
   7 str   8   7   1.536
   8 str   9   8   1.535
   9 str  10   9   1.534
  10 str  11   6   1.536
  11 str  11  10   1.536
  12 str  12  11   1.465
  13 str  13  12   1.016
  14 str  14   4   1.536
  15 str  14  12   1.465
  16 str  15   1   1.534
  17 str  15  14   1.536
  18 str  16   1   1.094
  19 str  17   1   1.097
  20 str  18   2   1.094
  21 str  19   2   1.097
  22 str  20   3   1.097
  23 str  21   3   1.094
  24 str  22   4   1.095
  25 str  23   6   1.095
  26 str  24   7   1.097
  27 str  25   7   1.094
  28 str  26   8   1.094
  29 str  27   8   1.097
  30 str  28   9   1.097
  31 str  29   9   1.094
  32 str  30  10   1.097
  33 str  31  10   1.096
  34 str  32  11   1.106
  35 str  33  14   1.106
  36 str  34  15   1.097
  37 str  35  15   1.096
 nber stretches=          37
  38 ben   1   2   3
  39 prop tor   1   2   3   4
  40 prop tor   1   2   3  20
  41 prop tor   1   2   3  21
  42 ben   1   2  18
  43 ben   1   2  19
  44 ben   1  15  14
  45 ben   1  15  34
  46 ben   1  15  35
  47 ben   2   1  15
  48 prop tor   2   1  15  14
  49 prop tor   2   1  15  34
  50 prop tor   2   1  15  35
  51 ben   2   1  16
  52 ben   2   1  17
  53 ben   2   3   4
  54 prop tor   2   3   4   5
  55 prop tor   2   3   4  14
  56 prop tor   2   3   4  22
  57 ben   2   3  20
  58 ben   2   3  21
  59 ben   3   2  18
  60 ben   3   2  19
  61 ben   3   4   5
  62 prop tor   3   4   5   6
  63 ben   3   4  14
  64 prop tor   3   4  14  12
  65 prop tor   3   4  14  15
  66 prop tor   3   4  14  33
  67 ben   3   4  22
  68 ben   4   3  20
  69 ben   4   3  21
  70 ben   4   5   6
  71 prop tor   4   5   6   7
  72 prop tor   4   5   6  11
  73 prop tor   4   5   6  23
  74 ben   4  14  12
  75 ben   4  14  15
  76 prop tor   4  14  15   1
  77 prop tor   4  14  15  34
  78 prop tor   4  14  15  35
  79 ben   4  14  33
  80 ben   5   4  14
  81 prop tor   5   4  14  12
  82 prop tor   5   4  14  15
  83 prop tor   5   4  14  33
  84 ben   5   4  22
  85 ben   5   6   7
  86 prop tor   5   6   7   8
  87 prop tor   5   6   7  24
  88 prop tor   5   6   7  25
  89 ben   5   6  11
  90 prop tor   5   6  11  10
  91 prop tor   5   6  11  12
  92 prop tor   5   6  11  32
  93 ben   5   6  23
  94 ben   6   7   8
  95 prop tor   6   7   8   9
  96 prop tor   6   7   8  26
  97 prop tor   6   7   8  27
  98 ben   6   7  24
  99 ben   6   7  25
 100 ben   6  11  10
 101 ben   6  11  12
 102 prop tor   6  11  12  13
 103 prop tor   6  11  12  14
 104 ben   6  11  32
 105 ben   7   6  11
 106 prop tor   7   6  11  10
 107 prop tor   7   6  11  12
 108 prop tor   7   6  11  32
 109 ben   7   6  23
 110 ben   7   8   9
 111 prop tor   7   8   9  10
 112 prop tor   7   8   9  28
 113 prop tor   7   8   9  29
 114 ben   7   8  26
 115 ben   7   8  27
 116 ben   8   7  24
 117 ben   8   7  25
 118 ben   8   9  10
 119 prop tor   8   9  10  11
 120 prop tor   8   9  10  30
 121 prop tor   8   9  10  31
 122 ben   8   9  28
 123 ben   8   9  29
 124 ben   9   8  26
 125 ben   9   8  27
 126 ben   9  10  11
 127 prop tor   9  10  11   6
 128 prop tor   9  10  11  12
 129 prop tor   9  10  11  32
 130 ben   9  10  30
 131 ben   9  10  31
 132 ben  10   9  28
 133 ben  10   9  29
 134 ben  10  11  12
 135 prop tor  10  11  12  13
 136 prop tor  10  11  12  14
 137 ben  10  11  32
 138 prop tor  11   6   7   8
 139 prop tor  11   6   7  24
 140 prop tor  11   6   7  25
 141 ben  11   6  23
 142 ben  11  10  30
 143 ben  11  10  31
 144 ben  11  12  13
 145 ben  11  12  14
 146 prop tor  11  12  14   4
 147 prop tor  11  12  14  15
 148 prop tor  11  12  14  33
 149 ben  12  11  32
 150 ben  12  14  15
 151 prop tor  12  14  15   1
 152 prop tor  12  14  15  34
 153 prop tor  12  14  15  35
 154 ben  12  14  33
 155 ben  13  12  14
 156 prop tor  13  12  14   4
 157 prop tor  13  12  14  15
 158 prop tor  13  12  14  33
 159 prop tor  14   4   5   6
 160 ben  14   4  22
 161 ben  14  15  34
 162 ben  14  15  35
 163 prop tor  15   1   2   3
 164 prop tor  15   1   2  18
 165 prop tor  15   1   2  19
 166 ben  15   1  16
 167 ben  15   1  17
 168 ben  15  14  33
 169 prop tor  16   1   2   3
 170 prop tor  16   1   2  18
 171 prop tor  16   1   2  19
 172 prop tor  16   1  15  14
 173 prop tor  16   1  15  34
 174 prop tor  16   1  15  35
 175 ben  16   1  17
 176 prop tor  17   1   2   3
 177 prop tor  17   1   2  18
 178 prop tor  17   1   2  19
 179 prop tor  17   1  15  14
 180 prop tor  17   1  15  34
 181 prop tor  17   1  15  35
 182 prop tor  18   2   3   4
 183 prop tor  18   2   3  20
 184 prop tor  18   2   3  21
 185 ben  18   2  19
 186 prop tor  19   2   3   4
 187 prop tor  19   2   3  20
 188 prop tor  19   2   3  21
 189 prop tor  20   3   4   5
 190 prop tor  20   3   4  14
 191 prop tor  20   3   4  22
 192 ben  20   3  21
 193 prop tor  21   3   4   5
 194 prop tor  21   3   4  14
 195 prop tor  21   3   4  22
 196 prop tor  22   4   5   6
 197 prop tor  22   4  14  12
 198 prop tor  22   4  14  15
 199 prop tor  22   4  14  33
 200 prop tor  23   6   7   8
 201 prop tor  23   6   7  24
 202 prop tor  23   6   7  25
 203 prop tor  23   6  11  10
 204 prop tor  23   6  11  12
 205 prop tor  23   6  11  32
 206 prop tor  24   7   8   9
 207 prop tor  24   7   8  26
 208 prop tor  24   7   8  27
 209 ben  24   7  25
 210 prop tor  25   7   8   9
 211 prop tor  25   7   8  26
 212 prop tor  25   7   8  27
 213 prop tor  26   8   9  10
 214 prop tor  26   8   9  28
 215 prop tor  26   8   9  29
 216 ben  26   8  27
 217 prop tor  27   8   9  10
 218 prop tor  27   8   9  28
 219 prop tor  27   8   9  29
 220 prop tor  28   9  10  11
 221 prop tor  28   9  10  30
 222 prop tor  28   9  10  31
 223 ben  28   9  29
 224 prop tor  29   9  10  11
 225 prop tor  29   9  10  30
 226 prop tor  29   9  10  31
 227 prop tor  30  10  11   6
 228 prop tor  30  10  11  12
 229 prop tor  30  10  11  32
 230 ben  30  10  31
 231 prop tor  31  10  11   6
 232 prop tor  31  10  11  12
 233 prop tor  31  10  11  32
 234 prop tor  32  11  12  13
 235 prop tor  32  11  12  14
 236 prop tor  33  14  15   1
 237 prop tor  33  14  15  34
 238 prop tor  33  14  15  35
 239 ben  34  15  35
 nber bend=              76
 nber lin bend=           0
 nber prop tor=         126
 nber impr tor=           0
 nber tot redund int=         239
 Eigenvalues of G in red int coords
    Gval -0.00000000 -0.00000000 -0.00000000 -0.00000000 -0.00000000 -0.00000000 -0.00000000 -0.00000000
    Gval -0.00000000 -0.00000000 -0.00000000 -0.00000000 -0.00000000 -0.00000000 -0.00000000 -0.00000000
    Gval -0.00000000 -0.00000000 -0.00000000 -0.00000000 -0.00000000 -0.00000000 -0.00000000 -0.00000000
    Gval -0.00000000 -0.00000000 -0.00000000 -0.00000000 -0.00000000 -0.00000000 -0.00000000 -0.00000000
    Gval -0.00000000 -0.00000000 -0.00000000 -0.00000000 -0.00000000 -0.00000000 -0.00000000 -0.00000000
    Gval -0.00000000 -0.00000000 -0.00000000 -0.00000000 -0.00000000 -0.00000000 -0.00000000 -0.00000000
    Gval -0.00000000 -0.00000000 -0.00000000 -0.00000000 -0.00000000 -0.00000000 -0.00000000 -0.00000000
    Gval -0.00000000 -0.00000000 -0.00000000 -0.00000000 -0.00000000 -0.00000000 -0.00000000 -0.00000000
    Gval -0.00000000 -0.00000000 -0.00000000 -0.00000000 -0.00000000 -0.00000000 -0.00000000  0.00000000
    Gval  0.00000000  0.00000000  0.00000000  0.00000000  0.00000000  0.00000000  0.00000000  0.00000000
    Gval  0.00000000  0.00000000  0.00000000  0.00000000  0.00000000  0.00000000  0.00000000  0.00000000
    Gval  0.00000000  0.00000000  0.00000000  0.00000000  0.00000000  0.00000000  0.00000000  0.00000000
    Gval  0.00000000  0.00000000  0.00000000  0.00000000  0.00000000  0.00000000  0.00000000  0.00000000
    Gval  0.00000000  0.00000000  0.00000000  0.00000000  0.00000000  0.00000000  0.00000000  0.00000000
    Gval  0.00000000  0.00000000  0.00000000  0.00000000  0.00000000  0.00000000  0.00000000  0.00000000
    Gval  0.00000000  0.00000000  0.00000000  0.00000000  0.00000000  0.00000000  0.00000000  0.00000000
    Gval  0.00000000  0.00000000  0.00000000  0.00000000  0.00000000  0.00000000  0.00000000  0.00000000
    Gval  0.00000000  0.00000000  0.00000000  0.00000000  0.00000758  0.00001003  0.00002022  0.00002291
    Gval  0.00003149  0.00003269  0.00003742  0.00004273  0.00004932  0.00005832  0.00006061  0.00006524
    Gval  0.00007700  0.00008485  0.00009781  0.00010401  0.00013512  0.00016921  0.00017833  0.00018399
    Gval  0.00018985  0.00020827  0.00021333  0.00023841  0.00024810  0.00027240  0.00028674  0.00029926
    Gval  0.00031622  0.00036196  0.00038331  0.00041694  0.00041807  0.00048060  0.00051358  0.00052400
    Gval  0.00057466  0.00057495  0.00057690  0.00057694  0.00058092  0.00058138  0.00058462  0.00058505
    Gval  0.00058571  0.00058579  0.00058953  0.00059024  0.00060315  0.00061028  0.00063535  0.00064772
    Gval  0.00066421  0.00068629  0.00081268  0.00104422  0.00105037  0.00119635  0.00119825  0.00122995
    Gval  0.00123072  0.00137054  0.00143416  0.00158414  0.00161872  0.00162001  0.00176995  0.00177075
    Gval  0.00180262  0.00181088  0.00183814  0.00185587  0.00188159  0.00188429  0.00190115  0.00191365
    Gval  0.00221204  0.00224215  0.00263836  0.00264123  0.00271186  0.00301769  0.00309770  0.00310926
    Gval  0.00372322  0.00374522  0.00374849  0.00382262  0.00392936  0.00393117  0.00393758  0.00401111
    Gval  0.00401415  0.00403494  0.00404643  0.00405735  0.00407616  0.00435376  0.00435706
  7.577091254382975E-006  7.577091254382975E-006
  1.003251969930632E-005  7.577091254382975E-006
  2.021745129420544E-005  7.577091254382975E-006
  2.291274037011598E-005  7.577091254382975E-006
  3.148668262989664E-005  7.577091254382975E-006
  3.268729246238068E-005  7.577091254382975E-006
  3.741962257497192E-005  7.577091254382975E-006
  4.273038585775982E-005  7.577091254382975E-006
  4.931676666123837E-005  7.577091254382975E-006
  5.832002412427436E-005  7.577091254382975E-006
  6.061307407102156E-005  7.577091254382975E-006
  6.523926653898067E-005  7.577091254382975E-006
  7.700121107241889E-005  7.577091254382975E-006
  8.485041488487219E-005  7.577091254382975E-006
  9.781318066974287E-005  7.577091254382975E-006
  1.040145242138237E-004  7.577091254382975E-006
  1.351211269067498E-004  7.577091254382975E-006
  1.692112011722797E-004  7.577091254382975E-006
  1.783329961203942E-004  7.577091254382975E-006
  1.839851072070358E-004  7.577091254382975E-006
  1.898453162840395E-004  7.577091254382975E-006
  2.082688569342687E-004  7.577091254382975E-006
  2.133280127368734E-004  7.577091254382975E-006
  2.384053659766558E-004  7.577091254382975E-006
  2.480960062533560E-004  7.577091254382975E-006
  2.723973188325760E-004  7.577091254382975E-006
  2.867427726746343E-004  7.577091254382975E-006
  2.992625341928895E-004  7.577091254382975E-006
  3.162224388340093E-004  7.577091254382975E-006
  3.619616356323333E-004  7.577091254382975E-006
  3.833092695554984E-004  7.577091254382975E-006
  4.169360670521511E-004  7.577091254382975E-006
  4.180745759691708E-004  7.577091254382975E-006
  4.806032369050059E-004  7.577091254382975E-006
  5.135804637174563E-004  7.577091254382975E-006
  5.240002892542675E-004  7.577091254382975E-006
  5.746641179576611E-004  7.577091254382975E-006
  5.749542232610848E-004  7.577091254382975E-006
  5.768957552803431E-004  7.577091254382975E-006
  5.769385018424702E-004  7.577091254382975E-006
  5.809194752335596E-004  7.577091254382975E-006
  5.813821124716174E-004  7.577091254382975E-006
  5.846195627745714E-004  7.577091254382975E-006
  5.850506018401382E-004  7.577091254382975E-006
  5.857124851067057E-004  7.577091254382975E-006
  5.857921616717247E-004  7.577091254382975E-006
  5.895290208497414E-004  7.577091254382975E-006
  5.902401157980712E-004  7.577091254382975E-006
  6.031487881289435E-004  7.577091254382975E-006
  6.102847104818234E-004  7.577091254382975E-006
  6.353508079473256E-004  7.577091254382975E-006
  6.477220752913246E-004  7.577091254382975E-006
  6.642123243638817E-004  7.577091254382975E-006
  6.862889537514588E-004  7.577091254382975E-006
  8.126824421598410E-004  7.577091254382975E-006
  1.044217712876964E-003  7.577091254382975E-006
  1.050373749691203E-003  7.577091254382975E-006
  1.196347914425307E-003  7.577091254382975E-006
  1.198246869238369E-003  7.577091254382975E-006
  1.229952516300578E-003  7.577091254382975E-006
  1.230722906972884E-003  7.577091254382975E-006
  1.370538655000997E-003  7.577091254382975E-006
  1.434161509859764E-003  7.577091254382975E-006
  1.584135819985180E-003  7.577091254382975E-006
  1.618717057104819E-003  7.577091254382975E-006
  1.620013306348535E-003  7.577091254382975E-006
  1.769947369307381E-003  7.577091254382975E-006
  1.770745538605424E-003  7.577091254382975E-006
  1.802616463223857E-003  7.577091254382975E-006
  1.810882200684295E-003  7.577091254382975E-006
  1.838135358874624E-003  7.577091254382975E-006
  1.855867828742755E-003  7.577091254382975E-006
  1.881590005189749E-003  7.577091254382975E-006
  1.884294571624627E-003  7.577091254382975E-006
  1.901152220845412E-003  7.577091254382975E-006
  1.913645165585804E-003  7.577091254382975E-006
  2.212037144745525E-003  7.577091254382975E-006
  2.242154855271936E-003  7.577091254382975E-006
  2.638358327751443E-003  7.577091254382975E-006
  2.641234952623413E-003  7.577091254382975E-006
  2.711857300406181E-003  7.577091254382975E-006
  3.017685559352901E-003  7.577091254382975E-006
  3.097702035303383E-003  7.577091254382975E-006
  3.109264893936449E-003  7.577091254382975E-006
  3.723222187329490E-003  7.577091254382975E-006
  3.745215085084824E-003  7.577091254382975E-006
  3.748491584183267E-003  7.577091254382975E-006
  3.822618367083671E-003  7.577091254382975E-006
  3.929363490716879E-003  7.577091254382975E-006
  3.931173042818113E-003  7.577091254382975E-006
  3.937582325912056E-003  7.577091254382975E-006
  4.011105916536094E-003  7.577091254382975E-006
  4.014153085351389E-003  7.577091254382975E-006
  4.034940175457791E-003  7.577091254382975E-006
  4.046432534477029E-003  7.577091254382975E-006
  4.057350192146533E-003  7.577091254382975E-006
  4.076163473301735E-003  7.577091254382975E-006
  4.353757000991690E-003  7.577091254382975E-006
  4.357060342066117E-003  7.577091254382975E-006
 cut=1d-8, nber non-redundant internal coords=          99
 Check on Eigenvals of non-red overlap matrix:
  0.00000758  0.00001003  0.00002022  0.00002291  0.00003149  0.00003269  0.00003742  0.00004273
  0.00004932  0.00005832  0.00006061  0.00006524  0.00007700  0.00008485  0.00009781  0.00010401
  0.00013512  0.00016921  0.00017833  0.00018399  0.00018985  0.00020827  0.00021333  0.00023841
  0.00024810  0.00027240  0.00028674  0.00029926  0.00031622  0.00036196  0.00038331  0.00041694
  0.00041807  0.00048060  0.00051358  0.00052400  0.00057466  0.00057495  0.00057690  0.00057694
  0.00058092  0.00058138  0.00058462  0.00058505  0.00058571  0.00058579  0.00058953  0.00059024
  0.00060315  0.00061028  0.00063535  0.00064772  0.00066421  0.00068629  0.00081268  0.00104422
  0.00105037  0.00119635  0.00119825  0.00122995  0.00123072  0.00137054  0.00143416  0.00158414
  0.00161872  0.00162001  0.00176995  0.00177075  0.00180262  0.00181088  0.00183814  0.00185587
  0.00188159  0.00188429  0.00190115  0.00191365  0.00221204  0.00224215  0.00263836  0.00264123
  0.00271186  0.00301769  0.00309770  0.00310926  0.00372322  0.00374522  0.00374849  0.00382262
  0.00392936  0.00393117  0.00393758  0.00401111  0.00401415  0.00403494  0.00404643  0.00405735
  0.00407616  0.00435376  0.00435706
 int defn changed for coord           4
           6           5           0           0
           5           4           0           0
