 Enter ifcurve (0=recti, 1=orth curvi, 2=apprx curvi, -1 = skip
 And atom ordering flag, 0= never changes, 1= use the first order thenceforth,
  2= deduce it (does read on fail), 3= always read it
 Reading file: 
 ./Common_Moeties_17_C0S0.log                                                   
                                          
  Entering Gaussian System, Link 0=g16                                          
  
 Gaussian format, type: g94, g98, g03= F F F
  #P Geom=AllCheck Guess=TCheck SCRF=Check GenChk RB3LYP/6-311G(d,p) Fre    
 energy type= B3LYP   
 Original G94 input coords:
  6 -0.029912  0.559609  0.000000
  6 -0.369088 -0.785049  0.000000
 16  1.049074 -1.798262  0.000000
  6  2.066908 -0.376220  0.000000
  6  1.372649  0.799599  0.000000
  7 -1.690288 -1.115920  0.000000
  6 -2.399645 -0.030349  0.000000
 16 -1.499646  1.491972  0.000000
  1  3.138652 -0.506418  0.000000
  1  1.842495  1.772324  0.000000
  1 -3.481199 -0.011287  0.000000
 nber atoms=          11
 Original standard coords:
  6  0.035346  0.721911  0.000000
  6  0.000000 -0.664413  0.000000
 16 -1.638574 -1.258431  0.000000
  6 -2.235998  0.385125  0.000000
  6 -1.250824  1.330630  0.000000
  7  1.183348 -1.338753  0.000000
  6  2.158765 -0.484229  0.000000
 16  1.701823  1.224180  0.000000
  1 -3.303225  0.548261  0.000000
  1 -1.441454  2.393931  0.000000
  1  3.205521 -0.757039  0.000000
  SCF Done:  E(RB3LYP) =  -1043.55402562     A.U. after    1 cycles             
  
          23          40 "  -1043.55402562"
After scan for Atom:   Atom  AN      X      Y      Z        X      Y      Z        X      Y      Z   
After scan for Atom:   Atom  AN      X      Y      Z        X      Y      Z        X      Y      Z   
After scan for Atom:   Atom  AN      X      Y      Z        X      Y      Z        X      Y      Z   
After scan for Atom:   Atom  AN      X      Y      Z        X      Y      Z        X      Y      Z   
After scan for Atom:   Atom  AN      X      Y      Z        X      Y      Z        X      Y      Z   
After scan for Atom:   Atom  AN      X      Y      Z        X      Y      Z        X      Y      Z   
After scan for Atom:   Atom  AN      X      Y      Z        X      Y      Z        X      Y      Z   
After scan for Atom:   Atom  AN      X      Y      Z        X      Y      Z        X      Y      Z   
After scan for Atom:   Atom  AN      X      Y      Z        X      Y      Z        X      Y      Z   
 g94    frequencies=
     0.0    0.0    0.0    0.0    0.0    0.0  195.6  225.0  363.6  459.1
   464.7  540.9  555.6  622.3  650.0  709.2  746.0  778.4  792.8  859.9
   878.7  946.9 1115.9 1213.9 1239.9 1327.0 1376.5 1440.2 1481.8 1512.5
  3215.5 3218.4 3240.7
 g94    symmetries=
                                                A"     A"     A'     A'
      A"     A"     A'     A'     A"     A"     A'     A'     A"     A'
      A"     A'     A'     A'     A'     A'     A'     A'     A'     A'
      A'     A'     A'
 atomic masses:
 12.0000 12.0000 31.9721 12.0000 12.0000 14.0031 12.0000 31.9721  1.0078  1.0078
  1.0078
 looking for force constants in 
 ./Common_Moeties_17_C0S0.fchk                                                  
  
 Cartesian Force Constants                  R   N=         561                  
  
 n3=          33         561
 g94-fc frequencies=
    -0.0   -0.0    0.0    7.3    8.5    8.8  195.6  225.0  363.6  459.1
   464.7  540.9  555.6  622.4  650.0  709.2  746.0  778.4  792.8  859.9
   878.7  947.0 1115.9 1213.9 1239.9 1327.0 1376.5 1440.2 1481.8 1512.5
  3215.6 3218.5 3240.8
 at 99999: n3=          33
 symm operator            1 :  F  nop=           0
 symm operator            2 :  F  nop=           0
 symm operator            3 :  F  nop=           0
 symm operator            4 :  F  nop=           0
 symm operator            5 :  T  nop=           1
 symm operator            6 :  F  nop=           1
 symm operator            7 :  F  nop=           1
 The point group of the molecule is  CS
 enforcing symm op           5  jsymt=           1           1          -1
 cartesian coord symmetries:
 A' :   22 A" :   11
 Symmetry rotation matrix:
   1.00000   0.00000   0.00000
   0.00000   1.00000   0.00000
   0.00000   0.00000   1.00000

 Projecting out zero-frequency components
 generating redundant internal coords
         300        3600          11
 search for int coords
   1 str   2   1   1.387
   2 str   3   2   1.743
   3 str   4   3   1.749
   4 str   5   1   1.423
   5 str   5   4   1.365
   6 str   6   2   1.362
   7 str   7   6   1.297
   8 str   8   1   1.741
   9 str   8   2   2.542
  10 str   8   7   1.768
  11 str   9   4   1.080
  12 str  10   5   1.080
  13 str  11   7   1.082
 nber stretches=          13
  14 ben   1   2   3
  15 prop tor   1   2   3   4
  16 ben   1   2   6
  17 prop tor   1   2   6   7
  18 ben   1   2   8
  19 prop tor   1   2   8   7
  20 ben   1   5   4
  21 ben   1   5  10
  22 ben   1   8   2
  23 ben   1   8   7
  24 ben   2   1   5
  25 prop tor   2   1   5   4
  26 prop tor   2   1   5  10
  27 ben   2   1   8
  28 prop tor   2   1   8   7
  29 ben   2   3   4
  30 prop tor   2   3   4   5
  31 prop tor   2   3   4   9
  32 ben   2   6   7
  33 prop tor   2   6   7   8
  34 prop tor   2   6   7  11
  35 ben   2   8   7
  36 ben   3   2   6
  37 prop tor   3   2   6   7
  38 ben   3   2   8
  39 prop tor   3   2   8   1
  40 prop tor   3   2   8   7
  41 ben   3   4   5
  42 prop tor   3   4   5   1
  43 prop tor   3   4   5  10
  44 ben   3   4   9
  45 ben   4   5  10
  46 prop tor   5   1   2   3
  47 prop tor   5   1   2   6
  48 prop tor   5   1   2   8
  49 ben   5   1   8
  50 prop tor   5   1   8   2
  51 prop tor   5   1   8   7
  52 ben   5   4   9
  53 prop tor   6   2   3   4
  54 ben   6   2   8
  55 prop tor   6   2   8   1
  56 prop tor   6   2   8   7
  57 ben   6   7   8
  58 prop tor   6   7   8   1
  59 prop tor   6   7   8   2
  60 ben   6   7  11
  61 prop tor   8   1   2   3
  62 prop tor   8   1   2   6
  63 prop tor   8   1   5   4
  64 prop tor   8   1   5  10
  65 prop tor   8   2   3   4
  66 prop tor   8   2   6   7
  67 ben   8   7  11
  68 prop tor   9   4   5   1
  69 prop tor   9   4   5  10
  70 prop tor  11   7   8   1
  71 prop tor  11   7   8   2
 nber bend=              23
 nber lin bend=           0
 nber prop tor=          35
 nber impr tor=           0
 nber tot redund int=          71
 Eigenvalues of G in red int coords
    Gval -0.00000000 -0.00000000 -0.00000000 -0.00000000 -0.00000000 -0.00000000 -0.00000000 -0.00000000
    Gval -0.00000000 -0.00000000 -0.00000000 -0.00000000 -0.00000000 -0.00000000 -0.00000000 -0.00000000
    Gval -0.00000000 -0.00000000 -0.00000000 -0.00000000 -0.00000000 -0.00000000 -0.00000000  0.00000000
    Gval  0.00000000  0.00000000  0.00000000  0.00000000  0.00000000  0.00000000  0.00000000  0.00000000
    Gval  0.00000000  0.00000000  0.00000000  0.00000000  0.00000000  0.00000000  0.00000000  0.00000000
    Gval  0.00000000  0.00000000  0.00000000  0.00000000  0.00002146  0.00003186  0.00004064  0.00004982
    Gval  0.00006773  0.00009011  0.00011383  0.00013863  0.00016350  0.00017006  0.00019607  0.00030209
    Gval  0.00032767  0.00033870  0.00045764  0.00055457  0.00059661  0.00060804  0.00062368  0.00106788
    Gval  0.00108145  0.00111340  0.00118690  0.00187477  0.00231428  0.00234549  0.00404693
  2.146362322659156E-005  2.146362322659156E-005
  3.185932779399198E-005  2.146362322659156E-005
  4.064144084494515E-005  2.146362322659156E-005
  4.981998002356929E-005  2.146362322659156E-005
  6.772544287959378E-005  2.146362322659156E-005
  9.011127949257204E-005  2.146362322659156E-005
  1.138346649269980E-004  2.146362322659156E-005
  1.386299401418302E-004  2.146362322659156E-005
  1.635019160393982E-004  2.146362322659156E-005
  1.700600371913509E-004  2.146362322659156E-005
  1.960739168800897E-004  2.146362322659156E-005
  3.020944691911896E-004  2.146362322659156E-005
  3.276660994503290E-004  2.146362322659156E-005
  3.387022307184135E-004  2.146362322659156E-005
  4.576351134497516E-004  2.146362322659156E-005
  5.545696517109820E-004  2.146362322659156E-005
  5.966099880569443E-004  2.146362322659156E-005
  6.080410420803610E-004  2.146362322659156E-005
  6.236799406540950E-004  2.146362322659156E-005
  1.067882056529243E-003  2.146362322659156E-005
  1.081450632101763E-003  2.146362322659156E-005
  1.113397999507782E-003  2.146362322659156E-005
  1.186903327168307E-003  2.146362322659156E-005
  1.874769705873243E-003  2.146362322659156E-005
  2.314280941383825E-003  2.146362322659156E-005
  2.345488730794336E-003  2.146362322659156E-005
  4.046930926318187E-003  2.146362322659156E-005
 cut=1d-8, nber non-redundant internal coords=          27
 Check on Eigenvals of non-red overlap matrix:
  0.00002146  0.00003186  0.00004064  0.00004982  0.00006773  0.00009011  0.00011383  0.00013863
  0.00016350  0.00017006  0.00019607  0.00030209  0.00032767  0.00033870  0.00045764  0.00055457
  0.00059661  0.00060804  0.00062368  0.00106788  0.00108145  0.00111340  0.00118690  0.00187477
  0.00231428  0.00234549  0.00404693
 Checking for correct frequencies
 recalc frequencies=
    -0.0   -0.0    0.0    0.0    0.0    0.0  195.6  225.0  363.6  459.1
   464.7  540.9  555.6  622.4  650.0  709.2  746.0  778.4  792.8  859.9
   878.7  947.0 1115.9 1213.9 1239.9 1327.0 1376.5 1440.2 1481.8 1512.5
  3215.6 3218.5 3240.8
 recalc symmetries=
     A"     A'     A"     A"     A'     A'     A"     A"     A'     A' 
     A"     A"     A'     A'     A"     A"     A'     A'     A"     A' 
     A"     A'     A'     A'     A'     A'     A'     A'     A'     A' 
     A'     A'     A' 
 recalc freqs check OK
 Zero-point lengths:
 10.0000 10.0000 10.0000 10.0000 10.0000 10.0000 17.7238 16.5276 13.0006 11.5704
 11.5004 10.6592 10.5176  9.9374  9.7240  9.3092  9.0764  8.8858  8.8045  8.4541
  8.3630  8.0562  7.4213  7.1155  7.0405  6.8055  6.6820  6.5325  6.4403  6.3745
  4.3718  4.3699  4.3548
 highest evec of mol 1
  0.0079 -0.0043  0.0000
  0.0032 -0.0009  0.0000
  0.0005 -0.0024  0.0000
 -0.2684  0.0259  0.0000
 -0.0104  0.1345  0.0000
  0.0001  0.0003  0.0000
 -0.0010  0.0001  0.0000
 -0.0004  0.0001  0.0000
  0.8552 -0.1271  0.0000
  0.0686 -0.3960  0.0000
  0.0025 -0.0003  0.0000
 generating redundant internal coords
         300        3600          11
 Adding extra bonds for z output only
           6           6          16           6           6           7
           6          16           1           1           1
 search for int coords
   1 str   2   1   1.387
   2 str   3   2   1.743
   3 str   4   3   1.749
   4 str   5   1   1.423
   5 str   5   4   1.365
   6 str   6   2   1.362
   7 str   7   6   1.297
   8 str   8   1   1.741
   9 str   8   2   2.542
  10 str   8   7   1.768
  11 str   9   4   1.080
  12 str  10   5   1.080
  13 str  11   7   1.082
 nber stretches=          13
  14 ben   1   2   3
  15 prop tor   1   2   3   4
  16 ben   1   2   6
  17 prop tor   1   2   6   7
  18 ben   1   2   8
  19 prop tor   1   2   8   7
  20 ben   1   5   4
  21 ben   1   5  10
  22 ben   1   8   2
  23 ben   1   8   7
  24 ben   2   1   5
  25 prop tor   2   1   5   4
  26 prop tor   2   1   5  10
  27 ben   2   1   8
  28 prop tor   2   1   8   7
  29 ben   2   3   4
  30 prop tor   2   3   4   5
  31 prop tor   2   3   4   9
  32 ben   2   6   7
  33 prop tor   2   6   7   8
  34 prop tor   2   6   7  11
  35 ben   2   8   7
  36 ben   3   2   6
  37 prop tor   3   2   6   7
  38 ben   3   2   8
  39 prop tor   3   2   8   1
  40 prop tor   3   2   8   7
  41 ben   3   4   5
  42 prop tor   3   4   5   1
  43 prop tor   3   4   5  10
  44 ben   3   4   9
  45 ben   4   5  10
  46 prop tor   5   1   2   3
  47 prop tor   5   1   2   6
  48 prop tor   5   1   2   8
  49 ben   5   1   8
  50 prop tor   5   1   8   2
  51 prop tor   5   1   8   7
  52 ben   5   4   9
  53 prop tor   6   2   3   4
  54 ben   6   2   8
  55 prop tor   6   2   8   1
  56 prop tor   6   2   8   7
  57 ben   6   7   8
  58 prop tor   6   7   8   1
  59 prop tor   6   7   8   2
  60 ben   6   7  11
  61 prop tor   8   1   2   3
  62 prop tor   8   1   2   6
  63 prop tor   8   1   5   4
  64 prop tor   8   1   5  10
  65 prop tor   8   2   3   4
  66 prop tor   8   2   6   7
  67 ben   8   7  11
  68 prop tor   9   4   5   1
  69 prop tor   9   4   5  10
  70 prop tor  11   7   8   1
  71 prop tor  11   7   8   2
 nber bend=              23
 nber lin bend=           0
 nber prop tor=          35
 nber impr tor=           0
 nber tot redund int=          71
 Reading file: 
 ./Common_Moeties_17_C1S0.log                                                   
                                          
  Entering Gaussian System, Link 0=g16                                          
  
 Gaussian format, type: g94, g98, g03= F F F
  #P Geom=AllCheck Guess=TCheck SCRF=Check GenChk UB3LYP/6-311G(d,p) Fre    
 energy type= B3LYP   
 Original G94 input coords:
  6 -0.027455  0.594262  0.000000
  6 -0.368213 -0.803215  0.000000
 16  1.063531 -1.831521  0.000000
  6  2.033542 -0.409421  0.000000
  6  1.331436  0.820324  0.000000
  7 -1.647515 -1.125575  0.000000
  6 -2.368330 -0.008387  0.000000
 16 -1.508821  1.513903  0.000000
  1  3.111779 -0.511681  0.000000
  1  1.832256  1.778379  0.000000
  1 -3.452209 -0.017069  0.000000
 nber atoms=          11
 Original standard coords:
  6  0.040558  0.756969  0.000000
  6  0.000000 -0.680881  0.000000
 16 -1.652548 -1.294388  0.000000
  6 -2.212379  0.333457  0.000000
  6 -1.210325  1.334013  0.000000
  7  1.148680 -1.329774  0.000000
  6  2.139041 -0.442718  0.000000
 16  1.712255  1.252562  0.000000
  1 -3.279322  0.519697  0.000000
  1 -1.440236  2.390343  0.000000
  1  3.182115 -0.737449  0.000000
  SCF Done:  E(UB3LYP) =  -1043.24954693     A.U. after    1 cycles             
  
          23          40 "  -1043.24954693"
After scan for Atom:   Atom  AN      X      Y      Z        X      Y      Z        X      Y      Z   
After scan for Atom:   Atom  AN      X      Y      Z        X      Y      Z        X      Y      Z   
After scan for Atom:   Atom  AN      X      Y      Z        X      Y      Z        X      Y      Z   
After scan for Atom:   Atom  AN      X      Y      Z        X      Y      Z        X      Y      Z   
After scan for Atom:   Atom  AN      X      Y      Z        X      Y      Z        X      Y      Z   
After scan for Atom:   Atom  AN      X      Y      Z        X      Y      Z        X      Y      Z   
After scan for Atom:   Atom  AN      X      Y      Z        X      Y      Z        X      Y      Z   
After scan for Atom:   Atom  AN      X      Y      Z        X      Y      Z        X      Y      Z   
After scan for Atom:   Atom  AN      X      Y      Z        X      Y      Z        X      Y      Z   
 g94    frequencies=
     0.0    0.0    0.0    0.0    0.0    0.0  192.0  218.7  368.8  413.3
   422.4  462.1  525.7  639.0  672.0  707.4  741.3  777.5  832.6  847.4
   905.3  941.7 1067.5 1180.0 1250.7 1298.5 1327.1 1343.9 1444.6 1525.0
  3214.4 3216.9 3233.2
 g94    symmetries=
                                                A"     A"     A'     A"
      A'     A"     A'     A'     A"     A'     A'     A"     A"     A'
      A"     A'     A'     A'     A'     A'     A'     A'     A'     A'
      A'     A'     A'
 atomic masses:
 12.0000 12.0000 31.9721 12.0000 12.0000 14.0031 12.0000 31.9721  1.0078  1.0078
  1.0078
 looking for force constants in 
 ./Common_Moeties_17_C1S0.fchk                                                  
  
 Cartesian Force Constants                  R   N=         561                  
  
 n3=          33         561
 g94-fc frequencies=
    -3.3   -0.0   -0.0    0.0    3.6    3.9  192.0  218.7  368.8  413.3
   422.4  462.1  525.7  639.0  672.1  707.4  741.3  777.5  832.6  847.4
   905.3  941.7 1067.6 1180.0 1250.7 1298.6 1327.1 1343.9 1444.6 1525.0
  3214.5 3217.0 3233.2
 at 99999: n3=          33
 symm operator            1 :  F  nop=           0
 symm operator            2 :  F  nop=           0
 symm operator            3 :  F  nop=           0
 symm operator            4 :  F  nop=           0
 symm operator            5 :  T  nop=           1
 symm operator            6 :  F  nop=           1
 symm operator            7 :  F  nop=           1
 The point group of the molecule is  CS
 enforcing symm op           5  jsymt=           1           1          -1
 cartesian coord symmetries:
 A' :   22 A" :   11
 Symmetry rotation matrix:
   1.00000   0.00000   0.00000
   0.00000   1.00000   0.00000
   0.00000   0.00000   1.00000

 Projecting out zero-frequency components
 generating redundant internal coords
         300        3600          11
 search for int coords
   1 str   2   1   1.438
   2 str   3   2   1.763
   3 str   4   3   1.721
   4 str   5   1   1.378
   5 str   5   4   1.416
   6 str   6   2   1.319
   7 str   7   6   1.330
   8 str   8   1   1.744
   9 str   8   7   1.748
  10 str   9   4   1.083
  11 str  10   5   1.081
  12 str  11   7   1.084
 nber stretches=          12
  13 ben   1   2   3
  14 prop tor   1   2   3   4
  15 ben   1   2   6
  16 prop tor   1   2   6   7
  17 ben   1   5   4
  18 ben   1   5  10
  19 ben   1   8   7
  20 ben   2   1   5
  21 prop tor   2   1   5   4
  22 prop tor   2   1   5  10
  23 ben   2   1   8
  24 prop tor   2   1   8   7
  25 ben   2   3   4
  26 prop tor   2   3   4   5
  27 prop tor   2   3   4   9
  28 ben   2   6   7
  29 prop tor   2   6   7   8
  30 prop tor   2   6   7  11
  31 ben   3   2   6
  32 prop tor   3   2   6   7
  33 ben   3   4   5
  34 prop tor   3   4   5   1
  35 prop tor   3   4   5  10
  36 ben   3   4   9
  37 ben   4   5  10
  38 prop tor   5   1   2   3
  39 prop tor   5   1   2   6
  40 ben   5   1   8
  41 prop tor   5   1   8   7
  42 ben   5   4   9
  43 prop tor   6   2   3   4
  44 ben   6   7   8
  45 prop tor   6   7   8   1
  46 ben   6   7  11
  47 prop tor   8   1   2   3
  48 prop tor   8   1   2   6
  49 prop tor   8   1   5   4
  50 prop tor   8   1   5  10
  51 ben   8   7  11
  52 prop tor   9   4   5   1
  53 prop tor   9   4   5  10
  54 prop tor  11   7   8   1
 nber bend=              18
 nber lin bend=           0
 nber prop tor=          24
 nber impr tor=           0
 nber tot redund int=          54
 Eigenvalues of G in red int coords
    Gval -0.00000000 -0.00000000 -0.00000000 -0.00000000 -0.00000000 -0.00000000 -0.00000000 -0.00000000
    Gval -0.00000000 -0.00000000 -0.00000000 -0.00000000 -0.00000000  0.00000000  0.00000000  0.00000000
    Gval  0.00000000  0.00000000  0.00000000  0.00000000  0.00000000  0.00000000  0.00000000  0.00000000
    Gval  0.00000000  0.00000000  0.00000000  0.00001793  0.00002695  0.00003420  0.00004475  0.00005157
    Gval  0.00007930  0.00009486  0.00010772  0.00010856  0.00015515  0.00017256  0.00022298  0.00027576
    Gval  0.00030219  0.00036544  0.00038404  0.00059647  0.00060622  0.00062340  0.00063473  0.00107924
    Gval  0.00110413  0.00117545  0.00119996  0.00149286  0.00207456  0.00394347
  1.792519668581776E-005  1.792519668581776E-005
  2.694737896938261E-005  1.792519668581776E-005
  3.419795745710578E-005  1.792519668581776E-005
  4.474518429276440E-005  1.792519668581776E-005
  5.156913944840376E-005  1.792519668581776E-005
  7.930162630017084E-005  1.792519668581776E-005
  9.486396817478705E-005  1.792519668581776E-005
  1.077234113727028E-004  1.792519668581776E-005
  1.085600132844785E-004  1.792519668581776E-005
  1.551531320946222E-004  1.792519668581776E-005
  1.725555678144792E-004  1.792519668581776E-005
  2.229808649667352E-004  1.792519668581776E-005
  2.757636864725757E-004  1.792519668581776E-005
  3.021854455782714E-004  1.792519668581776E-005
  3.654420759864428E-004  1.792519668581776E-005
  3.840377627538509E-004  1.792519668581776E-005
  5.964734833828836E-004  1.792519668581776E-005
  6.062182391907585E-004  1.792519668581776E-005
  6.234002846657147E-004  1.792519668581776E-005
  6.347269616910904E-004  1.792519668581776E-005
  1.079242118926578E-003  1.792519668581776E-005
  1.104125068611427E-003  1.792519668581776E-005
  1.175450883841798E-003  1.792519668581776E-005
  1.199960049497794E-003  1.792519668581776E-005
  1.492859292343037E-003  1.792519668581776E-005
  2.074556224003647E-003  1.792519668581776E-005
  3.943465891243702E-003  1.792519668581776E-005
 cut=1d-8, nber non-redundant internal coords=          27
 Check on Eigenvals of non-red overlap matrix:
  0.00001793  0.00002695  0.00003420  0.00004475  0.00005157  0.00007930  0.00009486  0.00010772
  0.00010856  0.00015515  0.00017256  0.00022298  0.00027576  0.00030219  0.00036544  0.00038404
  0.00059647  0.00060622  0.00062340  0.00063473  0.00107924  0.00110413  0.00117545  0.00119996
  0.00149286  0.00207456  0.00394347
 Checking for correct frequencies
 recalc frequencies=
    -0.0   -0.0    0.0    0.0    0.0    0.0  192.0  218.7  368.8  413.3
   422.4  462.1  525.7  639.0  672.1  707.4  741.3  777.5  832.6  847.4
   905.3  941.7 1067.6 1180.0 1250.7 1298.6 1327.1 1343.9 1444.6 1525.0
  3214.5 3217.0 3233.2
 recalc symmetries=
     A'     A"     A"     A'     A"     A'     A"     A"     A'     A" 
     A'     A"     A'     A'     A"     A'     A'     A"     A"     A' 
     A"     A'     A'     A'     A'     A'     A'     A'     A'     A' 
     A'     A'     A' 
 recalc freqs check OK
 Zero-point lengths:
 10.0000 10.0000 10.0000 10.0000 10.0000 10.0000 17.8917 16.7638 12.9100 12.1947
 12.0619 11.5329 10.8126  9.8070  9.5630  9.3212  9.1055  8.8909  8.5918  8.5162
  8.2395  8.0788  7.5875  7.2170  7.0100  6.8796  6.8052  6.7625  6.5226  6.3483
  4.3726  4.3709  4.3599
 highest evec of mol 2
  0.0148 -0.0081  0.0000
  0.0019 -0.0022  0.0000
  0.0005 -0.0026  0.0000
 -0.1110  0.0090  0.0000
 -0.0593  0.2726  0.0000
  0.0001  0.0002  0.0000
 -0.0029  0.0008  0.0000
 -0.0002  0.0002  0.0000
  0.3418 -0.0565  0.0000
  0.1887 -0.8682  0.0000
  0.0079 -0.0019  0.0000
 Enter nber and list of atoms to keep of mol #2
 keep list:          11           1           2           3           4
           5           6           7           8           9          10
          11
 reordering atoms
           1  0.268711136710644     
           2 -0.228188329174157     
           3  -1.99009860302793     
           4  -2.00167106602448     
           5 -0.732891845620742     
           6  0.653637068065321     
           7   1.87514413427175     
           8   2.01117406105521     
           9  -2.95354258872792     
          10 -0.613991935314581     
          11   2.76980014586672     
           1           1
           2           2
           3           3
           4           4
           5           5
           6           6
           7           7
           8           8
           9           9
          10          10
          11          11
 initial cartes coords mol 1
   6   0.00000   0.71986   0.22341
   6   0.00000  -0.60118  -0.19851
  16   0.00000  -0.71288  -1.93785
   6   0.00000   1.03219  -2.05143
   6   0.00000   1.66420  -0.84101
   7   0.00000  -1.57975   0.74883
   6   0.00000  -1.03235   1.92442
  16   0.00000   0.73567   1.96386
   1   0.00000   1.48749  -3.03035
   1   0.00000   2.73836  -0.72645
   1   0.00000  -1.58721   2.85300
 initial cartes coords mol 2
   6   0.00000   0.74151   0.26871
   6   0.00000  -0.60836  -0.22819
  16   0.00000  -0.66293  -1.99010
   6   0.00000   1.05846  -2.00167
   6   0.00000   1.68728  -0.73289
   7   0.00000  -1.58964   0.65364
   6   0.00000  -1.06466   1.87514
  16   0.00000   0.67822   2.01117
   1   0.00000   1.57517  -2.95354
   1   0.00000   2.76179  -0.61399
   1   0.00000  -1.67659   2.76980
 loop 1 0
 mod cartes coords mol 2
   6   0.00000   0.74151   0.26871
   6   0.00000  -0.60836  -0.22819
  16   0.00000  -0.66293  -1.99010
   6   0.00000   1.05846  -2.00167
   6   0.00000   1.68728  -0.73289
   7   0.00000  -1.58964   0.65364
   6   0.00000  -1.06466   1.87514
  16   0.00000   0.67822   2.01117
   1   0.00000   1.57517  -2.95354
   1   0.00000   2.76179  -0.61399
   1   0.00000  -1.67659   2.76980
 read in order, maxerr=  0.12 for atom  11
 final axis swaps:           1           1           1
 final xyz swap pattern=           1
 reorder list:
   1   2   3   4   5   6   7   8   9  10  11
 axis signs=           1           1           1
  6     0.000000  0.741514  0.268711     0.000000  0.719857  0.223406
  6     0.000000 -0.608356 -0.228188     0.000000 -0.601177 -0.198508
 16     0.000000 -0.662926 -1.990099     0.000000 -0.712883 -1.937848
  6     0.000000  1.058456 -2.001671     0.000000  1.032193 -2.051429
  6     0.000000  1.687283 -0.732892     0.000000  1.664203 -0.841012
  7     0.000000 -1.589637  0.653637     0.000000 -1.579745  0.748831
  6     0.000000 -1.064657  1.875144     0.000000 -1.032351  1.924420
 16     0.000000  0.678219  2.011174     0.000000  0.735671  1.963857
  1     0.000000  1.575170 -2.953543     0.000000  1.487487 -3.030355
  1     0.000000  2.761785 -0.613992     0.000000  2.738364 -0.726446
  1     0.000000 -1.676589  2.769800     0.000000 -1.587207  2.852998
 generating redundant internal coords
         300        3600          11
 Adding extra bonds for z output only
           6           6          16           6           6           7
           6          16           1           1           1
 search for int coords
   1 str   2   1   1.438
   2 str   3   2   1.763
   3 str   4   3   1.721
   4 str   5   1   1.378
   5 str   5   4   1.416
   6 str   6   2   1.319
   7 str   7   6   1.330
   8 str   8   1   1.744
   9 str   8   7   1.748
  10 str   9   4   1.083
  11 str  10   5   1.081
  12 str  11   7   1.084
 nber stretches=          12
  13 ben   1   2   3
  14 prop tor   1   2   3   4
  15 ben   1   2   6
  16 prop tor   1   2   6   7
  17 ben   1   5   4
  18 ben   1   5  10
  19 ben   1   8   7
  20 ben   2   1   5
  21 prop tor   2   1   5   4
  22 prop tor   2   1   5  10
  23 ben   2   1   8
  24 prop tor   2   1   8   7
  25 ben   2   3   4
  26 prop tor   2   3   4   5
  27 prop tor   2   3   4   9
  28 ben   2   6   7
  29 prop tor   2   6   7   8
  30 prop tor   2   6   7  11
  31 ben   3   2   6
  32 prop tor   3   2   6   7
  33 ben   3   4   5
  34 prop tor   3   4   5   1
  35 prop tor   3   4   5  10
  36 ben   3   4   9
  37 ben   4   5  10
  38 prop tor   5   1   2   3
  39 prop tor   5   1   2   6
  40 ben   5   1   8
  41 prop tor   5   1   8   7
  42 ben   5   4   9
  43 prop tor   6   2   3   4
  44 ben   6   7   8
  45 prop tor   6   7   8   1
  46 ben   6   7  11
  47 prop tor   8   1   2   3
  48 prop tor   8   1   2   6
  49 prop tor   8   1   5   4
  50 prop tor   8   1   5  10
  51 ben   8   7  11
  52 prop tor   9   4   5   1
  53 prop tor   9   4   5  10
  54 prop tor  11   7   8   1
 nber bend=              18
 nber lin bend=           0
 nber prop tor=          24
 nber impr tor=           0
 nber tot redund int=          54
 generating redundant internal coords
         300        3600          11
 search for int coords
   1 str   2   1   1.387
   2 str   3   2   1.743
   3 str   4   3   1.749
   4 str   5   1   1.423
   5 str   5   4   1.365
   6 str   6   2   1.362
   7 str   7   6   1.297
   8 str   8   1   1.741
   9 str   8   2   2.542
  10 str   8   7   1.768
  11 str   9   4   1.080
  12 str  10   5   1.080
  13 str  11   7   1.082
 nber stretches=          13
  14 ben   1   2   3
  15 prop tor   1   2   3   4
  16 ben   1   2   6
  17 prop tor   1   2   6   7
  18 ben   1   2   8
  19 prop tor   1   2   8   7
  20 ben   1   5   4
  21 ben   1   5  10
  22 ben   1   8   2
  23 ben   1   8   7
  24 ben   2   1   5
  25 prop tor   2   1   5   4
  26 prop tor   2   1   5  10
  27 ben   2   1   8
  28 prop tor   2   1   8   7
  29 ben   2   3   4
  30 prop tor   2   3   4   5
  31 prop tor   2   3   4   9
  32 ben   2   6   7
  33 prop tor   2   6   7   8
  34 prop tor   2   6   7  11
  35 ben   2   8   7
  36 ben   3   2   6
  37 prop tor   3   2   6   7
  38 ben   3   2   8
  39 prop tor   3   2   8   1
  40 prop tor   3   2   8   7
  41 ben   3   4   5
  42 prop tor   3   4   5   1
  43 prop tor   3   4   5  10
  44 ben   3   4   9
  45 ben   4   5  10
  46 prop tor   5   1   2   3
  47 prop tor   5   1   2   6
  48 prop tor   5   1   2   8
  49 ben   5   1   8
  50 prop tor   5   1   8   2
  51 prop tor   5   1   8   7
  52 ben   5   4   9
  53 prop tor   6   2   3   4
  54 ben   6   2   8
  55 prop tor   6   2   8   1
  56 prop tor   6   2   8   7
  57 ben   6   7   8
  58 prop tor   6   7   8   1
  59 prop tor   6   7   8   2
  60 ben   6   7  11
  61 prop tor   8   1   2   3
  62 prop tor   8   1   2   6
  63 prop tor   8   1   5   4
  64 prop tor   8   1   5  10
  65 prop tor   8   2   3   4
  66 prop tor   8   2   6   7
  67 ben   8   7  11
  68 prop tor   9   4   5   1
  69 prop tor   9   4   5  10
  70 prop tor  11   7   8   1
  71 prop tor  11   7   8   2
 nber bend=              23
 nber lin bend=           0
 nber prop tor=          35
 nber impr tor=           0
 nber tot redund int=          71
 Eigenvalues of G in red int coords
    Gval -0.00000000 -0.00000000 -0.00000000 -0.00000000 -0.00000000 -0.00000000 -0.00000000 -0.00000000
    Gval -0.00000000 -0.00000000 -0.00000000 -0.00000000 -0.00000000 -0.00000000 -0.00000000 -0.00000000
    Gval -0.00000000 -0.00000000 -0.00000000 -0.00000000 -0.00000000 -0.00000000 -0.00000000  0.00000000
    Gval  0.00000000  0.00000000  0.00000000  0.00000000  0.00000000  0.00000000  0.00000000  0.00000000
    Gval  0.00000000  0.00000000  0.00000000  0.00000000  0.00000000  0.00000000  0.00000000  0.00000000
    Gval  0.00000000  0.00000000  0.00000000  0.00000000  0.00002146  0.00003186  0.00004064  0.00004982
    Gval  0.00006773  0.00009011  0.00011383  0.00013863  0.00016350  0.00017006  0.00019607  0.00030209
    Gval  0.00032767  0.00033870  0.00045764  0.00055457  0.00059661  0.00060804  0.00062368  0.00106788
    Gval  0.00108145  0.00111340  0.00118690  0.00187477  0.00231428  0.00234549  0.00404693
  2.146362322659155E-005  2.146362322659155E-005
  3.185932779399199E-005  2.146362322659155E-005
  4.064144084494512E-005  2.146362322659155E-005
  4.981998002356927E-005  2.146362322659155E-005
  6.772544287959378E-005  2.146362322659155E-005
  9.011127949257213E-005  2.146362322659155E-005
  1.138346649269980E-004  2.146362322659155E-005
  1.386299401418302E-004  2.146362322659155E-005
  1.635019160393981E-004  2.146362322659155E-005
  1.700600371913505E-004  2.146362322659155E-005
  1.960739168800898E-004  2.146362322659155E-005
  3.020944691911897E-004  2.146362322659155E-005
  3.276660994503288E-004  2.146362322659155E-005
  3.387022307184137E-004  2.146362322659155E-005
  4.576351134497513E-004  2.146362322659155E-005
  5.545696517109821E-004  2.146362322659155E-005
  5.966099880569448E-004  2.146362322659155E-005
  6.080410420803615E-004  2.146362322659155E-005
  6.236799406540948E-004  2.146362322659155E-005
  1.067882056529242E-003  2.146362322659155E-005
  1.081450632101766E-003  2.146362322659155E-005
  1.113397999507786E-003  2.146362322659155E-005
  1.186903327168308E-003  2.146362322659155E-005
  1.874769705873246E-003  2.146362322659155E-005
  2.314280941383824E-003  2.146362322659155E-005
  2.345488730794340E-003  2.146362322659155E-005
  4.046930926318189E-003  2.146362322659155E-005
 cut=1d-8, nber non-redundant internal coords=          27
 Check on Eigenvals of non-red overlap matrix:
  0.00002146  0.00003186  0.00004064  0.00004982  0.00006773  0.00009011  0.00011383  0.00013863
  0.00016350  0.00017006  0.00019607  0.00030209  0.00032767  0.00033870  0.00045764  0.00055457
  0.00059661  0.00060804  0.00062368  0.00106788  0.00108145  0.00111340  0.00118690  0.00187477
  0.00231428  0.00234549  0.00404693
 generating redundant internal coords
         300        3600          11
 search for int coords
   1 str   2   1   1.438
   2 str   3   2   1.763
   3 str   4   3   1.721
   4 str   5   1   1.378
   5 str   5   4   1.416
   6 str   6   2   1.319
   7 str   7   6   1.330
   8 str   8   1   1.744
   9 str   8   7   1.748
  10 str   9   4   1.083
  11 str  10   5   1.081
  12 str  11   7   1.084
 nber stretches=          12
  13 ben   1   2   3
  14 prop tor   1   2   3   4
  15 ben   1   2   6
  16 prop tor   1   2   6   7
  17 ben   1   5   4
  18 ben   1   5  10
  19 ben   1   8   7
  20 ben   2   1   5
  21 prop tor   2   1   5   4
  22 prop tor   2   1   5  10
  23 ben   2   1   8
  24 prop tor   2   1   8   7
  25 ben   2   3   4
  26 prop tor   2   3   4   5
  27 prop tor   2   3   4   9
  28 ben   2   6   7
  29 prop tor   2   6   7   8
  30 prop tor   2   6   7  11
  31 ben   3   2   6
  32 prop tor   3   2   6   7
  33 ben   3   4   5
  34 prop tor   3   4   5   1
  35 prop tor   3   4   5  10
  36 ben   3   4   9
  37 ben   4   5  10
  38 prop tor   5   1   2   3
  39 prop tor   5   1   2   6
  40 ben   5   1   8
  41 prop tor   5   1   8   7
  42 ben   5   4   9
  43 prop tor   6   2   3   4
  44 ben   6   7   8
  45 prop tor   6   7   8   1
  46 ben   6   7  11
  47 prop tor   8   1   2   3
  48 prop tor   8   1   2   6
  49 prop tor   8   1   5   4
  50 prop tor   8   1   5  10
  51 ben   8   7  11
  52 prop tor   9   4   5   1
  53 prop tor   9   4   5  10
  54 prop tor  11   7   8   1
 nber bend=              18
 nber lin bend=           0
 nber prop tor=          24
 nber impr tor=           0
 nber tot redund int=          54
 Eigenvalues of G in red int coords
    Gval -0.00000000 -0.00000000 -0.00000000 -0.00000000 -0.00000000 -0.00000000 -0.00000000 -0.00000000
    Gval -0.00000000 -0.00000000 -0.00000000 -0.00000000  0.00000000  0.00000000  0.00000000  0.00000000
    Gval  0.00000000  0.00000000  0.00000000  0.00000000  0.00000000  0.00000000  0.00000000  0.00000000
    Gval  0.00000000  0.00000000  0.00000000  0.00001793  0.00002695  0.00003420  0.00004475  0.00005157
    Gval  0.00007930  0.00009486  0.00010772  0.00010856  0.00015515  0.00017256  0.00022298  0.00027576
    Gval  0.00030219  0.00036544  0.00038404  0.00059647  0.00060622  0.00062340  0.00063473  0.00107924
    Gval  0.00110413  0.00117545  0.00119996  0.00149286  0.00207456  0.00394347
  1.792519668581777E-005  1.792519668581777E-005
  2.694737896938258E-005  1.792519668581777E-005
  3.419795745710591E-005  1.792519668581777E-005
  4.474518429276436E-005  1.792519668581777E-005
  5.156913944840376E-005  1.792519668581777E-005
  7.930162630017094E-005  1.792519668581777E-005
  9.486396817478699E-005  1.792519668581777E-005
  1.077234113727029E-004  1.792519668581777E-005
  1.085600132844786E-004  1.792519668581777E-005
  1.551531320946222E-004  1.792519668581777E-005
  1.725555678144792E-004  1.792519668581777E-005
  2.229808649667349E-004  1.792519668581777E-005
  2.757636864725757E-004  1.792519668581777E-005
  3.021854455782715E-004  1.792519668581777E-005
  3.654420759864423E-004  1.792519668581777E-005
  3.840377627538512E-004  1.792519668581777E-005
  5.964734833828831E-004  1.792519668581777E-005
  6.062182391907575E-004  1.792519668581777E-005
  6.234002846657155E-004  1.792519668581777E-005
  6.347269616910916E-004  1.792519668581777E-005
  1.079242118926578E-003  1.792519668581777E-005
  1.104125068611425E-003  1.792519668581777E-005
  1.175450883841797E-003  1.792519668581777E-005
  1.199960049497798E-003  1.792519668581777E-005
  1.492859292343038E-003  1.792519668581777E-005
  2.074556224003648E-003  1.792519668581777E-005
  3.943465891243699E-003  1.792519668581777E-005
 cut=1d-8, nber non-redundant internal coords=          27
 Check on Eigenvals of non-red overlap matrix:
  0.00001793  0.00002695  0.00003420  0.00004475  0.00005157  0.00007930  0.00009486  0.00010772
  0.00010856  0.00015515  0.00017256  0.00022298  0.00027576  0.00030219  0.00036544  0.00038404
  0.00059647  0.00060622  0.00062340  0.00063473  0.00107924  0.00110413  0.00117545  0.00119996
  0.00149286  0.00207456  0.00394347
 int defn changed for coord           9
           8           2           0           0
           8           7           0           0
