 Enter ifcurve (0=recti, 1=orth curvi, 2=apprx curvi, -1 = skip
 And atom ordering flag, 0= never changes, 1= use the first order thenceforth,
  2= deduce it (does read on fail), 3= always read it
 Reading file: 
 ./conjugated_carbonyls_1_C0S0.log                                              
                                          
  Entering Gaussian System, Link 0=g16                                          
  
 Gaussian format, type: g94, g98, g03= F F F
  #P Geom=AllCheck Guess=TCheck SCRF=Check Test GenChk RB3LYP/6-311G(d,p    
 energy type= B3LYP   
 Original G94 input coords:
  8 -1.372009 -3.053616  0.000000
  6 -0.775375 -2.001508  0.000000
  6  0.775375 -2.001508  0.000000
  8  1.372009 -3.053616  0.000000
  6  1.459043 -0.684040  0.000000
  6  2.856417 -0.642590  0.000000
  6  3.491527  0.587177  0.000000
  6  2.694120  1.734964 -0.000001
  7  1.363257  1.717959  0.000000
  6  0.745661  0.531414  0.000000
  6 -0.745661  0.531414  0.000000
  7 -1.363257  1.717959  0.000000
  6 -2.694120  1.734964  0.000000
  6 -3.491527  0.587177  0.000000
  6 -2.856417 -0.642590  0.000000
  6 -1.459043 -0.684040  0.000000
  1  3.403726 -1.577621  0.000000
  1  4.571677  0.667686  0.000000
  1  3.152801  2.720174  0.000000
  1 -3.152801  2.720174  0.000000
  1 -4.571677  0.667686  0.000000
  1 -3.403726 -1.577621  0.000000
 nber atoms=          22
  SCF Done:  E(RB3LYP) =  -721.000661508     A.U. after    1 cycles             
  
          23          40 "  -721.000661508"
After scan for Atom:   Atom  AN      X      Y      Z        X      Y      Z        X      Y      Z   
After scan for Atom:   Atom  AN      X      Y      Z        X      Y      Z        X      Y      Z   
After scan for Atom:   Atom  AN      X      Y      Z        X      Y      Z        X      Y      Z   
After scan for Atom:   Atom  AN      X      Y      Z        X      Y      Z        X      Y      Z   
After scan for Atom:   Atom  AN      X      Y      Z        X      Y      Z        X      Y      Z   
After scan for Atom:   Atom  AN      X      Y      Z        X      Y      Z        X      Y      Z   
After scan for Atom:   Atom  AN      X      Y      Z        X      Y      Z        X      Y      Z   
After scan for Atom:   Atom  AN      X      Y      Z        X      Y      Z        X      Y      Z   
After scan for Atom:   Atom  AN      X      Y      Z        X      Y      Z        X      Y      Z   
After scan for Atom:   Atom  AN      X      Y      Z        X      Y      Z        X      Y      Z   
After scan for Atom:   Atom  AN      X      Y      Z        X      Y      Z        X      Y      Z   
After scan for Atom:   Atom  AN      X      Y      Z        X      Y      Z        X      Y      Z   
After scan for Atom:   Atom  AN      X      Y      Z        X      Y      Z        X      Y      Z   
After scan for Atom:   Atom  AN      X      Y      Z        X      Y      Z        X      Y      Z   
After scan for Atom:   Atom  AN      X      Y      Z        X      Y      Z        X      Y      Z   
After scan for Atom:   Atom  AN      X      Y      Z        X      Y      Z        X      Y      Z   
After scan for Atom:   Atom  AN      X      Y      Z        X      Y      Z        X      Y      Z   
After scan for Atom:   Atom  AN      X      Y      Z        X      Y      Z        X      Y      Z   
After scan for Atom:   Atom  AN      X      Y      Z        X      Y      Z        X      Y      Z   
After scan for Atom:   Atom  AN      X      Y      Z        X      Y      Z        X      Y      Z   
 g94    frequencies=
     0.0    0.0    0.0    0.0    0.0    0.0   36.9   84.2  110.1  154.3
   231.0  258.4  318.7  359.9  381.2  395.0  401.3  436.2  440.9  458.4
   564.0  572.3  623.4  632.1  680.1  713.3  766.0  778.8  831.2  833.1
   833.5  878.5  937.7  991.9  994.2 1019.8 1020.1 1021.7 1056.0 1079.9
  1105.4 1110.2 1133.9 1206.6 1230.3 1283.2 1295.7 1304.7 1312.7 1343.8
  1449.4 1453.7 1485.2 1490.8 1592.1 1606.3 1616.3 1628.0 1756.1 1781.3
  3148.5 3149.0 3187.7 3187.8 3201.5 3201.6
 g94    symmetries=
                                                 A      A      A      A
       A      A      A      A      A      A      A      A      A      A
       A      A      A      A      A      A      A      A      A      A
       A      A      A      A      A      A      A      A      A      A
       A      A      A      A      A      A      A      A      A      A
       A      A      A      A      A      A      A      A      A      A
       A      A      A      A      A      A
 atomic masses:
 15.9949 12.0000 12.0000 15.9949 12.0000 12.0000 12.0000 12.0000 14.0031 12.0000
 12.0000 14.0031 12.0000 12.0000 12.0000 12.0000  1.0078  1.0078  1.0078  1.0078
  1.0078  1.0078
 looking for force constants in 
 ./conjugated_carbonyls_1_C0S0.fchk                                             
  
 Cartesian Force Constants                  R   N=        2211                  
  
 n3=          66        2211
 g94-fc frequencies=
    -3.2   -3.1   -2.7   -0.0   -0.0    0.0   36.9   84.2  110.1  154.3
   231.0  258.4  318.7  359.9  381.2  395.1  401.3  436.2  440.9  458.4
   564.0  572.3  623.4  632.1  680.1  713.3  766.0  778.8  831.3  833.1
   833.5  878.6  937.7  991.9  994.2 1019.8 1020.2 1021.7 1056.0 1079.9
  1105.4 1110.2 1133.9 1206.6 1230.3 1283.3 1295.8 1304.7 1312.8 1343.9
  1449.4 1453.7 1485.2 1490.8 1592.2 1606.3 1616.3 1628.0 1756.1 1781.4
  3148.6 3149.0 3187.8 3187.9 3201.5 3201.7
 at 99999: n3=          66
 symm operator            1 :  F  nop=           0
 symm operator            2 :  T  nop=           1
 symm operator            3 :  F  nop=           1
 symm operator            4 :  F  nop=           1
 symm operator            5 :  T  nop=           2
 symm operator            6 :  F  nop=           2
 symm operator            7 :  T  nop=           3
 swap           2           3
   1  -1.37201   0.00000  -3.05362
   2  -0.77538   0.00000  -2.00151
   3   0.77538   0.00000  -2.00151
   4   1.37201   0.00000  -3.05362
   5   1.45904   0.00000  -0.68404
   6   2.85642   0.00000  -0.64259
   7   3.49153   0.00000   0.58718
   8   2.69412  -0.00000   1.73496
   9   1.36326   0.00000   1.71796
  10   0.74566   0.00000   0.53141
  11  -0.74566   0.00000   0.53141
  12  -1.36326   0.00000   1.71796
  13  -2.69412   0.00000   1.73496
  14  -3.49153   0.00000   0.58718
  15  -2.85642   0.00000  -0.64259
  16  -1.45904   0.00000  -0.68404
  17   3.40373   0.00000  -1.57762
  18   4.57168   0.00000   0.66769
  19   3.15280   0.00000   2.72017
  20  -3.15280   0.00000   2.72017
  21  -4.57168   0.00000   0.66769
  22  -3.40373   0.00000  -1.57762
 swap           1           2
   1   0.00000  -1.37201  -3.05362
   2   0.00000  -0.77538  -2.00151
   3   0.00000   0.77538  -2.00151
   4   0.00000   1.37201  -3.05362
   5   0.00000   1.45904  -0.68404
   6   0.00000   2.85642  -0.64259
   7   0.00000   3.49153   0.58718
   8  -0.00000   2.69412   1.73496
   9   0.00000   1.36326   1.71796
  10   0.00000   0.74566   0.53141
  11   0.00000  -0.74566   0.53141
  12   0.00000  -1.36326   1.71796
  13   0.00000  -2.69412   1.73496
  14   0.00000  -3.49153   0.58718
  15   0.00000  -2.85642  -0.64259
  16   0.00000  -1.45904  -0.68404
  17   0.00000   3.40373  -1.57762
  18   0.00000   4.57168   0.66769
  19   0.00000   3.15280   2.72017
  20   0.00000  -3.15280   2.72017
  21   0.00000  -4.57168   0.66769
  22   0.00000  -3.40373  -1.57762
 The point group of the molecule is C2V
 enforcing symm op           1  jsymt=          -1          -1           1
 enforcing symm op           6  jsymt=           1          -1           1
 enforcing symm op           7  jsymt=          -1           1           1
 cartesian coord symmetries:
 A1 :   22 A2 :   11 B1 :   11 B2 :   22
 Symmetry rotation matrix:
   0.00000   0.00000   1.00000
  -1.00000   0.00000   0.00000
   0.00000  -1.00000   0.00000

 Projecting out zero-frequency components
 generating redundant internal coords
         300        3600          22
 search for int coords
   1 str   2   1   1.210
   2 str   3   2   1.551
   3 str   4   3   1.210
   4 str   5   3   1.484
   5 str   6   5   1.398
   6 str   7   6   1.384
   7 str   8   7   1.398
   8 str   9   8   1.331
   9 str  10   5   1.409
  10 str  10   9   1.338
  11 str  11  10   1.491
  12 str  12  11   1.338
  13 str  13  12   1.331
  14 str  14  13   1.398
  15 str  15  14   1.384
  16 str  16   2   1.484
  17 str  16  11   1.409
  18 str  16  15   1.398
  19 str  17   6   1.083
  20 str  18   7   1.083
  21 str  19   8   1.087
  22 str  20  13   1.087
  23 str  21  14   1.083
  24 str  22  15   1.083
 nber stretches=          24
  25 ben   1   2   3
  26 prop tor   1   2   3   4
  27 prop tor   1   2   3   5
  28 ben   1   2  16
  29 prop tor   1   2  16  11
  30 prop tor   1   2  16  15
  31 ben   2   3   4
  32 ben   2   3   5
  33 prop tor   2   3   5   6
  34 prop tor   2   3   5  10
  35 ben   2  16  11
  36 ben   2  16  15
  37 ben   3   2  16
  38 prop tor   3   2  16  11
  39 prop tor   3   2  16  15
  40 ben   3   5   6
  41 prop tor   3   5   6   7
  42 prop tor   3   5   6  17
  43 ben   3   5  10
  44 prop tor   3   5  10   9
  45 prop tor   3   5  10  11
  46 ben   4   3   5
  47 prop tor   4   3   5   6
  48 prop tor   4   3   5  10
  49 ben   5   6   7
  50 prop tor   5   6   7   8
  51 prop tor   5   6   7  18
  52 ben   5   6  17
  53 ben   5  10   9
  54 ben   5  10  11
  55 prop tor   5  10  11  12
  56 prop tor   5  10  11  16
  57 ben   6   5  10
  58 prop tor   6   5  10   9
  59 prop tor   6   5  10  11
  60 ben   6   7   8
  61 prop tor   6   7   8   9
  62 prop tor   6   7   8  19
  63 ben   6   7  18
  64 ben   7   6  17
  65 ben   7   8   9
  66 prop tor   7   8   9  10
  67 ben   7   8  19
  68 ben   8   7  18
  69 ben   8   9  10
  70 prop tor   8   9  10   5
  71 prop tor   8   9  10  11
  72 ben   9   8  19
  73 ben   9  10  11
  74 prop tor   9  10  11  12
  75 prop tor   9  10  11  16
  76 prop tor  10   5   6   7
  77 prop tor  10   5   6  17
  78 ben  10  11  12
  79 prop tor  10  11  12  13
  80 ben  10  11  16
  81 prop tor  10  11  16   2
  82 prop tor  10  11  16  15
  83 ben  11  12  13
  84 prop tor  11  12  13  14
  85 prop tor  11  12  13  20
  86 ben  11  16  15
  87 ben  12  11  16
  88 prop tor  12  11  16   2
  89 prop tor  12  11  16  15
  90 ben  12  13  14
  91 prop tor  12  13  14  15
  92 prop tor  12  13  14  21
  93 ben  12  13  20
  94 ben  13  14  15
  95 prop tor  13  14  15  16
  96 prop tor  13  14  15  22
  97 ben  13  14  21
  98 ben  14  13  20
  99 ben  14  15  16
 100 prop tor  14  15  16   2
 101 prop tor  14  15  16  11
 102 ben  14  15  22
 103 ben  15  14  21
 104 prop tor  16   2   3   4
 105 prop tor  16   2   3   5
 106 prop tor  16  11  12  13
 107 ben  16  15  22
 108 prop tor  17   6   7   8
 109 prop tor  17   6   7  18
 110 prop tor  18   7   8   9
 111 prop tor  18   7   8  19
 112 prop tor  19   8   9  10
 113 prop tor  20  13  14  15
 114 prop tor  20  13  14  21
 115 prop tor  21  14  15  16
 116 prop tor  21  14  15  22
 117 prop tor  22  15  16   2
 118 prop tor  22  15  16  11
 nber bend=              38
 nber lin bend=           0
 nber prop tor=          56
 nber impr tor=           0
 nber tot redund int=         118
 Eigenvalues of G in red int coords
    Gval -0.00000000 -0.00000000 -0.00000000 -0.00000000 -0.00000000 -0.00000000 -0.00000000 -0.00000000
    Gval -0.00000000 -0.00000000 -0.00000000 -0.00000000 -0.00000000 -0.00000000 -0.00000000 -0.00000000
    Gval -0.00000000 -0.00000000 -0.00000000 -0.00000000 -0.00000000 -0.00000000 -0.00000000 -0.00000000
    Gval -0.00000000 -0.00000000 -0.00000000 -0.00000000 -0.00000000 -0.00000000  0.00000000  0.00000000
    Gval  0.00000000  0.00000000  0.00000000  0.00000000  0.00000000  0.00000000  0.00000000  0.00000000
    Gval  0.00000000  0.00000000  0.00000000  0.00000000  0.00000000  0.00000000  0.00000000  0.00000000
    Gval  0.00000000  0.00000000  0.00000000  0.00000000  0.00000000  0.00000000  0.00000000  0.00000000
    Gval  0.00000000  0.00000000  0.00000701  0.00001113  0.00001201  0.00002002  0.00002155  0.00002609
    Gval  0.00003416  0.00004315  0.00004660  0.00005006  0.00005418  0.00005862  0.00006036  0.00007438
    Gval  0.00007778  0.00010079  0.00010129  0.00011065  0.00011534  0.00012558  0.00013379  0.00013440
    Gval  0.00015174  0.00019713  0.00024237  0.00024323  0.00027152  0.00028590  0.00031893  0.00036678
    Gval  0.00038046  0.00041068  0.00041987  0.00044306  0.00044882  0.00059389  0.00059390  0.00060642
    Gval  0.00060706  0.00061304  0.00064620  0.00064629  0.00068927  0.00089346  0.00091201  0.00106413
    Gval  0.00106446  0.00113490  0.00113491  0.00117435  0.00117440  0.00120594  0.00155935  0.00163063
    Gval  0.00175450  0.00214430  0.00274943  0.00276863  0.00390519  0.00390603
  7.008948385492438E-006  7.008948385492438E-006
  1.113371242894875E-005  7.008948385492438E-006
  1.200715153585262E-005  7.008948385492438E-006
  2.002459125187262E-005  7.008948385492438E-006
  2.154756938723518E-005  7.008948385492438E-006
  2.609081450954954E-005  7.008948385492438E-006
  3.416118081381999E-005  7.008948385492438E-006
  4.315344805504411E-005  7.008948385492438E-006
  4.660483535268887E-005  7.008948385492438E-006
  5.005542711306649E-005  7.008948385492438E-006
  5.417547686712253E-005  7.008948385492438E-006
  5.861880664676323E-005  7.008948385492438E-006
  6.036281814338084E-005  7.008948385492438E-006
  7.437803229637297E-005  7.008948385492438E-006
  7.777951166137583E-005  7.008948385492438E-006
  1.007898039245497E-004  7.008948385492438E-006
  1.012945221699888E-004  7.008948385492438E-006
  1.106535691366816E-004  7.008948385492438E-006
  1.153363065561164E-004  7.008948385492438E-006
  1.255792845347321E-004  7.008948385492438E-006
  1.337852155985961E-004  7.008948385492438E-006
  1.344026845652299E-004  7.008948385492438E-006
  1.517358584301933E-004  7.008948385492438E-006
  1.971311062219380E-004  7.008948385492438E-006
  2.423746727338546E-004  7.008948385492438E-006
  2.432338503616367E-004  7.008948385492438E-006
  2.715229150508127E-004  7.008948385492438E-006
  2.859040266008298E-004  7.008948385492438E-006
  3.189337871289632E-004  7.008948385492438E-006
  3.667844716300180E-004  7.008948385492438E-006
  3.804566177432149E-004  7.008948385492438E-006
  4.106770468199586E-004  7.008948385492438E-006
  4.198741917880860E-004  7.008948385492438E-006
  4.430639819780941E-004  7.008948385492438E-006
  4.488175016477940E-004  7.008948385492438E-006
  5.938900205785116E-004  7.008948385492438E-006
  5.939022141205385E-004  7.008948385492438E-006
  6.064166338605348E-004  7.008948385492438E-006
  6.070577034303040E-004  7.008948385492438E-006
  6.130424950961671E-004  7.008948385492438E-006
  6.461975177296658E-004  7.008948385492438E-006
  6.462852024156171E-004  7.008948385492438E-006
  6.892711805620686E-004  7.008948385492438E-006
  8.934577604522585E-004  7.008948385492438E-006
  9.120084555344951E-004  7.008948385492438E-006
  1.064134526060995E-003  7.008948385492438E-006
  1.064458957169265E-003  7.008948385492438E-006
  1.134904277866635E-003  7.008948385492438E-006
  1.134909087225945E-003  7.008948385492438E-006
  1.174348893980317E-003  7.008948385492438E-006
  1.174400441403926E-003  7.008948385492438E-006
  1.205936038502839E-003  7.008948385492438E-006
  1.559345526538916E-003  7.008948385492438E-006
  1.630631377784104E-003  7.008948385492438E-006
  1.754498816803026E-003  7.008948385492438E-006
  2.144303770680262E-003  7.008948385492438E-006
  2.749426539849698E-003  7.008948385492438E-006
  2.768631387948827E-003  7.008948385492438E-006
  3.905190074071533E-003  7.008948385492438E-006
  3.906027435326076E-003  7.008948385492438E-006
 cut=1d-8, nber non-redundant internal coords=          60
 Check on Eigenvals of non-red overlap matrix:
  0.00000701  0.00001113  0.00001201  0.00002002  0.00002155  0.00002609  0.00003416  0.00004315
  0.00004660  0.00005006  0.00005418  0.00005862  0.00006036  0.00007438  0.00007778  0.00010079
  0.00010129  0.00011065  0.00011534  0.00012558  0.00013379  0.00013440  0.00015174  0.00019713
  0.00024237  0.00024323  0.00027152  0.00028590  0.00031893  0.00036678  0.00038046  0.00041068
  0.00041987  0.00044306  0.00044882  0.00059389  0.00059390  0.00060642  0.00060706  0.00061304
  0.00064620  0.00064629  0.00068927  0.00089346  0.00091201  0.00106413  0.00106446  0.00113490
  0.00113491  0.00117435  0.00117440  0.00120594  0.00155935  0.00163063  0.00175450  0.00214430
  0.00274943  0.00276863  0.00390519  0.00390603
 Checking for correct frequencies
 recalc frequencies=
    -0.0   -0.0    0.0    0.0    0.0    0.0   36.9   84.2  110.1  154.3
   231.0  258.4  318.7  359.9  381.2  395.1  401.3  436.2  440.9  458.4
   564.0  572.3  623.4  632.1  680.1  713.3  766.0  778.8  831.3  833.1
   833.5  878.6  937.7  991.9  994.2 1019.8 1020.2 1021.7 1056.0 1079.9
  1105.4 1110.2 1133.9 1206.6 1230.3 1283.3 1295.8 1304.7 1312.8 1343.9
  1449.4 1453.7 1485.2 1490.8 1592.2 1606.3 1616.3 1628.0 1756.1 1781.4
  3148.6 3149.0 3187.8 3187.9 3201.5 3201.7
 recalc symmetries=
     B2     B1     B2     A1     A2     B1     A2     B1     A2     B1 
     A1     A2     B2     A1     B1     B2     A1     A2     B1     A1 
     B1     A2     B2     B2     A1     B2     B1     A2     A1     B1 
     A2     A2     B2     B1     A2     A1     B1     A2     B2     A1 
     B2     A1     B2     A1     B2     B2     A1     A1     B2     A1 
     B2     A1     A1     B2     A1     B2     A1     B2     A1     B2 
     B2     A1     B2     A1     B2     A1 
 recalc freqs check OK
 Zero-point lengths:
 10.0000 10.0000 10.0000 10.0000 10.0000 10.0000 40.8380 27.0235 23.6216 19.9560
 16.3128 15.4221 13.8864 13.0676 12.6972 12.4729 12.3760 11.8700 11.8066 11.5795
 10.4391 10.3628  9.9293  9.8607  9.5063  9.2823  8.9573  8.8832  8.5986  8.5889
  8.5871  8.3640  8.0959  7.8716  7.8626  7.7632  7.7618  7.7558  7.6288  7.5441
  7.4566  7.4402  7.3622  7.1368  7.0679  6.9205  6.8870  6.8633  6.8423  6.7626
  6.5118  6.5021  6.4328  6.4208  6.2130  6.1856  6.1664  6.1443  5.9159  5.8738
  4.4181  4.4178  4.3909  4.3908  4.3814  4.3813
 highest evec of mol 1
  0.0000 -0.0014 -0.0009
  0.0000  0.0017  0.0021
  0.0000 -0.0017  0.0021
  0.0000  0.0014 -0.0009
  0.0000  0.0054  0.0004
  0.0000 -0.0813  0.1465
  0.0000 -0.1235 -0.0154
  0.0000 -0.0038 -0.0220
  0.0000  0.0008  0.0005
  0.0000  0.0011 -0.0008
  0.0000 -0.0011 -0.0008
  0.0000 -0.0008  0.0005
  0.0000  0.0038 -0.0220
  0.0000  0.1235 -0.0154
  0.0000  0.0813  0.1465
  0.0000 -0.0054  0.0004
  0.0000  0.2781 -0.4671
  0.0000  0.3947  0.0306
  0.0000  0.0229  0.0555
  0.0000 -0.0229  0.0555
  0.0000 -0.3947  0.0306
  0.0000 -0.2781 -0.4671
 generating redundant internal coords
         300        3600          22
 Adding extra bonds for z output only
           8           6           6           8           6           6
           6           6           7           6           6           7
           6           6           6           6           1           1
           1           1           1           1
 search for int coords
   1 str   2   1   1.210
   2 str   3   2   1.551
   3 str   4   3   1.210
   4 str   5   3   1.484
   5 str   6   5   1.398
   6 str   7   6   1.384
   7 str   8   7   1.398
   8 str   9   8   1.331
   9 str  10   5   1.409
  10 str  10   9   1.338
  11 str  11  10   1.491
  12 str  12  11   1.338
  13 str  13  12   1.331
  14 str  14  13   1.398
  15 str  15  14   1.384
  16 str  16   2   1.484
  17 str  16  11   1.409
  18 str  16  15   1.398
  19 str  17   6   1.083
  20 str  18   7   1.083
  21 str  19   8   1.087
  22 str  20  13   1.087
  23 str  21  14   1.083
  24 str  22  15   1.083
 nber stretches=          24
  25 ben   1   2   3
  26 prop tor   1   2   3   4
  27 prop tor   1   2   3   5
  28 ben   1   2  16
  29 prop tor   1   2  16  11
  30 prop tor   1   2  16  15
  31 ben   2   3   4
  32 ben   2   3   5
  33 prop tor   2   3   5   6
  34 prop tor   2   3   5  10
  35 ben   2  16  11
  36 ben   2  16  15
  37 ben   3   2  16
  38 prop tor   3   2  16  11
  39 prop tor   3   2  16  15
  40 ben   3   5   6
  41 prop tor   3   5   6   7
  42 prop tor   3   5   6  17
  43 ben   3   5  10
  44 prop tor   3   5  10   9
  45 prop tor   3   5  10  11
  46 ben   4   3   5
  47 prop tor   4   3   5   6
  48 prop tor   4   3   5  10
  49 ben   5   6   7
  50 prop tor   5   6   7   8
  51 prop tor   5   6   7  18
  52 ben   5   6  17
  53 ben   5  10   9
  54 ben   5  10  11
  55 prop tor   5  10  11  12
  56 prop tor   5  10  11  16
  57 ben   6   5  10
  58 prop tor   6   5  10   9
  59 prop tor   6   5  10  11
  60 ben   6   7   8
  61 prop tor   6   7   8   9
  62 prop tor   6   7   8  19
  63 ben   6   7  18
  64 ben   7   6  17
  65 ben   7   8   9
  66 prop tor   7   8   9  10
  67 ben   7   8  19
  68 ben   8   7  18
  69 ben   8   9  10
  70 prop tor   8   9  10   5
  71 prop tor   8   9  10  11
  72 ben   9   8  19
  73 ben   9  10  11
  74 prop tor   9  10  11  12
  75 prop tor   9  10  11  16
  76 prop tor  10   5   6   7
  77 prop tor  10   5   6  17
  78 ben  10  11  12
  79 prop tor  10  11  12  13
  80 ben  10  11  16
  81 prop tor  10  11  16   2
  82 prop tor  10  11  16  15
  83 ben  11  12  13
  84 prop tor  11  12  13  14
  85 prop tor  11  12  13  20
  86 ben  11  16  15
  87 ben  12  11  16
  88 prop tor  12  11  16   2
  89 prop tor  12  11  16  15
  90 ben  12  13  14
  91 prop tor  12  13  14  15
  92 prop tor  12  13  14  21
  93 ben  12  13  20
  94 ben  13  14  15
  95 prop tor  13  14  15  16
  96 prop tor  13  14  15  22
  97 ben  13  14  21
  98 ben  14  13  20
  99 ben  14  15  16
 100 prop tor  14  15  16   2
 101 prop tor  14  15  16  11
 102 ben  14  15  22
 103 ben  15  14  21
 104 prop tor  16   2   3   4
 105 prop tor  16   2   3   5
 106 prop tor  16  11  12  13
 107 ben  16  15  22
 108 prop tor  17   6   7   8
 109 prop tor  17   6   7  18
 110 prop tor  18   7   8   9
 111 prop tor  18   7   8  19
 112 prop tor  19   8   9  10
 113 prop tor  20  13  14  15
 114 prop tor  20  13  14  21
 115 prop tor  21  14  15  16
 116 prop tor  21  14  15  22
 117 prop tor  22  15  16   2
 118 prop tor  22  15  16  11
 nber bend=              38
 nber lin bend=           0
 nber prop tor=          56
 nber impr tor=           0
 nber tot redund int=         118
 Reading file: 
 ./conjugated_carbonyls_1_C-2S0.log                                             
                                          
  Entering Gaussian System, Link 0=g16                                          
  
 Gaussian format, type: g94, g98, g03= F F F
  #P Geom=AllCheck Guess=TCheck SCRF=Check Test GenChk UB3LYP/6-311G(d,p    
 energy type= B3LYP   
 Original G94 input coords:
  8 -1.398813 -3.065683  0.000000
  6 -0.735600 -1.993798  0.000000
  6  0.735600 -1.993798  0.000000
  8  1.398813 -3.065683  0.000000
  6  1.427507 -0.681263  0.000000
  6  2.819396 -0.659401  0.000000
  6  3.505112  0.578764  0.000000
  6  2.727592  1.735341  0.000000
  7  1.397017  1.779749  0.000000
  6  0.715715  0.571793  0.000000
  6 -0.715715  0.571793  0.000000
  7 -1.397017  1.779749  0.000000
  6 -2.727592  1.735341  0.000000
  6 -3.505112  0.578764  0.000000
  6 -2.819396 -0.659401  0.000000
  6 -1.427507 -0.681263  0.000000
  1  3.332199 -1.615661  0.000000
  1  4.592653  0.637592  0.000000
  1  3.227367  2.712567  0.000000
  1 -3.227367  2.712567  0.000000
  1 -4.592653  0.637592  0.000000
  1 -3.332199 -1.615661  0.000000
 nber atoms=          22
  SCF Done:  E(UB3LYP) =  -720.950447262     A.U. after    1 cycles             
  
          23          40 "  -720.950447262"
After scan for Atom:   Atom  AN      X      Y      Z        X      Y      Z        X      Y      Z   
After scan for Atom:   Atom  AN      X      Y      Z        X      Y      Z        X      Y      Z   
After scan for Atom:   Atom  AN      X      Y      Z        X      Y      Z        X      Y      Z   
After scan for Atom:   Atom  AN      X      Y      Z        X      Y      Z        X      Y      Z   
After scan for Atom:   Atom  AN      X      Y      Z        X      Y      Z        X      Y      Z   
After scan for Atom:   Atom  AN      X      Y      Z        X      Y      Z        X      Y      Z   
After scan for Atom:   Atom  AN      X      Y      Z        X      Y      Z        X      Y      Z   
After scan for Atom:   Atom  AN      X      Y      Z        X      Y      Z        X      Y      Z   
After scan for Atom:   Atom  AN      X      Y      Z        X      Y      Z        X      Y      Z   
After scan for Atom:   Atom  AN      X      Y      Z        X      Y      Z        X      Y      Z   
After scan for Atom:   Atom  AN      X      Y      Z        X      Y      Z        X      Y      Z   
After scan for Atom:   Atom  AN      X      Y      Z        X      Y      Z        X      Y      Z   
After scan for Atom:   Atom  AN      X      Y      Z        X      Y      Z        X      Y      Z   
After scan for Atom:   Atom  AN      X      Y      Z        X      Y      Z        X      Y      Z   
After scan for Atom:   Atom  AN      X      Y      Z        X      Y      Z        X      Y      Z   
After scan for Atom:   Atom  AN      X      Y      Z        X      Y      Z        X      Y      Z   
After scan for Atom:   Atom  AN      X      Y      Z        X      Y      Z        X      Y      Z   
After scan for Atom:   Atom  AN      X      Y      Z        X      Y      Z        X      Y      Z   
After scan for Atom:   Atom  AN      X      Y      Z        X      Y      Z        X      Y      Z   
After scan for Atom:   Atom  AN      X      Y      Z        X      Y      Z        X      Y      Z   
 g94    frequencies=
     0.0    0.0    0.0    0.0    0.0    0.0   66.3   81.2  130.1  162.1
   235.5  257.6  321.2  369.6  384.4  393.3  416.2  417.9  454.5  464.8
   540.7  582.3  586.9  622.5  650.6  661.4  675.3  705.6  721.0  740.2
   777.3  830.5  846.5  850.3  889.9  892.4  922.8 1026.9 1027.5 1041.6
  1062.7 1082.3 1082.4 1160.2 1171.5 1235.8 1270.8 1275.8 1320.8 1341.3
  1377.5 1428.9 1437.7 1454.9 1466.6 1483.0 1509.8 1539.5 1554.2 1565.0
  2989.5 2992.1 3094.9 3096.3 3158.6 3160.0
 g94    symmetries=
                                                 A      A      A      A
       A      A      A      A      A      A      A      A      A      A
       A      A      A      A      A      A      A      A      A      A
       A      A      A      A      A      A      A      A      A      A
       A      A      A      A      A      A      A      A      A      A
       A      A      A      A      A      A      A      A      A      A
       A      A      A      A      A      A
 atomic masses:
 15.9949 12.0000 12.0000 15.9949 12.0000 12.0000 12.0000 12.0000 14.0031 12.0000
 12.0000 14.0031 12.0000 12.0000 12.0000 12.0000  1.0078  1.0078  1.0078  1.0078
  1.0078  1.0078
 looking for force constants in 
 ./conjugated_carbonyls_1_C-2S0.fchk                                            
  
 Cartesian Force Constants                  R   N=        2211                  
  
 n3=          66        2211
 g94-fc frequencies=
    -5.9   -4.5   -0.8   -0.0   -0.0    0.0   66.3   81.2  130.1  162.1
   235.5  257.6  321.3  369.6  384.4  393.3  416.2  417.9  454.5  464.8
   540.7  582.3  586.9  622.5  650.6  661.5  675.3  705.6  721.0  740.3
   777.3  830.6  846.5  850.3  889.9  892.4  922.8 1026.9 1027.5 1041.6
  1062.7 1082.4 1082.4 1160.2 1171.5 1235.9 1270.8 1275.9 1320.9 1341.3
  1377.5 1428.9 1437.7 1454.9 1466.7 1483.0 1509.9 1539.5 1554.3 1565.1
  2989.6 2992.1 3095.0 3096.4 3158.6 3160.1
 at 99999: n3=          66
 symm operator            1 :  F  nop=           0
 symm operator            2 :  T  nop=           1
 symm operator            3 :  F  nop=           1
 symm operator            4 :  F  nop=           1
 symm operator            5 :  T  nop=           2
 symm operator            6 :  F  nop=           2
 symm operator            7 :  T  nop=           3
 swap           2           3
   1  -1.39881   0.00000  -3.06568
   2  -0.73560   0.00000  -1.99380
   3   0.73560   0.00000  -1.99380
   4   1.39881   0.00000  -3.06568
   5   1.42751   0.00000  -0.68126
   6   2.81940   0.00000  -0.65940
   7   3.50511   0.00000   0.57876
   8   2.72759   0.00000   1.73534
   9   1.39702   0.00000   1.77975
  10   0.71571   0.00000   0.57179
  11  -0.71571   0.00000   0.57179
  12  -1.39702   0.00000   1.77975
  13  -2.72759   0.00000   1.73534
  14  -3.50511   0.00000   0.57876
  15  -2.81940   0.00000  -0.65940
  16  -1.42751   0.00000  -0.68126
  17   3.33220   0.00000  -1.61566
  18   4.59265   0.00000   0.63759
  19   3.22737   0.00000   2.71257
  20  -3.22737   0.00000   2.71257
  21  -4.59265   0.00000   0.63759
  22  -3.33220   0.00000  -1.61566
 swap           1           2
   1   0.00000  -1.39881  -3.06568
   2   0.00000  -0.73560  -1.99380
   3   0.00000   0.73560  -1.99380
   4   0.00000   1.39881  -3.06568
   5   0.00000   1.42751  -0.68126
   6   0.00000   2.81940  -0.65940
   7   0.00000   3.50511   0.57876
   8   0.00000   2.72759   1.73534
   9   0.00000   1.39702   1.77975
  10   0.00000   0.71571   0.57179
  11   0.00000  -0.71571   0.57179
  12   0.00000  -1.39702   1.77975
  13   0.00000  -2.72759   1.73534
  14   0.00000  -3.50511   0.57876
  15   0.00000  -2.81940  -0.65940
  16   0.00000  -1.42751  -0.68126
  17   0.00000   3.33220  -1.61566
  18   0.00000   4.59265   0.63759
  19   0.00000   3.22737   2.71257
  20   0.00000  -3.22737   2.71257
  21   0.00000  -4.59265   0.63759
  22   0.00000  -3.33220  -1.61566
 The point group of the molecule is C2V
 enforcing symm op           1  jsymt=          -1          -1           1
 enforcing symm op           6  jsymt=           1          -1           1
 enforcing symm op           7  jsymt=          -1           1           1
 cartesian coord symmetries:
 A1 :   22 A2 :   11 B1 :   11 B2 :   22
 Symmetry rotation matrix:
   0.00000   0.00000   1.00000
  -1.00000   0.00000   0.00000
   0.00000  -1.00000   0.00000

 Projecting out zero-frequency components
 generating redundant internal coords
         300        3600          22
 search for int coords
   1 str   2   1   1.260
   2 str   3   2   1.471
   3 str   4   3   1.260
   4 str   5   3   1.484
   5 str   6   5   1.392
   6 str   7   6   1.415
   7 str   8   7   1.394
   8 str   9   8   1.331
   9 str  10   5   1.441
  10 str  10   9   1.387
  11 str  11  10   1.431
  12 str  12  11   1.387
  13 str  13  12   1.331
  14 str  14  13   1.394
  15 str  15  14   1.415
  16 str  16   2   1.484
  17 str  16  11   1.441
  18 str  16  15   1.392
  19 str  17   6   1.085
  20 str  18   7   1.089
  21 str  19   8   1.098
  22 str  20  13   1.098
  23 str  21  14   1.089
  24 str  22  15   1.085
 nber stretches=          24
  25 ben   1   2   3
  26 prop tor   1   2   3   4
  27 prop tor   1   2   3   5
  28 ben   1   2  16
  29 prop tor   1   2  16  11
  30 prop tor   1   2  16  15
  31 ben   2   3   4
  32 ben   2   3   5
  33 prop tor   2   3   5   6
  34 prop tor   2   3   5  10
  35 ben   2  16  11
  36 ben   2  16  15
  37 ben   3   2  16
  38 prop tor   3   2  16  11
  39 prop tor   3   2  16  15
  40 ben   3   5   6
  41 prop tor   3   5   6   7
  42 prop tor   3   5   6  17
  43 ben   3   5  10
  44 prop tor   3   5  10   9
  45 prop tor   3   5  10  11
  46 ben   4   3   5
  47 prop tor   4   3   5   6
  48 prop tor   4   3   5  10
  49 ben   5   6   7
  50 prop tor   5   6   7   8
  51 prop tor   5   6   7  18
  52 ben   5   6  17
  53 ben   5  10   9
  54 ben   5  10  11
  55 prop tor   5  10  11  12
  56 prop tor   5  10  11  16
  57 ben   6   5  10
  58 prop tor   6   5  10   9
  59 prop tor   6   5  10  11
  60 ben   6   7   8
  61 prop tor   6   7   8   9
  62 prop tor   6   7   8  19
  63 ben   6   7  18
  64 ben   7   6  17
  65 ben   7   8   9
  66 prop tor   7   8   9  10
  67 ben   7   8  19
  68 ben   8   7  18
  69 ben   8   9  10
  70 prop tor   8   9  10   5
  71 prop tor   8   9  10  11
  72 ben   9   8  19
  73 ben   9  10  11
  74 prop tor   9  10  11  12
  75 prop tor   9  10  11  16
  76 prop tor  10   5   6   7
  77 prop tor  10   5   6  17
  78 ben  10  11  12
  79 prop tor  10  11  12  13
  80 ben  10  11  16
  81 prop tor  10  11  16   2
  82 prop tor  10  11  16  15
  83 ben  11  12  13
  84 prop tor  11  12  13  14
  85 prop tor  11  12  13  20
  86 ben  11  16  15
  87 ben  12  11  16
  88 prop tor  12  11  16   2
  89 prop tor  12  11  16  15
  90 ben  12  13  14
  91 prop tor  12  13  14  15
  92 prop tor  12  13  14  21
  93 ben  12  13  20
  94 ben  13  14  15
  95 prop tor  13  14  15  16
  96 prop tor  13  14  15  22
  97 ben  13  14  21
  98 ben  14  13  20
  99 ben  14  15  16
 100 prop tor  14  15  16   2
 101 prop tor  14  15  16  11
 102 ben  14  15  22
 103 ben  15  14  21
 104 prop tor  16   2   3   4
 105 prop tor  16   2   3   5
 106 prop tor  16  11  12  13
 107 ben  16  15  22
 108 prop tor  17   6   7   8
 109 prop tor  17   6   7  18
 110 prop tor  18   7   8   9
 111 prop tor  18   7   8  19
 112 prop tor  19   8   9  10
 113 prop tor  20  13  14  15
 114 prop tor  20  13  14  21
 115 prop tor  21  14  15  16
 116 prop tor  21  14  15  22
 117 prop tor  22  15  16   2
 118 prop tor  22  15  16  11
 nber bend=              38
 nber lin bend=           0
 nber prop tor=          56
 nber impr tor=           0
 nber tot redund int=         118
 Eigenvalues of G in red int coords
    Gval -0.00000000 -0.00000000 -0.00000000 -0.00000000 -0.00000000 -0.00000000 -0.00000000 -0.00000000
    Gval -0.00000000 -0.00000000 -0.00000000 -0.00000000 -0.00000000 -0.00000000 -0.00000000 -0.00000000
    Gval -0.00000000 -0.00000000 -0.00000000 -0.00000000 -0.00000000 -0.00000000 -0.00000000 -0.00000000
    Gval -0.00000000 -0.00000000 -0.00000000 -0.00000000 -0.00000000 -0.00000000 -0.00000000  0.00000000
    Gval  0.00000000  0.00000000  0.00000000  0.00000000  0.00000000  0.00000000  0.00000000  0.00000000
    Gval  0.00000000  0.00000000  0.00000000  0.00000000  0.00000000  0.00000000  0.00000000  0.00000000
    Gval  0.00000000  0.00000000  0.00000000  0.00000000  0.00000000  0.00000000  0.00000000  0.00000000
    Gval  0.00000000  0.00000000  0.00000701  0.00001102  0.00001168  0.00002014  0.00002115  0.00002559
    Gval  0.00003454  0.00004274  0.00004642  0.00004936  0.00005375  0.00005835  0.00006001  0.00007395
    Gval  0.00007763  0.00009723  0.00010051  0.00011018  0.00011436  0.00012538  0.00013098  0.00013103
    Gval  0.00014980  0.00019421  0.00024095  0.00024391  0.00026272  0.00028545  0.00032207  0.00036225
    Gval  0.00037580  0.00039585  0.00043031  0.00043525  0.00044592  0.00058189  0.00059381  0.00059382
    Gval  0.00060641  0.00060717  0.00064498  0.00064517  0.00070154  0.00090148  0.00090506  0.00105066
    Gval  0.00105099  0.00112017  0.00112019  0.00116234  0.00116240  0.00122346  0.00150868  0.00159421
    Gval  0.00171464  0.00211549  0.00269231  0.00271259  0.00387350  0.00387435
  7.005512873098918E-006  7.005512873098918E-006
  1.102430661032516E-005  7.005512873098918E-006
  1.167534606094165E-005  7.005512873098918E-006
  2.014099237107914E-005  7.005512873098918E-006
  2.115314782130332E-005  7.005512873098918E-006
  2.558595670696809E-005  7.005512873098918E-006
  3.454015336006251E-005  7.005512873098918E-006
  4.273896136223377E-005  7.005512873098918E-006
  4.642047896343946E-005  7.005512873098918E-006
  4.935693528167893E-005  7.005512873098918E-006
  5.375239571926986E-005  7.005512873098918E-006
  5.834895248076794E-005  7.005512873098918E-006
  6.001080018541233E-005  7.005512873098918E-006
  7.395343842189925E-005  7.005512873098918E-006
  7.763040998485294E-005  7.005512873098918E-006
  9.723216688756587E-005  7.005512873098918E-006
  1.005070901999942E-004  7.005512873098918E-006
  1.101772174145498E-004  7.005512873098918E-006
  1.143598592760690E-004  7.005512873098918E-006
  1.253808697916730E-004  7.005512873098918E-006
  1.309765750968475E-004  7.005512873098918E-006
  1.310278844047397E-004  7.005512873098918E-006
  1.497983501440995E-004  7.005512873098918E-006
  1.942114395727075E-004  7.005512873098918E-006
  2.409462235159071E-004  7.005512873098918E-006
  2.439119551524603E-004  7.005512873098918E-006
  2.627161710339894E-004  7.005512873098918E-006
  2.854526235658980E-004  7.005512873098918E-006
  3.220705108004846E-004  7.005512873098918E-006
  3.622530146300785E-004  7.005512873098918E-006
  3.757995201411917E-004  7.005512873098918E-006
  3.958541751916390E-004  7.005512873098918E-006
  4.303125332079654E-004  7.005512873098918E-006
  4.352511314811405E-004  7.005512873098918E-006
  4.459214261724981E-004  7.005512873098918E-006
  5.818930747893565E-004  7.005512873098918E-006
  5.938131890170068E-004  7.005512873098918E-006
  5.938201478569206E-004  7.005512873098918E-006
  6.064140611433080E-004  7.005512873098918E-006
  6.071692857471079E-004  7.005512873098918E-006
  6.449833299442004E-004  7.005512873098918E-006
  6.451727802385045E-004  7.005512873098918E-006
  7.015378229560016E-004  7.005512873098918E-006
  9.014823700755945E-004  7.005512873098918E-006
  9.050583627599989E-004  7.005512873098918E-006
  1.050656340748695E-003  7.005512873098918E-006
  1.050989178971142E-003  7.005512873098918E-006
  1.120171205236836E-003  7.005512873098918E-006
  1.120194959798409E-003  7.005512873098918E-006
  1.162342823712284E-003  7.005512873098918E-006
  1.162400500066863E-003  7.005512873098918E-006
  1.223457840171921E-003  7.005512873098918E-006
  1.508681427291029E-003  7.005512873098918E-006
  1.594213165396157E-003  7.005512873098918E-006
  1.714638248423542E-003  7.005512873098918E-006
  2.115492418544702E-003  7.005512873098918E-006
  2.692311066556064E-003  7.005512873098918E-006
  2.712590681390801E-003  7.005512873098918E-006
  3.873504073879261E-003  7.005512873098918E-006
  3.874345622582697E-003  7.005512873098918E-006
 cut=1d-8, nber non-redundant internal coords=          60
 Check on Eigenvals of non-red overlap matrix:
  0.00000701  0.00001102  0.00001168  0.00002014  0.00002115  0.00002559  0.00003454  0.00004274
  0.00004642  0.00004936  0.00005375  0.00005835  0.00006001  0.00007395  0.00007763  0.00009723
  0.00010051  0.00011018  0.00011436  0.00012538  0.00013098  0.00013103  0.00014980  0.00019421
  0.00024095  0.00024391  0.00026272  0.00028545  0.00032207  0.00036225  0.00037580  0.00039585
  0.00043031  0.00043525  0.00044592  0.00058189  0.00059381  0.00059382  0.00060641  0.00060717
  0.00064498  0.00064517  0.00070154  0.00090148  0.00090506  0.00105066  0.00105099  0.00112017
  0.00112019  0.00116234  0.00116240  0.00122346  0.00150868  0.00159421  0.00171464  0.00211549
  0.00269231  0.00271259  0.00387350  0.00387435
 Checking for correct frequencies
 recalc frequencies=
    -0.0   -0.0   -0.0    0.0    0.0    0.0   66.3   81.2  130.1  162.1
   235.5  257.6  321.3  369.6  384.4  393.3  416.2  417.9  454.5  464.8
   540.7  582.3  586.9  622.5  650.6  661.5  675.3  705.6  721.0  740.3
   777.3  830.6  846.5  850.3  889.9  892.4  922.8 1026.9 1027.5 1041.6
  1062.7 1082.4 1082.4 1160.2 1171.5 1235.9 1270.8 1275.9 1320.9 1341.3
  1377.5 1428.9 1437.7 1454.9 1466.7 1483.0 1509.9 1539.5 1554.3 1565.1
  2989.6 2992.1 3095.0 3096.4 3158.6 3160.1
 recalc symmetries=
     B2     A2     A1     B1     B1     B2     A2     B1     A2     B1 
     A1     A2     B2     A1     B1     B2     A1     B1     A1     A2 
     A2     B1     B2     B2     B1     A1     A2     B2     A2     B1 
     A2     A1     B1     A2     B1     A2     B2     A1     B2     A1 
     B2     A1     B2     A1     B2     B2     A1     B2     A1     A1 
     B2     A1     B2     B2     B2     A1     A1     A1     B2     A1 
     B2     A1     B2     A1     B2     A1 
 recalc freqs check OK
 Zero-point lengths:
 10.0000 10.0000 10.0000 10.0000 10.0000 10.0000 30.4374 27.5069 21.7317 19.4736
 16.1531 15.4460 13.8316 12.8953 12.6451 12.5008 12.1515 12.1275 11.6287 11.4993
 10.6617 10.2737 10.2334  9.9365  9.7191  9.6393  9.5396  9.3330  9.2327  9.1118
  8.8920  8.6022  8.5209  8.5017  8.3105  8.2986  8.1609  7.7363  7.7339  7.6815
  7.6047  7.5355  7.5353  7.2783  7.2431  7.0519  6.9543  6.9406  6.8213  6.7691
  6.6796  6.5583  6.5381  6.4994  6.4733  6.4376  6.3801  6.3183  6.2883  6.2665
  4.5341  4.5322  4.4562  4.4552  4.4111  4.4101
 highest evec of mol 2
  0.0000 -0.0023 -0.0009
  0.0000  0.0010  0.0035
  0.0000 -0.0010  0.0035
  0.0000  0.0023 -0.0009
  0.0000  0.0022  0.0025
  0.0000 -0.0946  0.1740
  0.0000 -0.0373 -0.0076
  0.0000  0.0004 -0.0070
  0.0000 -0.0005  0.0000
  0.0000  0.0021 -0.0014
  0.0000 -0.0021 -0.0014
  0.0000  0.0005  0.0000
  0.0000 -0.0004 -0.0070
  0.0000  0.0373 -0.0076
  0.0000  0.0946  0.1740
  0.0000 -0.0022  0.0025
  0.0000  0.3232 -0.5848
  0.0000  0.1120  0.0082
  0.0000  0.0054  0.0140
  0.0000 -0.0054  0.0140
  0.0000 -0.1120  0.0082
  0.0000 -0.3232 -0.5848
 Enter nber and list of atoms to keep of mol #2
 keep list:          22           1           2           3           4
           5           6           7           8           9          10
          11          12          13          14          15          16
          17          18          19          20          21          22
 reordering atoms
           1  -1.39881300000000     
           2 -0.735600000000000     
           3  0.735600000000000     
           4   1.39881300000000     
           5   1.42750700000000     
           6   2.81939600000000     
           7   3.50511200000000     
           8   2.72759200000000     
           9   1.39701700000000     
          10  0.715715000000000     
          11 -0.715715000000000     
          12  -1.39701700000000     
          13  -2.72759200000000     
          14  -3.50511200000000     
          15  -2.81939600000000     
          16  -1.42750700000000     
          17   3.33219900000000     
          18   4.59265300000000     
          19   3.22736700000000     
          20  -3.22736700000000     
          21  -4.59265300000000     
          22  -3.33219900000000     
           1           1
           2           2
           3           3
           4           4
           5           5
           6           6
           7           7
           8           8
           9           9
          10          10
          11          11
          12          12
          13          13
          14          14
          15          15
          16          16
          17          17
          18          18
          19          19
          20          20
          21          21
          22          22
 initial cartes coords mol 1
   8  -0.00000   2.75478   1.37201
   6  -0.00000   1.70267   0.77538
   6   0.00000   1.70267  -0.77537
   8  -0.00000   2.75478  -1.37201
   6   0.00000   0.38520  -1.45904
   6   0.00000   0.34375  -2.85642
   6   0.00000  -0.88601  -3.49153
   6  -0.00000  -2.03380  -2.69412
   7   0.00000  -2.01679  -1.36326
   6   0.00000  -0.83025  -0.74566
   6   0.00000  -0.83025   0.74566
   7   0.00000  -2.01679   1.36326
   6   0.00000  -2.03380   2.69412
   6  -0.00000  -0.88601   3.49153
   6  -0.00000   0.34375   2.85642
   6  -0.00000   0.38520   1.45904
   1   0.00000   1.27879  -3.40373
   1   0.00000  -0.96652  -4.57168
   1   0.00000  -3.01901  -3.15280
   1   0.00000  -3.01901   3.15280
   1  -0.00000  -0.96652   4.57168
   1  -0.00000   1.27879   3.40373
 initial cartes coords mol 2
   8   0.00000   2.77650  -1.39881
   6   0.00000   1.70461  -0.73560
   6   0.00000   1.70461   0.73560
   8   0.00000   2.77650   1.39881
   6   0.00000   0.39208   1.42751
   6   0.00000   0.37022   2.81940
   6   0.00000  -0.86795   3.50511
   6   0.00000  -2.02452   2.72759
   7   0.00000  -2.06893   1.39702
   6   0.00000  -0.86098   0.71571
   6   0.00000  -0.86098  -0.71571
   7   0.00000  -2.06893  -1.39702
   6   0.00000  -2.02452  -2.72759
   6   0.00000  -0.86795  -3.50511
   6   0.00000   0.37022  -2.81940
   6   0.00000   0.39208  -1.42751
   1   0.00000   1.32648   3.33220
   1   0.00000  -0.92678   4.59265
   1   0.00000  -3.00175   3.22737
   1   0.00000  -3.00175  -3.22737
   1   0.00000  -0.92678  -4.59265
   1   0.00000   1.32648  -3.33220
 loop 1 0
 mod cartes coords mol 2
   8   0.00000   2.77650  -1.39881
   6   0.00000   1.70461  -0.73560
   6   0.00000   1.70461   0.73560
   8   0.00000   2.77650   1.39881
   6   0.00000   0.39208   1.42751
   6   0.00000   0.37022   2.81940
   6   0.00000  -0.86795   3.50511
   6   0.00000  -2.02452   2.72759
   7   0.00000  -2.06893   1.39702
   6   0.00000  -0.86098   0.71571
   6   0.00000  -0.86098  -0.71571
   7   0.00000  -2.06893  -1.39702
   6   0.00000  -2.02452  -2.72759
   6   0.00000  -0.86795  -3.50511
   6   0.00000   0.37022  -2.81940
   6   0.00000   0.39208  -1.42751
   1   0.00000   1.32648   3.33220
   1   0.00000  -0.92678   4.59265
   1   0.00000  -3.00175   3.22737
   1   0.00000  -3.00175  -3.22737
   1   0.00000  -0.92678  -4.59265
   1   0.00000   1.32648  -3.33220
 read in order, maxerr=  9.16 for atom  18
 loop 1 1
 mod cartes coords mol 2
   8   0.00000   2.77650  -1.39881
   6   0.00000   1.70461  -0.73560
   6   0.00000   1.70461   0.73560
   8   0.00000   2.77650   1.39881
   6   0.00000   0.39208   1.42751
   6   0.00000   0.37022   2.81940
   6   0.00000  -0.86795   3.50511
   6   0.00000  -2.02452   2.72759
   7   0.00000  -2.06893   1.39702
   6   0.00000  -0.86098   0.71571
   6   0.00000  -0.86098  -0.71571
   7   0.00000  -2.06893  -1.39702
   6   0.00000  -2.02452  -2.72759
   6   0.00000  -0.86795  -3.50511
   6   0.00000   0.37022  -2.81940
   6   0.00000   0.39208  -1.42751
   1   0.00000   1.32648   3.33220
   1   0.00000  -0.92678   4.59265
   1   0.00000  -3.00175   3.22737
   1   0.00000  -3.00175  -3.22737
   1   0.00000  -0.92678  -4.59265
   1   0.00000   1.32648  -3.33220
 read in order, maxerr=  9.16 for atom  18
 loop 1 2
 mod cartes coords mol 2
   8   0.00000  -2.77650  -1.39881
   6   0.00000  -1.70461  -0.73560
   6   0.00000  -1.70461   0.73560
   8   0.00000  -2.77650   1.39881
   6   0.00000  -0.39208   1.42751
   6   0.00000  -0.37022   2.81940
   6   0.00000   0.86795   3.50511
   6   0.00000   2.02452   2.72759
   7   0.00000   2.06893   1.39702
   6   0.00000   0.86098   0.71571
   6   0.00000   0.86098  -0.71571
   7   0.00000   2.06893  -1.39702
   6   0.00000   2.02452  -2.72759
   6   0.00000   0.86795  -3.50511
   6   0.00000  -0.37022  -2.81940
   6   0.00000  -0.39208  -1.42751
   1   0.00000  -1.32648   3.33220
   1   0.00000   0.92678   4.59265
   1   0.00000   3.00175   3.22737
   1   0.00000   3.00175  -3.22737
   1   0.00000   0.92678  -4.59265
   1   0.00000  -1.32648  -3.33220
 read in order, maxerr=  9.36 for atom  21
 loop 1 3
 mod cartes coords mol 2
   8   0.00000  -2.77650  -1.39881
   6   0.00000  -1.70461  -0.73560
   6   0.00000  -1.70461   0.73560
   8   0.00000  -2.77650   1.39881
   6   0.00000  -0.39208   1.42751
   6   0.00000  -0.37022   2.81940
   6   0.00000   0.86795   3.50511
   6   0.00000   2.02452   2.72759
   7   0.00000   2.06893   1.39702
   6   0.00000   0.86098   0.71571
   6   0.00000   0.86098  -0.71571
   7   0.00000   2.06893  -1.39702
   6   0.00000   2.02452  -2.72759
   6   0.00000   0.86795  -3.50511
   6   0.00000  -0.37022  -2.81940
   6   0.00000  -0.39208  -1.42751
   1   0.00000  -1.32648   3.33220
   1   0.00000   0.92678   4.59265
   1   0.00000   3.00175   3.22737
   1   0.00000   3.00175  -3.22737
   1   0.00000   0.92678  -4.59265
   1   0.00000  -1.32648  -3.33220
 read in order, maxerr=  9.36 for atom  21
 loop 1 4
 mod cartes coords mol 2
   8   0.00000   2.77650   1.39881
   6   0.00000   1.70461   0.73560
   6   0.00000   1.70461  -0.73560
   8   0.00000   2.77650  -1.39881
   6   0.00000   0.39208  -1.42751
   6   0.00000   0.37022  -2.81940
   6   0.00000  -0.86795  -3.50511
   6   0.00000  -2.02452  -2.72759
   7   0.00000  -2.06893  -1.39702
   6   0.00000  -0.86098  -0.71571
   6   0.00000  -0.86098   0.71571
   7   0.00000  -2.06893   1.39702
   6   0.00000  -2.02452   2.72759
   6   0.00000  -0.86795   3.50511
   6   0.00000   0.37022   2.81940
   6   0.00000   0.39208   1.42751
   1   0.00000   1.32648  -3.33220
   1   0.00000  -0.92678  -4.59265
   1   0.00000  -3.00175  -3.22737
   1   0.00000  -3.00175   3.22737
   1   0.00000  -0.92678   4.59265
   1   0.00000   1.32648   3.33220
 read in order, maxerr=  0.09 for atom  22
 final axis swaps:           1           1          -1
 final xyz swap pattern=           1
 reorder list:
   1   2   3   4   5   6   7   8   9  10  11  12  13  14  15  16  17  18  19  20
  21  22
 axis signs=           1           1          -1
  8     0.000000  2.776499  1.398813    -0.000000  2.754781  1.372009
  6     0.000000  1.704614  0.735600    -0.000000  1.702673  0.775375
  6     0.000000  1.704614 -0.735600     0.000000  1.702673 -0.775375
  8     0.000000  2.776499 -1.398813    -0.000000  2.754781 -1.372009
  6     0.000000  0.392079 -1.427507     0.000000  0.385205 -1.459043
  6     0.000000  0.370217 -2.819396     0.000000  0.343755 -2.856417
  6     0.000000 -0.867948 -3.505112     0.000000 -0.886012 -3.491527
  6     0.000000 -2.024525 -2.727592    -0.000001 -2.033799 -2.694120
  7     0.000000 -2.068933 -1.397017     0.000000 -2.016794 -1.363257
  6     0.000000 -0.860977 -0.715715     0.000000 -0.830249 -0.745661
  6     0.000000 -0.860977  0.715715     0.000000 -0.830249  0.745661
  7     0.000000 -2.068933  1.397017     0.000000 -2.016794  1.363257
  6     0.000000 -2.024525  2.727592     0.000000 -2.033799  2.694120
  6     0.000000 -0.867948  3.505112    -0.000000 -0.886012  3.491527
  6     0.000000  0.370217  2.819396    -0.000000  0.343755  2.856417
  6     0.000000  0.392079  1.427507    -0.000000  0.385205  1.459043
  1     0.000000  1.326477 -3.332199     0.000000  1.278786 -3.403726
  1     0.000000 -0.926776 -4.592653     0.000000 -0.966521 -4.571677
  1     0.000000 -3.001751 -3.227367     0.000000 -3.019009 -3.152801
  1     0.000000 -3.001751  3.227367     0.000000 -3.019009  3.152801
  1     0.000000 -0.926776  4.592653    -0.000000 -0.966521  4.571677
  1     0.000000  1.326477  3.332199    -0.000000  1.278786  3.403726
 generating redundant internal coords
         300        3600          22
 Adding extra bonds for z output only
           8           6           6           8           6           6
           6           6           7           6           6           7
           6           6           6           6           1           1
           1           1           1           1
 search for int coords
   1 str   2   1   1.260
   2 str   3   2   1.471
   3 str   4   3   1.260
   4 str   5   3   1.484
   5 str   6   5   1.392
   6 str   7   6   1.415
   7 str   8   7   1.394
   8 str   9   8   1.331
   9 str  10   5   1.441
  10 str  10   9   1.387
  11 str  11  10   1.431
  12 str  12  11   1.387
  13 str  13  12   1.331
  14 str  14  13   1.394
  15 str  15  14   1.415
  16 str  16   2   1.484
  17 str  16  11   1.441
  18 str  16  15   1.392
  19 str  17   6   1.085
  20 str  18   7   1.089
  21 str  19   8   1.098
  22 str  20  13   1.098
  23 str  21  14   1.089
  24 str  22  15   1.085
 nber stretches=          24
  25 ben   1   2   3
  26 prop tor   1   2   3   4
  27 prop tor   1   2   3   5
  28 ben   1   2  16
  29 prop tor   1   2  16  11
  30 prop tor   1   2  16  15
  31 ben   2   3   4
  32 ben   2   3   5
  33 prop tor   2   3   5   6
  34 prop tor   2   3   5  10
  35 ben   2  16  11
  36 ben   2  16  15
  37 ben   3   2  16
  38 prop tor   3   2  16  11
  39 prop tor   3   2  16  15
  40 ben   3   5   6
  41 prop tor   3   5   6   7
  42 prop tor   3   5   6  17
  43 ben   3   5  10
  44 prop tor   3   5  10   9
  45 prop tor   3   5  10  11
  46 ben   4   3   5
  47 prop tor   4   3   5   6
  48 prop tor   4   3   5  10
  49 ben   5   6   7
  50 prop tor   5   6   7   8
  51 prop tor   5   6   7  18
  52 ben   5   6  17
  53 ben   5  10   9
  54 ben   5  10  11
  55 prop tor   5  10  11  12
  56 prop tor   5  10  11  16
  57 ben   6   5  10
  58 prop tor   6   5  10   9
  59 prop tor   6   5  10  11
  60 ben   6   7   8
  61 prop tor   6   7   8   9
  62 prop tor   6   7   8  19
  63 ben   6   7  18
  64 ben   7   6  17
  65 ben   7   8   9
  66 prop tor   7   8   9  10
  67 ben   7   8  19
  68 ben   8   7  18
  69 ben   8   9  10
  70 prop tor   8   9  10   5
  71 prop tor   8   9  10  11
  72 ben   9   8  19
  73 ben   9  10  11
  74 prop tor   9  10  11  12
  75 prop tor   9  10  11  16
  76 prop tor  10   5   6   7
  77 prop tor  10   5   6  17
  78 ben  10  11  12
  79 prop tor  10  11  12  13
  80 ben  10  11  16
  81 prop tor  10  11  16   2
  82 prop tor  10  11  16  15
  83 ben  11  12  13
  84 prop tor  11  12  13  14
  85 prop tor  11  12  13  20
  86 ben  11  16  15
  87 ben  12  11  16
  88 prop tor  12  11  16   2
  89 prop tor  12  11  16  15
  90 ben  12  13  14
  91 prop tor  12  13  14  15
  92 prop tor  12  13  14  21
  93 ben  12  13  20
  94 ben  13  14  15
  95 prop tor  13  14  15  16
  96 prop tor  13  14  15  22
  97 ben  13  14  21
  98 ben  14  13  20
  99 ben  14  15  16
 100 prop tor  14  15  16   2
 101 prop tor  14  15  16  11
 102 ben  14  15  22
 103 ben  15  14  21
 104 prop tor  16   2   3   4
 105 prop tor  16   2   3   5
 106 prop tor  16  11  12  13
 107 ben  16  15  22
 108 prop tor  17   6   7   8
 109 prop tor  17   6   7  18
 110 prop tor  18   7   8   9
 111 prop tor  18   7   8  19
 112 prop tor  19   8   9  10
 113 prop tor  20  13  14  15
 114 prop tor  20  13  14  21
 115 prop tor  21  14  15  16
 116 prop tor  21  14  15  22
 117 prop tor  22  15  16   2
 118 prop tor  22  15  16  11
 nber bend=              38
 nber lin bend=           0
 nber prop tor=          56
 nber impr tor=           0
 nber tot redund int=         118
 generating redundant internal coords
         300        3600          22
 search for int coords
   1 str   2   1   1.210
   2 str   3   2   1.551
   3 str   4   3   1.210
   4 str   5   3   1.484
   5 str   6   5   1.398
   6 str   7   6   1.384
   7 str   8   7   1.398
   8 str   9   8   1.331
   9 str  10   5   1.409
  10 str  10   9   1.338
  11 str  11  10   1.491
  12 str  12  11   1.338
  13 str  13  12   1.331
  14 str  14  13   1.398
  15 str  15  14   1.384
  16 str  16   2   1.484
  17 str  16  11   1.409
  18 str  16  15   1.398
  19 str  17   6   1.083
  20 str  18   7   1.083
  21 str  19   8   1.087
  22 str  20  13   1.087
  23 str  21  14   1.083
  24 str  22  15   1.083
 nber stretches=          24
  25 ben   1   2   3
  26 prop tor   1   2   3   4
  27 prop tor   1   2   3   5
  28 ben   1   2  16
  29 prop tor   1   2  16  11
  30 prop tor   1   2  16  15
  31 ben   2   3   4
  32 ben   2   3   5
  33 prop tor   2   3   5   6
  34 prop tor   2   3   5  10
  35 ben   2  16  11
  36 ben   2  16  15
  37 ben   3   2  16
  38 prop tor   3   2  16  11
  39 prop tor   3   2  16  15
  40 ben   3   5   6
  41 prop tor   3   5   6   7
  42 prop tor   3   5   6  17
  43 ben   3   5  10
  44 prop tor   3   5  10   9
  45 prop tor   3   5  10  11
  46 ben   4   3   5
  47 prop tor   4   3   5   6
  48 prop tor   4   3   5  10
  49 ben   5   6   7
  50 prop tor   5   6   7   8
  51 prop tor   5   6   7  18
  52 ben   5   6  17
  53 ben   5  10   9
  54 ben   5  10  11
  55 prop tor   5  10  11  12
  56 prop tor   5  10  11  16
  57 ben   6   5  10
  58 prop tor   6   5  10   9
  59 prop tor   6   5  10  11
  60 ben   6   7   8
  61 prop tor   6   7   8   9
  62 prop tor   6   7   8  19
  63 ben   6   7  18
  64 ben   7   6  17
  65 ben   7   8   9
  66 prop tor   7   8   9  10
  67 ben   7   8  19
  68 ben   8   7  18
  69 ben   8   9  10
  70 prop tor   8   9  10   5
  71 prop tor   8   9  10  11
  72 ben   9   8  19
  73 ben   9  10  11
  74 prop tor   9  10  11  12
  75 prop tor   9  10  11  16
  76 prop tor  10   5   6   7
  77 prop tor  10   5   6  17
  78 ben  10  11  12
  79 prop tor  10  11  12  13
  80 ben  10  11  16
  81 prop tor  10  11  16   2
  82 prop tor  10  11  16  15
  83 ben  11  12  13
  84 prop tor  11  12  13  14
  85 prop tor  11  12  13  20
  86 ben  11  16  15
  87 ben  12  11  16
  88 prop tor  12  11  16   2
  89 prop tor  12  11  16  15
  90 ben  12  13  14
  91 prop tor  12  13  14  15
  92 prop tor  12  13  14  21
  93 ben  12  13  20
  94 ben  13  14  15
  95 prop tor  13  14  15  16
  96 prop tor  13  14  15  22
  97 ben  13  14  21
  98 ben  14  13  20
  99 ben  14  15  16
 100 prop tor  14  15  16   2
 101 prop tor  14  15  16  11
 102 ben  14  15  22
 103 ben  15  14  21
 104 prop tor  16   2   3   4
 105 prop tor  16   2   3   5
 106 prop tor  16  11  12  13
 107 ben  16  15  22
 108 prop tor  17   6   7   8
 109 prop tor  17   6   7  18
 110 prop tor  18   7   8   9
 111 prop tor  18   7   8  19
 112 prop tor  19   8   9  10
 113 prop tor  20  13  14  15
 114 prop tor  20  13  14  21
 115 prop tor  21  14  15  16
 116 prop tor  21  14  15  22
 117 prop tor  22  15  16   2
 118 prop tor  22  15  16  11
 nber bend=              38
 nber lin bend=           0
 nber prop tor=          56
 nber impr tor=           0
 nber tot redund int=         118
 Eigenvalues of G in red int coords
    Gval -0.00000000 -0.00000000 -0.00000000 -0.00000000 -0.00000000 -0.00000000 -0.00000000 -0.00000000
    Gval -0.00000000 -0.00000000 -0.00000000 -0.00000000 -0.00000000 -0.00000000 -0.00000000 -0.00000000
    Gval -0.00000000 -0.00000000 -0.00000000 -0.00000000 -0.00000000 -0.00000000 -0.00000000 -0.00000000
    Gval -0.00000000 -0.00000000 -0.00000000 -0.00000000 -0.00000000  0.00000000  0.00000000  0.00000000
    Gval  0.00000000  0.00000000  0.00000000  0.00000000  0.00000000  0.00000000  0.00000000  0.00000000
    Gval  0.00000000  0.00000000  0.00000000  0.00000000  0.00000000  0.00000000  0.00000000  0.00000000
    Gval  0.00000000  0.00000000  0.00000000  0.00000000  0.00000000  0.00000000  0.00000000  0.00000000
    Gval  0.00000000  0.00000000  0.00000701  0.00001113  0.00001201  0.00002002  0.00002155  0.00002609
    Gval  0.00003416  0.00004315  0.00004660  0.00005006  0.00005418  0.00005862  0.00006036  0.00007438
    Gval  0.00007778  0.00010079  0.00010129  0.00011065  0.00011534  0.00012558  0.00013379  0.00013440
    Gval  0.00015174  0.00019713  0.00024237  0.00024323  0.00027152  0.00028590  0.00031893  0.00036678
    Gval  0.00038046  0.00041068  0.00041987  0.00044306  0.00044882  0.00059389  0.00059390  0.00060642
    Gval  0.00060706  0.00061304  0.00064620  0.00064629  0.00068927  0.00089346  0.00091201  0.00106413
    Gval  0.00106446  0.00113490  0.00113491  0.00117435  0.00117440  0.00120594  0.00155935  0.00163063
    Gval  0.00175450  0.00214430  0.00274943  0.00276863  0.00390519  0.00390603
  7.008948385492434E-006  7.008948385492434E-006
  1.113371242894870E-005  7.008948385492434E-006
  1.200715153585259E-005  7.008948385492434E-006
  2.002459125187256E-005  7.008948385492434E-006
  2.154756938723523E-005  7.008948385492434E-006
  2.609081450954958E-005  7.008948385492434E-006
  3.416118081382001E-005  7.008948385492434E-006
  4.315344805504426E-005  7.008948385492434E-006
  4.660483535268886E-005  7.008948385492434E-006
  5.005542711306671E-005  7.008948385492434E-006
  5.417547686712253E-005  7.008948385492434E-006
  5.861880664676330E-005  7.008948385492434E-006
  6.036281814338076E-005  7.008948385492434E-006
  7.437803229637297E-005  7.008948385492434E-006
  7.777951166137587E-005  7.008948385492434E-006
  1.007898039245499E-004  7.008948385492434E-006
  1.012945221699890E-004  7.008948385492434E-006
  1.106535691366816E-004  7.008948385492434E-006
  1.153363065561165E-004  7.008948385492434E-006
  1.255792845347321E-004  7.008948385492434E-006
  1.337852155985962E-004  7.008948385492434E-006
  1.344026845652299E-004  7.008948385492434E-006
  1.517358584301936E-004  7.008948385492434E-006
  1.971311062219382E-004  7.008948385492434E-006
  2.423746727338551E-004  7.008948385492434E-006
  2.432338503616365E-004  7.008948385492434E-006
  2.715229150508130E-004  7.008948385492434E-006
  2.859040266008302E-004  7.008948385492434E-006
  3.189337871289637E-004  7.008948385492434E-006
  3.667844716300183E-004  7.008948385492434E-006
  3.804566177432150E-004  7.008948385492434E-006
  4.106770468199598E-004  7.008948385492434E-006
  4.198741917880865E-004  7.008948385492434E-006
  4.430639819780940E-004  7.008948385492434E-006
  4.488175016477954E-004  7.008948385492434E-006
  5.938900205785106E-004  7.008948385492434E-006
  5.939022141205374E-004  7.008948385492434E-006
  6.064166338605357E-004  7.008948385492434E-006
  6.070577034303048E-004  7.008948385492434E-006
  6.130424950961678E-004  7.008948385492434E-006
  6.461975177296656E-004  7.008948385492434E-006
  6.462852024156167E-004  7.008948385492434E-006
  6.892711805620690E-004  7.008948385492434E-006
  8.934577604522593E-004  7.008948385492434E-006
  9.120084555344960E-004  7.008948385492434E-006
  1.064134526060993E-003  7.008948385492434E-006
  1.064458957169263E-003  7.008948385492434E-006
  1.134904277866635E-003  7.008948385492434E-006
  1.134909087225944E-003  7.008948385492434E-006
  1.174348893980317E-003  7.008948385492434E-006
  1.174400441403926E-003  7.008948385492434E-006
  1.205936038502835E-003  7.008948385492434E-006
  1.559345526538913E-003  7.008948385492434E-006
  1.630631377784099E-003  7.008948385492434E-006
  1.754498816803027E-003  7.008948385492434E-006
  2.144303770680260E-003  7.008948385492434E-006
  2.749426539849694E-003  7.008948385492434E-006
  2.768631387948824E-003  7.008948385492434E-006
  3.905190074071528E-003  7.008948385492434E-006
  3.906027435326071E-003  7.008948385492434E-006
 cut=1d-8, nber non-redundant internal coords=          60
 Check on Eigenvals of non-red overlap matrix:
  0.00000701  0.00001113  0.00001201  0.00002002  0.00002155  0.00002609  0.00003416  0.00004315
  0.00004660  0.00005006  0.00005418  0.00005862  0.00006036  0.00007438  0.00007778  0.00010079
  0.00010129  0.00011065  0.00011534  0.00012558  0.00013379  0.00013440  0.00015174  0.00019713
  0.00024237  0.00024323  0.00027152  0.00028590  0.00031893  0.00036678  0.00038046  0.00041068
  0.00041987  0.00044306  0.00044882  0.00059389  0.00059390  0.00060642  0.00060706  0.00061304
  0.00064620  0.00064629  0.00068927  0.00089346  0.00091201  0.00106413  0.00106446  0.00113490
  0.00113491  0.00117435  0.00117440  0.00120594  0.00155935  0.00163063  0.00175450  0.00214430
  0.00274943  0.00276863  0.00390519  0.00390603
 generating redundant internal coords
         300        3600          22
 search for int coords
   1 str   2   1   1.260
   2 str   3   2   1.471
   3 str   4   3   1.260
   4 str   5   3   1.484
   5 str   6   5   1.392
   6 str   7   6   1.415
   7 str   8   7   1.394
   8 str   9   8   1.331
   9 str  10   5   1.441
  10 str  10   9   1.387
  11 str  11  10   1.431
  12 str  12  11   1.387
  13 str  13  12   1.331
  14 str  14  13   1.394
  15 str  15  14   1.415
  16 str  16   2   1.484
  17 str  16  11   1.441
  18 str  16  15   1.392
  19 str  17   6   1.085
  20 str  18   7   1.089
  21 str  19   8   1.098
  22 str  20  13   1.098
  23 str  21  14   1.089
  24 str  22  15   1.085
 nber stretches=          24
  25 ben   1   2   3
  26 prop tor   1   2   3   4
  27 prop tor   1   2   3   5
  28 ben   1   2  16
  29 prop tor   1   2  16  11
  30 prop tor   1   2  16  15
  31 ben   2   3   4
  32 ben   2   3   5
  33 prop tor   2   3   5   6
  34 prop tor   2   3   5  10
  35 ben   2  16  11
  36 ben   2  16  15
  37 ben   3   2  16
  38 prop tor   3   2  16  11
  39 prop tor   3   2  16  15
  40 ben   3   5   6
  41 prop tor   3   5   6   7
  42 prop tor   3   5   6  17
  43 ben   3   5  10
  44 prop tor   3   5  10   9
  45 prop tor   3   5  10  11
  46 ben   4   3   5
  47 prop tor   4   3   5   6
  48 prop tor   4   3   5  10
  49 ben   5   6   7
  50 prop tor   5   6   7   8
  51 prop tor   5   6   7  18
  52 ben   5   6  17
  53 ben   5  10   9
  54 ben   5  10  11
  55 prop tor   5  10  11  12
  56 prop tor   5  10  11  16
  57 ben   6   5  10
  58 prop tor   6   5  10   9
  59 prop tor   6   5  10  11
  60 ben   6   7   8
  61 prop tor   6   7   8   9
  62 prop tor   6   7   8  19
  63 ben   6   7  18
  64 ben   7   6  17
  65 ben   7   8   9
  66 prop tor   7   8   9  10
  67 ben   7   8  19
  68 ben   8   7  18
  69 ben   8   9  10
  70 prop tor   8   9  10   5
  71 prop tor   8   9  10  11
  72 ben   9   8  19
  73 ben   9  10  11
  74 prop tor   9  10  11  12
  75 prop tor   9  10  11  16
  76 prop tor  10   5   6   7
  77 prop tor  10   5   6  17
  78 ben  10  11  12
  79 prop tor  10  11  12  13
  80 ben  10  11  16
  81 prop tor  10  11  16   2
  82 prop tor  10  11  16  15
  83 ben  11  12  13
  84 prop tor  11  12  13  14
  85 prop tor  11  12  13  20
  86 ben  11  16  15
  87 ben  12  11  16
  88 prop tor  12  11  16   2
  89 prop tor  12  11  16  15
  90 ben  12  13  14
  91 prop tor  12  13  14  15
  92 prop tor  12  13  14  21
  93 ben  12  13  20
  94 ben  13  14  15
  95 prop tor  13  14  15  16
  96 prop tor  13  14  15  22
  97 ben  13  14  21
  98 ben  14  13  20
  99 ben  14  15  16
 100 prop tor  14  15  16   2
 101 prop tor  14  15  16  11
 102 ben  14  15  22
 103 ben  15  14  21
 104 prop tor  16   2   3   4
 105 prop tor  16   2   3   5
 106 prop tor  16  11  12  13
 107 ben  16  15  22
 108 prop tor  17   6   7   8
 109 prop tor  17   6   7  18
 110 prop tor  18   7   8   9
 111 prop tor  18   7   8  19
 112 prop tor  19   8   9  10
 113 prop tor  20  13  14  15
 114 prop tor  20  13  14  21
 115 prop tor  21  14  15  16
 116 prop tor  21  14  15  22
 117 prop tor  22  15  16   2
 118 prop tor  22  15  16  11
 nber bend=              38
 nber lin bend=           0
 nber prop tor=          56
 nber impr tor=           0
 nber tot redund int=         118
 Eigenvalues of G in red int coords
    Gval -0.00000000 -0.00000000 -0.00000000 -0.00000000 -0.00000000 -0.00000000 -0.00000000 -0.00000000
    Gval -0.00000000 -0.00000000 -0.00000000 -0.00000000 -0.00000000 -0.00000000 -0.00000000 -0.00000000
    Gval -0.00000000 -0.00000000 -0.00000000 -0.00000000 -0.00000000 -0.00000000 -0.00000000 -0.00000000
    Gval -0.00000000 -0.00000000 -0.00000000 -0.00000000 -0.00000000 -0.00000000 -0.00000000  0.00000000
    Gval  0.00000000  0.00000000  0.00000000  0.00000000  0.00000000  0.00000000  0.00000000  0.00000000
    Gval  0.00000000  0.00000000  0.00000000  0.00000000  0.00000000  0.00000000  0.00000000  0.00000000
    Gval  0.00000000  0.00000000  0.00000000  0.00000000  0.00000000  0.00000000  0.00000000  0.00000000
    Gval  0.00000000  0.00000000  0.00000701  0.00001102  0.00001168  0.00002014  0.00002115  0.00002559
    Gval  0.00003454  0.00004274  0.00004642  0.00004936  0.00005375  0.00005835  0.00006001  0.00007395
    Gval  0.00007763  0.00009723  0.00010051  0.00011018  0.00011436  0.00012538  0.00013098  0.00013103
    Gval  0.00014980  0.00019421  0.00024095  0.00024391  0.00026272  0.00028545  0.00032207  0.00036225
    Gval  0.00037580  0.00039585  0.00043031  0.00043525  0.00044592  0.00058189  0.00059381  0.00059382
    Gval  0.00060641  0.00060717  0.00064498  0.00064517  0.00070154  0.00090148  0.00090506  0.00105066
    Gval  0.00105099  0.00112017  0.00112019  0.00116234  0.00116240  0.00122346  0.00150868  0.00159421
    Gval  0.00171464  0.00211549  0.00269231  0.00271259  0.00387350  0.00387435
  7.005512873098932E-006  7.005512873098932E-006
  1.102430661032519E-005  7.005512873098932E-006
  1.167534606094168E-005  7.005512873098932E-006
  2.014099237107931E-005  7.005512873098932E-006
  2.115314782130341E-005  7.005512873098932E-006
  2.558595670696812E-005  7.005512873098932E-006
  3.454015336006251E-005  7.005512873098932E-006
  4.273896136223374E-005  7.005512873098932E-006
  4.642047896343942E-005  7.005512873098932E-006
  4.935693528167910E-005  7.005512873098932E-006
  5.375239571926981E-005  7.005512873098932E-006
  5.834895248076797E-005  7.005512873098932E-006
  6.001080018541227E-005  7.005512873098932E-006
  7.395343842189928E-005  7.005512873098932E-006
  7.763040998485294E-005  7.005512873098932E-006
  9.723216688756579E-005  7.005512873098932E-006
  1.005070901999943E-004  7.005512873098932E-006
  1.101772174145499E-004  7.005512873098932E-006
  1.143598592760690E-004  7.005512873098932E-006
  1.253808697916730E-004  7.005512873098932E-006
  1.309765750968478E-004  7.005512873098932E-006
  1.310278844047396E-004  7.005512873098932E-006
  1.497983501440996E-004  7.005512873098932E-006
  1.942114395727079E-004  7.005512873098932E-006
  2.409462235159071E-004  7.005512873098932E-006
  2.439119551524605E-004  7.005512873098932E-006
  2.627161710339893E-004  7.005512873098932E-006
  2.854526235658980E-004  7.005512873098932E-006
  3.220705108004844E-004  7.005512873098932E-006
  3.622530146300788E-004  7.005512873098932E-006
  3.757995201411916E-004  7.005512873098932E-006
  3.958541751916381E-004  7.005512873098932E-006
  4.303125332079658E-004  7.005512873098932E-006
  4.352511314811406E-004  7.005512873098932E-006
  4.459214261724984E-004  7.005512873098932E-006
  5.818930747893570E-004  7.005512873098932E-006
  5.938131890170069E-004  7.005512873098932E-006
  5.938201478569207E-004  7.005512873098932E-006
  6.064140611433078E-004  7.005512873098932E-006
  6.071692857471074E-004  7.005512873098932E-006
  6.449833299442004E-004  7.005512873098932E-006
  6.451727802385045E-004  7.005512873098932E-006
  7.015378229560047E-004  7.005512873098932E-006
  9.014823700755943E-004  7.005512873098932E-006
  9.050583627599987E-004  7.005512873098932E-006
  1.050656340748698E-003  7.005512873098932E-006
  1.050989178971145E-003  7.005512873098932E-006
  1.120171205236838E-003  7.005512873098932E-006
  1.120194959798411E-003  7.005512873098932E-006
  1.162342823712287E-003  7.005512873098932E-006
  1.162400500066866E-003  7.005512873098932E-006
  1.223457840171918E-003  7.005512873098932E-006
  1.508681427291031E-003  7.005512873098932E-006
  1.594213165396160E-003  7.005512873098932E-006
  1.714638248423549E-003  7.005512873098932E-006
  2.115492418544698E-003  7.005512873098932E-006
  2.692311066556064E-003  7.005512873098932E-006
  2.712590681390800E-003  7.005512873098932E-006
  3.873504073879253E-003  7.005512873098932E-006
  3.874345622582689E-003  7.005512873098932E-006
 cut=1d-8, nber non-redundant internal coords=          60
 Check on Eigenvals of non-red overlap matrix:
  0.00000701  0.00001102  0.00001168  0.00002014  0.00002115  0.00002559  0.00003454  0.00004274
  0.00004642  0.00004936  0.00005375  0.00005835  0.00006001  0.00007395  0.00007763  0.00009723
  0.00010051  0.00011018  0.00011436  0.00012538  0.00013098  0.00013103  0.00014980  0.00019421
  0.00024095  0.00024391  0.00026272  0.00028545  0.00032207  0.00036225  0.00037580  0.00039585
  0.00043031  0.00043525  0.00044592  0.00058189  0.00059381  0.00059382  0.00060641  0.00060717
  0.00064498  0.00064517  0.00070154  0.00090148  0.00090506  0.00105066  0.00105099  0.00112017
  0.00112019  0.00116234  0.00116240  0.00122346  0.00150868  0.00159421  0.00171464  0.00211549
  0.00269231  0.00271259  0.00387350  0.00387435
 d1=
  11.3  -0.9   0.0   0.0  12.8  14.0   0.0  -0.0   0.0  -0.0  -2.3  -0.0   5.5  -0.0  -7.2   0.0   0.2   0.0  -0.0  -0.1
   8.5  -0.0  -0.3   0.0   0.0  -0.0  -0.8  -2.9  -0.0   0.0  -3.0   0.0   0.0   0.0  -4.0   0.0   0.5  -0.5   0.0  -0.0
  -1.2  -0.0   0.0   0.0  -0.0  -0.6  -0.0  -0.2   0.0  -0.6  -0.0  -0.0  -0.0   0.0  -0.0   0.0  -0.0   0.0  -0.0   0.0
 d2=
  11.6  -0.3   0.0   0.0 -10.2 -15.6  -0.0   0.0  -0.0   0.0   2.2  -0.0  -5.9   0.0  -7.2  -0.0   0.2  -0.0   0.0   1.6
  -0.0   8.4  -0.5  -0.0   0.0   0.0   0.9  -3.0  -0.0  -0.0  -2.8   0.0  -0.0   4.2  -0.0   0.0   0.0   0.5   0.5   0.0
   1.2   0.0   0.0  -0.0   0.0  -0.6  -0.0  -0.2   0.0   0.6  -0.0   0.0   0.0  -0.0   0.0  -0.0   0.0  -0.0   0.0  -0.0
 curvilinear- renormalizn of Dush matrix done
  mol 1 sym            1  -> mol 2 sym            1
  mol 1 sym            2  -> mol 2 sym            2
  mol 1 sym            3  -> mol 2 sym            3
  mol 1 sym            4  -> mol 2 sym            4

 Dushinsky matrix, ncs 2 in terms of ncs 1

   mode   freq    coeff     %      %tot     of    at

   1 B2     -0.  0.0000     0.0     0.0  13 B2    319.
   2 A2     -0. -0.0000     0.0     0.0   7 A2     37.
   3 A1     -0. -0.0000     0.0     0.0  11 A1    231.
   4 B1      0.  0.0000     0.0     0.0   8 B1     84.
   5 B1      0. -0.0000     0.0     0.0   8 B1     84.
   6 B2      0. -0.0000     0.0     0.0  13 B2    319.
   7 A2     66.  0.9986    99.7    98.0   7 A2     37.
   8 B1     81. -0.9985    99.7    98.7   8 B1     84.
   9 A2    130.  0.9778    95.6    97.7   9 A2    110.
  10 B1    162.  0.9977    99.5    97.5  10 B1    154.
  11 A1    236. -0.9981    99.6    99.0  11 A1    231.
  12 A2    258.  0.9519    90.6   100.6  12 A2    258.
  13 B2    321.  0.9991    99.8    94.8  13 B2    319.
  14 A1    370.  0.9983    99.7    95.6  14 A1    360.
  15 B1    384. -0.8621    74.3    98.1  15 B1    381.
                 0.4965    24.6          19 B1    441.
  16 B2    393. -0.9981    99.6   104.0  16 B2    395.
  17 A1    416.  0.9871    97.4    96.5  17 A1    401.
  18 B1    418. -0.5002    25.0    94.2  15 B1    381.
                -0.8532    72.8          19 B1    441.
  19 A1    454.  0.9917    98.3   100.4  20 A1    458.
  20 A2    465. -0.9638    92.9   101.7  18 A2    436.
  21 A2    541. -0.9572    91.6   100.8  22 A2    572.
  22 B1    582.  0.9434    89.0    97.3  21 B1    564.
  23 B2    587. -0.9200    84.6    97.9  23 B2    623.
                 0.3800    14.4          24 B2    632.
  24 B2    622.  0.3970    15.8   100.4  23 B2    623.
                 0.9153    83.8          24 B2    632.
  25 B1    651. -0.7078    50.1    98.4  27 B1    766.
                -0.5244    27.5          30 B1    833.
                 0.3485    12.1          37 B1   1020.
  26 A1    661. -0.9904    98.1    98.8  25 A1    680.
  27 A2    675.  0.5125    26.3   100.3  28 A2    779.
                -0.7263    52.8          31 A2    833.
                 0.3393    11.5          38 A2   1022.
  28 B2    706.  0.9965    99.3    99.2  26 B2    713.
  29 A2    721.  0.8423    70.9   101.2  28 A2    779.
                 0.4334    18.8          31 A2    833.
  30 B1    740.  0.6003    36.0    98.4  27 B1    766.
                -0.7570    57.3          30 B1    833.
  31 A2    777. -0.3713    13.8   100.6  31 A2    833.
                 0.9038    81.7          32 A2    879.
  32 A1    831.  0.9875    97.5    98.9  29 A1    831.
  33 B1    846. -0.3508    12.3    98.8  30 B1    833.
                -0.8663    75.0          37 B1   1020.
  34 A2    850. -0.3642    13.3    99.2  35 A2    994.
                -0.8477    71.9          38 A2   1022.
  35 B1    890. -0.9443    89.2    97.0  34 B1    992.
  36 A2    892. -0.9249    85.6    97.2  35 A2    994.
  37 B2    923.  0.9780    95.6   101.8  33 B2    938.
  38 A1   1027. -0.8301    68.9    98.2  36 A1   1020.
                 0.4791    23.0          40 A1   1080.
  39 B2   1028. -0.9668    93.5    99.1  39 B2   1056.
  40 A1   1042. -0.3482    12.1    99.8  40 A1   1080.
                 0.9205    84.7          42 A1   1110.
  41 B2   1063. -0.5151    26.5    99.3  41 B2   1105.
                -0.8334    69.5          43 B2   1134.
  42 A1   1082. -0.4585    21.0    97.7  36 A1   1020.
                -0.7939    63.0          40 A1   1080.
  43 B2   1082. -0.8338    69.5    98.6  41 B2   1105.
                 0.5199    27.0          43 B2   1134.
  44 A1   1160.  0.8595    73.9    98.7  44 A1   1207.
                 0.3275    10.7          48 A1   1305.
  45 B2   1171.  0.8717    76.0   101.8  45 B2   1230.
  46 B2   1236. -0.8402    70.6    99.5  49 B2   1313.
  47 A1   1271. -0.9052    81.9    99.3  47 A1   1296.
  48 B2   1276.  0.8353    69.8    99.6  46 B2   1283.
  49 A1   1321. -0.6960    48.4   100.0  48 A1   1305.
                 0.3473    12.1          50 A1   1344.
                 0.4597    21.1          52 A1   1454.
  50 A1   1341.  0.3682    13.6    99.1  48 A1   1305.
                 0.8538    72.9          50 A1   1344.
  51 B2   1377. -0.4020    16.2   100.8  46 B2   1283.
                -0.6913    47.8          51 B2   1449.
                 0.4312    18.6          56 B2   1606.
  52 A1   1429. -0.4050    16.4    98.9  48 A1   1305.
                -0.8198    67.2          52 A1   1454.
                 0.3221    10.4          53 A1   1485.
  53 B2   1438. -0.6161    38.0    99.7  54 B2   1491.
                 0.3660    13.4          56 B2   1606.
                 0.5165    26.7          58 B2   1628.
                -0.3402    11.6          60 B2   1781.
  54 B2   1455. -0.3816    14.6    98.9  51 B2   1449.
                -0.6116    37.4          54 B2   1491.
                -0.5455    29.8          56 B2   1606.
                -0.3692    13.6          58 B2   1628.
  55 B2   1467. -0.4033    16.3    99.6  51 B2   1449.
                 0.3937    15.5          54 B2   1491.
                -0.4248    18.0          56 B2   1606.
                 0.5641    31.8          58 B2   1628.
                -0.4176    17.4          60 B2   1781.
  56 A1   1483. -0.8355    69.8    98.7  53 A1   1485.
  57 A1   1510. -0.8793    77.3    99.4  55 A1   1592.
  58 A1   1539.  0.6508    42.4   100.1  57 A1   1616.
                 0.6436    41.4          59 A1   1756.
  59 B2   1554. -0.4475    20.0   100.4  58 B2   1628.
                -0.8006    64.1          60 B2   1781.
  60 A1   1565.  0.6838    46.8   100.2  57 A1   1616.
                -0.7083    50.2          59 A1   1756.
  61 B2   2990.  0.9979    99.6   100.0  61 B2   3149.
  62 A1   2992.  0.9984    99.7   100.0  62 A1   3149.
  63 B2   3095.  0.8928    79.7   100.0  63 B2   3188.
                 0.4466    19.9          65 B2   3201.
  64 A1   3096.  0.8919    79.6   100.0  64 A1   3188.
                 0.4494    20.2          66 A1   3202.
  65 B2   3159. -0.4460    19.9   100.0  63 B2   3188.
                 0.8946    80.0          65 B2   3201.
  66 A1   3160. -0.4489    20.2   100.0  64 A1   3188.
                 0.8933    79.8          66 A1   3202.
 nber times 1st assigned=           1           0
 nber times 1st assigned=           2           0
 nber times 1st assigned=           3           0
 nber times 1st assigned=           4           0
 nber times 1st assigned=           5           0
 nber times 1st assigned=           6           0
 nber times 1st assigned=           8           2
 nber times 1st assigned=           9           0
 nber times 1st assigned=          10           0
 nber times 1st assigned=          12           0
 nber times 1st assigned=          13           2
 nber times 1st assigned=          14           0
 nber times 1st assigned=          15           0
 nber times 1st assigned=          16           0
 nber times 1st assigned=          17           0
 nber times 1st assigned=          18           0
 nber times 1st assigned=          19           0
 nber times 1st assigned=          20           0
 nber times 1st assigned=          21           0
 nber times 1st assigned=          22           0
 nber times 1st assigned=          23           0
 nber times 1st assigned=          24           0
 nber times 1st assigned=          25           0
 nber times 1st assigned=          26           0
 nber times 1st assigned=          27           0
 nber times 1st assigned=          28           0
 nber times 1st assigned=          29           0
 nber times 1st assigned=          30           0
 nber times 1st assigned=          31           0
 nber times 1st assigned=          32           0
 nber times 1st assigned=          33           0
 nber times 1st assigned=          34           0
 nber times 1st assigned=          35           0
 nber times 1st assigned=          36           0
 nber times 1st assigned=          37           0
 nber times 1st assigned=          38           0
 nber times 1st assigned=          39           0
 nber times 1st assigned=          40           0
 nber times 1st assigned=          41           0
 nber times 1st assigned=          42           0
 nber times 1st assigned=          43           0
 nber times 1st assigned=          44           0
 nber times 1st assigned=          45           0
 nber times 1st assigned=          46           0
 nber times 1st assigned=          47           0
 nber times 1st assigned=          48           0
 nber times 1st assigned=          49           0
 nber times 1st assigned=          50           0
 nber times 1st assigned=          51           0
 nber times 1st assigned=          52           0
 nber times 1st assigned=          53           0
 nber times 1st assigned=          54           0
 nber times 1st assigned=          55           0
 nber times 1st assigned=          56           0
 nber times 1st assigned=          57           0
 nber times 1st assigned=          58           0
 nber times 1st assigned=          59           0
 nber times 1st assigned=          60           0
 nber times 1st assigned=          61           0
 nber times 1st assigned=          62           0
 nber times 1st assigned=          63           0
 nber times 1st assigned=          64           0
 nber times 1st assigned=          65           0
 nber times 1st assigned=          66           0
 Dushinsky matrix written to .out file
 modes represented=   59.5051798126925     

 Dushinsky matrix, ncs 1 in terms of ncs 2

   mode   freq    coeff     %      %tot     of    at

   7 A2     37.  0.9986    99.7    98.8   7 A2     66.
   8 B1     84. -0.9985    99.7    99.6   8 B1     81.
   9 A2    110.  0.9778    95.6    98.2   9 A2    130.
  10 B1    154.  0.9977    99.5    97.4  10 B1    162.
  11 A1    231. -0.9981    99.6    99.6  11 A1    236.
  12 A2    258.  0.9519    90.6   101.3  12 A2    258.
  13 B2    319.  0.9991    99.8    95.4  13 B2    321.
  14 A1    360.  0.9983    99.7    96.2  14 A1    370.
  15 B1    381. -0.8621    74.3    97.6  15 B1    384.
                -0.5002    25.0          18 B1    418.
  16 B2    395. -0.9981    99.6   105.3  16 B2    393.
  17 A1    401.  0.9871    97.4    97.6  17 A1    416.
  18 A2    436. -0.9638    92.9   100.7  20 A2    465.
  19 B1    441.  0.4965    24.6    95.5  15 B1    384.
                -0.8532    72.8          18 B1    418.
  20 A1    458.  0.9917    98.3   100.2  19 A1    454.
  21 B1    564.  0.9434    89.0    96.7  22 B1    582.
  22 A2    572. -0.9572    91.6   101.2  21 A2    541.
  23 B2    623. -0.9200    84.6    99.9  23 B2    587.
                 0.3970    15.8          24 B2    622.
  24 B2    632.  0.3800    14.4    99.1  23 B2    587.
                 0.9153    83.8          24 B2    622.
  25 A1    680. -0.9904    98.1    98.4  26 A1    661.
  26 B2    713.  0.9965    99.3    98.8  28 B2    706.
  27 B1    766. -0.7078    50.1    96.0  25 B1    651.
                 0.6003    36.0          30 B1    740.
  28 A2    779.  0.5125    26.3   101.0  27 A2    675.
                 0.8423    70.9          29 A2    721.
  29 A1    831.  0.9875    97.5    98.6  32 A1    831.
  30 B1    833. -0.5244    27.5    98.9  25 B1    651.
                -0.7570    57.3          30 B1    740.
                -0.3508    12.3          33 B1    846.
  31 A2    833. -0.7263    52.8    98.6  27 A2    675.
                 0.4334    18.8          29 A2    721.
                -0.3713    13.8          31 A2    777.
  32 A2    879.  0.9038    81.7   100.5  31 A2    777.
  33 B2    938.  0.9780    95.6   101.4  37 B2    923.
  34 B1    992. -0.9443    89.2    97.7  35 B1    890.
  35 A2    994. -0.3642    13.3    97.8  34 A2    850.
                -0.9249    85.6          36 A2    892.
  36 A1   1020. -0.8301    68.9    97.4  38 A1   1027.
                -0.4585    21.0          42 A1   1082.
  37 B1   1020.  0.3485    12.1    99.0  25 B1    651.
                -0.8663    75.0          33 B1    846.
  38 A2   1022.  0.3393    11.5    99.1  27 A2    675.
                -0.8477    71.9          34 A2    850.
  39 B2   1056. -0.9668    93.5    98.8  39 B2   1028.
  40 A1   1080.  0.4791    23.0    98.8  38 A1   1027.
                -0.3482    12.1          40 A1   1042.
                -0.7939    63.0          42 A1   1082.
  41 B2   1105. -0.5151    26.5    98.5  41 B2   1063.
                -0.8338    69.5          43 B2   1082.
  42 A1   1110.  0.9205    84.7    99.2  40 A1   1042.
  43 B2   1134. -0.8334    69.5    99.9  41 B2   1063.
                 0.5199    27.0          43 B2   1082.
  44 A1   1207.  0.8595    73.9    99.1  44 A1   1160.
  45 B2   1230.  0.8717    76.0   100.9  45 B2   1171.
  46 B2   1283.  0.8353    69.8    99.5  48 B2   1276.
                -0.4020    16.2          51 B2   1377.
  47 A1   1296. -0.9052    81.9    99.3  47 A1   1271.
  48 A1   1305.  0.3275    10.7    99.6  44 A1   1160.
                -0.6960    48.4          49 A1   1321.
                 0.3682    13.6          50 A1   1341.
                -0.4050    16.4          52 A1   1429.
  49 B2   1313. -0.8402    70.6    99.5  46 B2   1236.
  50 A1   1344.  0.3473    12.1    98.9  49 A1   1321.
                 0.8538    72.9          50 A1   1341.
  51 B2   1449. -0.6913    47.8    99.1  51 B2   1377.
                -0.3816    14.6          54 B2   1455.
                -0.4033    16.3          55 B2   1467.
  52 A1   1454.  0.4597    21.1    98.9  49 A1   1321.
                -0.8198    67.2          52 A1   1429.
  53 A1   1485.  0.3221    10.4    98.7  52 A1   1429.
                -0.8355    69.8          56 A1   1483.
  54 B2   1491. -0.6161    38.0    98.9  53 B2   1438.
                -0.6116    37.4          54 B2   1455.
                 0.3937    15.5          55 B2   1467.
  55 A1   1592. -0.8793    77.3    99.2  57 A1   1510.
  56 B2   1606.  0.4312    18.6   100.1  51 B2   1377.
                 0.3660    13.4          53 B2   1438.
                -0.5455    29.8          54 B2   1455.
                -0.4248    18.0          55 B2   1467.
  57 A1   1616.  0.6508    42.4    99.7  58 A1   1539.
                 0.6838    46.8          60 A1   1565.
  58 B2   1628.  0.5165    26.7    99.8  53 B2   1438.
                -0.3692    13.6          54 B2   1455.
                 0.5641    31.8          55 B2   1467.
                -0.4475    20.0          59 B2   1554.
  59 A1   1756.  0.6436    41.4   100.1  58 A1   1539.
                -0.7083    50.2          60 A1   1565.
  60 B2   1781. -0.3402    11.6   100.4  53 B2   1438.
                -0.4176    17.4          55 B2   1467.
                -0.8006    64.1          59 B2   1554.
  61 B2   3149.  0.9979    99.6   100.0  61 B2   2990.
  62 A1   3149.  0.9984    99.7   100.0  62 A1   2992.
  63 B2   3188.  0.8928    79.7   100.0  63 B2   3095.
                -0.4460    19.9          65 B2   3159.
  64 A1   3188.  0.8919    79.6   100.0  64 A1   3096.
                -0.4489    20.2          66 A1   3160.
  65 B2   3201.  0.4466    19.9   100.0  63 B2   3095.
                 0.8946    80.0          65 B2   3159.
  66 A1   3202.  0.4494    20.2   100.0  64 A1   3096.
                 0.8933    79.8          66 A1   3160.
 nber times 1st assigned=           1           0
 nber times 1st assigned=           2           0
 nber times 1st assigned=           3           0
 nber times 1st assigned=           4           0
 nber times 1st assigned=           5           0
 nber times 1st assigned=           6           0
 nber times 1st assigned=           7           0
 nber times 1st assigned=           8           0
 nber times 1st assigned=           9           0
 nber times 1st assigned=          10           0
 nber times 1st assigned=          11           0
 nber times 1st assigned=          12           0
 nber times 1st assigned=          13           0
 nber times 1st assigned=          14           0
 nber times 1st assigned=          15           0
 nber times 1st assigned=          16           0
 nber times 1st assigned=          17           0
 nber times 1st assigned=          18           0
 nber times 1st assigned=          19           0
 nber times 1st assigned=          20           0
 nber times 1st assigned=          21           0
 nber times 1st assigned=          22           0
 nber times 1st assigned=          23           0
 nber times 1st assigned=          24           0
 nber times 1st assigned=          25           0
 nber times 1st assigned=          26           0
 nber times 1st assigned=          27           0
 nber times 1st assigned=          28           0
 nber times 1st assigned=          29           0
 nber times 1st assigned=          30           0
 nber times 1st assigned=          31           0
 nber times 1st assigned=          32           0
 nber times 1st assigned=          33           0
 nber times 1st assigned=          34           0
 nber times 1st assigned=          35           0
 nber times 1st assigned=          36           0
 nber times 1st assigned=          37           0
 nber times 1st assigned=          38           0
 nber times 1st assigned=          39           0
 nber times 1st assigned=          40           0
 nber times 1st assigned=          41           0
 nber times 1st assigned=          42           0
 nber times 1st assigned=          43           0
 nber times 1st assigned=          44           0
 nber times 1st assigned=          45           0
 nber times 1st assigned=          46           0
 nber times 1st assigned=          47           0
 nber times 1st assigned=          48           0
 nber times 1st assigned=          49           0
 nber times 1st assigned=          50           0
 nber times 1st assigned=          51           0
 nber times 1st assigned=          52           0
 nber times 1st assigned=          53           0
 nber times 1st assigned=          54           0
 nber times 1st assigned=          55           0
 nber times 1st assigned=          56           0
 nber times 1st assigned=          57           0
 nber times 1st assigned=          58           0
 nber times 1st assigned=          59           0
 nber times 1st assigned=          60           0
 nber times 1st assigned=          61           0
 nber times 1st assigned=          62           0
 nber times 1st assigned=          63           0
 nber times 1st assigned=          64           0
 nber times 1st assigned=          65           0
 nber times 1st assigned=          66           0
 modes represented=   59.5051798126925     
 p1=
   -0.   -0.    0.   -0.    0.   -0.    0.   -0.    0.   -0.  -15.   -0.   -0.    9.   -0.   -0.    6.   -0.   -0.  -11.
    0.   -0.   -0.    0.    3.   -0.    0.    0.   -1.   -0.   -0.   -0.    0.    0.    0.    8.   -0.   -0.    0.   -0.
   -0.    2.    0.    2.   -0.   -0.    1.    3.   -0.   -2.    0.    4.    4.    0.   -1.    0.    4.    0.    9.    0.
   -0.   -1.   -0.   -0.   -0.   -0.
 p2=
   -0.    0.   -0.   -0.    0.   -0.   -0.    0.   -0.    0.  -15.    0.   -0.  -10.   -0.    0.   -7.   -0.   10.   -0.
   -0.   -0.    0.    0.   -0.    3.   -0.   -0.   -0.   -0.    0.    1.   -0.   -0.    0.    0.    0.    6.   -0.   -1.
   -0.    4.    0.   -2.   -0.   -0.    0.   -0.    1.   -1.   -0.    3.    0.   -0.    0.    2.   -4.   -9.   -0.    4.
   -0.    0.   -0.    0.   -0.    0.

 Displacement: in terms of nc of 1 THEN of nc of 2

   1 B2  freq=    -0. Q= -0.000 lam=    -0.0 B2  freq=    -0. Q= -0.000 lam=    -0.0
   2 B1  freq=    -0. Q= -0.000 lam=    -0.0 A2  freq=    -0. Q= -0.000 lam=    -0.0
   3 B2  freq=     0. Q=  0.000 lam=     0.0 A1  freq=    -0. Q=  0.000 lam=    -0.0
   4 A1  freq=     0. Q= -0.000 lam=     0.0 B1  freq=     0. Q= -0.000 lam=     0.0
   5 A2  freq=     0. Q=  0.000 lam=     0.0 B1  freq=     0. Q=  0.000 lam=     0.0
   6 B1  freq=     0. Q= -0.000 lam=     0.0 B2  freq=     0. Q= -0.000 lam=     0.0
   7 A2  freq=    37. Q=  0.000 lam=     0.0 A2  freq=    66. Q=  0.000 lam=     0.0
   8 B1  freq=    84. Q= -0.000 lam=     0.0 B1  freq=    81. Q= -0.000 lam=     0.0
   9 A2  freq=   110. Q=  0.000 lam=     0.0 A2  freq=   130. Q=  0.000 lam=     0.0
  10 B1  freq=   154. Q= -0.000 lam=     0.0 B1  freq=   162. Q= -0.000 lam=     0.0
  11 A1  freq=   231. Q= -0.947 lam=   103.5 A1  freq=   236. Q= -0.947 lam=   105.7
  12 A2  freq=   258. Q= -0.000 lam=     0.0 A2  freq=   258. Q= -0.000 lam=     0.0
  13 B2  freq=   319. Q= -0.000 lam=     0.0 B2  freq=   321. Q= -0.000 lam=     0.0
  14 A1  freq=   360. Q=  0.659 lam=    78.3 A1  freq=   370. Q=  0.743 lam=   102.0
  15 B1  freq=   381. Q= -0.000 lam=     0.0 B1  freq=   384. Q= -0.000 lam=     0.0
  16 B2  freq=   395. Q= -0.000 lam=     0.0 B2  freq=   393. Q= -0.000 lam=     0.0
  17 A1  freq=   401. Q=  0.485 lam=    47.1 A1  freq=   416. Q=  0.567 lam=    67.0
  18 A2  freq=   436. Q= -0.000 lam=     0.0 B1  freq=   418. Q= -0.000 lam=     0.0
  19 B1  freq=   441. Q= -0.000 lam=     0.0 A1  freq=   454. Q= -0.901 lam=   184.3
  20 A1  freq=   458. Q= -0.978 lam=   219.3 A2  freq=   465. Q= -0.000 lam=     0.0
  21 B1  freq=   564. Q=  0.000 lam=     0.0 A2  freq=   541. Q=  0.000 lam=     0.0
  22 A2  freq=   572. Q= -0.000 lam=     0.0 B1  freq=   582. Q= -0.000 lam=     0.0
  23 B2  freq=   623. Q= -0.000 lam=     0.0 B2  freq=   587. Q= -0.000 lam=     0.0
  24 B2  freq=   632. Q=  0.000 lam=     0.0 B2  freq=   622. Q=  0.000 lam=     0.0
  25 A1  freq=   680. Q=  0.328 lam=    36.6 B1  freq=   651. Q=  0.000 lam=     0.0
  26 B2  freq=   713. Q= -0.000 lam=     0.0 A1  freq=   661. Q= -0.292 lam=    28.2
  27 B1  freq=   766. Q=  0.000 lam=     0.0 A2  freq=   675. Q=  0.000 lam=     0.0
  28 A2  freq=   779. Q=  0.000 lam=     0.0 B2  freq=   706. Q=  0.000 lam=     0.0
  29 A1  freq=   831. Q= -0.089 lam=     3.3 A2  freq=   721. Q= -0.000 lam=     0.0
  30 B1  freq=   833. Q= -0.000 lam=     0.0 B1  freq=   740. Q= -0.000 lam=     0.0
  31 A2  freq=   833. Q= -0.000 lam=     0.0 A2  freq=   777. Q= -0.000 lam=     0.0
  32 A2  freq=   879. Q= -0.000 lam=     0.0 A1  freq=   831. Q= -0.087 lam=     3.1
  33 B2  freq=   938. Q=  0.000 lam=     0.0 B1  freq=   846. Q=  0.000 lam=     0.0
  34 B1  freq=   992. Q=  0.000 lam=     0.0 A2  freq=   850. Q=  0.000 lam=     0.0
  35 A2  freq=   994. Q=  0.000 lam=     0.0 B1  freq=   890. Q=  0.000 lam=     0.0
  36 A1  freq=  1020. Q=  0.968 lam=   477.8 A2  freq=   892. Q=  0.000 lam=     0.0
  37 B1  freq=  1020. Q= -0.000 lam=     0.0 B2  freq=   923. Q= -0.000 lam=     0.0
  38 A2  freq=  1022. Q= -0.000 lam=     0.0 A1  freq=  1027. Q= -0.823 lam=   347.5
  39 B2  freq=  1056. Q=  0.000 lam=     0.0 B2  freq=  1028. Q=  0.000 lam=     0.0
  40 A1  freq=  1080. Q= -0.006 lam=     0.0 A1  freq=  1042. Q= -0.183 lam=    17.4
  41 B2  freq=  1105. Q= -0.000 lam=     0.0 B2  freq=  1063. Q= -0.000 lam=     0.0
  42 A1  freq=  1110. Q=  0.210 lam=    24.6 A1  freq=  1082. Q=  0.549 lam=   162.9
  43 B2  freq=  1134. Q=  0.000 lam=     0.0 B2  freq=  1082. Q=  0.000 lam=     0.0
  44 A1  freq=  1207. Q=  0.334 lam=    67.3 A1  freq=  1160. Q=  0.280 lam=    45.5
  45 B2  freq=  1230. Q= -0.000 lam=     0.0 B2  freq=  1171. Q= -0.000 lam=     0.0
  46 B2  freq=  1283. Q= -0.000 lam=     0.0 B2  freq=  1236. Q= -0.000 lam=     0.0
  47 A1  freq=  1296. Q=  0.182 lam=    21.4 A1  freq=  1271. Q=  0.054 lam=     1.9
  48 A1  freq=  1305. Q=  0.445 lam=   129.3 B2  freq=  1276. Q=  0.000 lam=     0.0
  49 B2  freq=  1313. Q= -0.000 lam=     0.0 A1  freq=  1321. Q= -0.079 lam=     4.2
  50 A1  freq=  1344. Q= -0.287 lam=    55.2 A1  freq=  1341. Q= -0.093 lam=     5.8
  51 B2  freq=  1449. Q=  0.000 lam=     0.0 B2  freq=  1377. Q=  0.000 lam=     0.0
  52 A1  freq=  1454. Q=  0.627 lam=   285.8 A1  freq=  1429. Q=  0.405 lam=   117.2
  53 A1  freq=  1485. Q=  0.593 lam=   261.0 B2  freq=  1438. Q=  0.000 lam=     0.0
  54 B2  freq=  1491. Q=  0.000 lam=     0.0 B2  freq=  1455. Q=  0.000 lam=     0.0
  55 A1  freq=  1592. Q= -0.118 lam=    11.2 B2  freq=  1467. Q= -0.000 lam=     0.0
  56 B2  freq=  1606. Q=  0.000 lam=     0.0 A1  freq=  1483. Q=  0.341 lam=    86.4
  57 A1  freq=  1616. Q=  0.571 lam=   263.4 A1  freq=  1510. Q=  0.678 lam=   346.6
  58 B2  freq=  1628. Q=  0.000 lam=     0.0 A1  freq=  1539. Q=  1.400 lam=  1507.7
  59 A1  freq=  1756. Q=  1.446 lam=  1836.0 B2  freq=  1554. Q=  0.000 lam=     0.0
  60 B2  freq=  1781. Q=  0.000 lam=     0.0 A1  freq=  1565. Q=  0.668 lam=   349.2
  61 B2  freq=  3149. Q= -0.000 lam=     0.0 B2  freq=  2990. Q= -0.000 lam=     0.0
  62 A1  freq=  3149. Q= -0.120 lam=    22.8 A1  freq=  2992. Q= -0.109 lam=    17.8
  63 B2  freq=  3188. Q= -0.000 lam=     0.0 B2  freq=  3095. Q= -0.000 lam=     0.0
  64 A1  freq=  3188. Q= -0.068 lam=     7.3 A1  freq=  3096. Q= -0.090 lam=    12.6
  65 B2  freq=  3201. Q= -0.000 lam=     0.0 B2  freq=  3159. Q= -0.000 lam=     0.0
  66 A1  freq=  3202. Q= -0.058 lam=     5.4 A1  freq=  3160. Q= -0.026 lam=     1.1

 total reorg energy (cm**-1, kcal/mol)=     3957.     3514.     11.31     10.05
 Nber of molecules processed=           2
