 Enter ifcurve (0=recti, 1=orth curvi, 2=apprx curvi, -1 = skip
 And atom ordering flag, 0= never changes, 1= use the first order thenceforth,
  2= deduce it (does read on fail), 3= always read it
 Reading file: 
 ./Phenyls_2_C0S0.log                                                           
                                          
  Entering Gaussian System, Link 0=g16                                          
  
 Gaussian format, type: g94, g98, g03= F F F
  #P Geom=AllCheck Guess=TCheck SCRF=Check GenChk RB3LYP/6-311G(d,p) Fre    
 energy type= B3LYP   
 Original G94 input coords:
  6  7.945362  0.000000  0.000000
  6  7.237838 -1.199101  0.000000
  6  5.847490 -1.197636  0.000000
  6  5.111112  0.000000  0.000000
  6  5.847490  1.197636  0.000000
  6  7.237838  1.199101  0.000000
  6  3.621273  0.000000  0.000000
  6  2.875277  1.189995  0.000000
  6  1.488552  1.190311  0.000000
  6  0.742911  0.000000  0.000000
  6  1.488552 -1.190311  0.000000
  6  2.875277 -1.189995  0.000000
  6 -0.742911  0.000000  0.000000
  6 -1.488552  1.190311  0.000000
  6 -2.875277  1.189995  0.000000
  6 -3.621273  0.000000  0.000000
  6 -2.875277 -1.189995  0.000000
  6 -1.488552 -1.190311  0.000000
  6 -5.111112  0.000000  0.000000
  6 -5.847490  1.197636  0.000000
  6 -7.237838  1.199101  0.000000
  6 -7.945362  0.000000  0.000000
  6 -7.237838 -1.199101  0.000000
  6 -5.847490 -1.197636  0.000000
  1  9.029385  0.000000  0.000000
  1  7.769332 -2.144477  0.000000
  1  5.338587 -2.152321  0.000000
  1  5.338587  2.152321  0.000000
  1  7.769332  2.144477  0.000000
  1  3.375536  2.148976  0.000000
  1  0.986964  2.149035  0.000000
  1  0.986964 -2.149035  0.000000
  1  3.375536 -2.148976  0.000000
  1 -0.986964  2.149035  0.000000
  1 -3.375536  2.148976  0.000000
  1 -3.375536 -2.148976  0.000000
  1 -0.986964 -2.149035  0.000000
  1 -5.338587  2.152321  0.000000
  1 -7.769332  2.144477  0.000000
  1 -9.029385  0.000000  0.000000
  1 -7.769332 -2.144477  0.000000
  1 -5.338587 -2.152321  0.000000
 nber atoms=          42
 Original standard coords:
  6  0.000000  0.000000  7.945362
  6  0.000000  1.199101  7.237838
  6  0.000000  1.197636  5.847490
  6  0.000000  0.000000  5.111112
  6  0.000000 -1.197636  5.847490
  6  0.000000 -1.199101  7.237838
  6  0.000000  0.000000  3.621273
  6  0.000000 -1.189995  2.875277
  6  0.000000 -1.190311  1.488552
  6  0.000000  0.000000  0.742911
  6  0.000000  1.190311  1.488552
  6  0.000000  1.189995  2.875277
  6  0.000000  0.000000 -0.742911
  6  0.000000 -1.190311 -1.488552
  6  0.000000 -1.189995 -2.875277
  6  0.000000  0.000000 -3.621273
  6  0.000000  1.189995 -2.875277
  6  0.000000  1.190311 -1.488552
  6  0.000000  0.000000 -5.111112
  6  0.000000 -1.197636 -5.847490
  6  0.000000 -1.199101 -7.237838
  6  0.000000  0.000000 -7.945362
  6  0.000000  1.199101 -7.237838
  6  0.000000  1.197636 -5.847490
  1  0.000000  0.000000  9.029385
  1  0.000000  2.144477  7.769332
  1  0.000000  2.152321  5.338587
  1  0.000000 -2.152321  5.338587
  1  0.000000 -2.144477  7.769332
  1  0.000000 -2.148976  3.375536
  1  0.000000 -2.149035  0.986964
  1  0.000000  2.149035  0.986964
  1  0.000000  2.148976  3.375536
  1  0.000000 -2.149035 -0.986964
  1  0.000000 -2.148976 -3.375536
  1  0.000000  2.148976 -3.375536
  1  0.000000  2.149035 -0.986964
  1  0.000000 -2.152321 -5.338587
  1  0.000000 -2.144477 -7.769332
  1  0.000000  0.000000 -9.029385
  1  0.000000  2.144477 -7.769332
  1  0.000000  2.152321 -5.338587
  SCF Done:  E(RB3LYP) =  -925.628633446     A.U. after    1 cycles             
  
          23          40 "  -925.628633446"
After scan for Atom:   Atom  AN      X      Y      Z        X      Y      Z        X      Y      Z   
After scan for Atom:   Atom  AN      X      Y      Z        X      Y      Z        X      Y      Z   
After scan for Atom:   Atom  AN      X      Y      Z        X      Y      Z        X      Y      Z   
After scan for Atom:   Atom  AN      X      Y      Z        X      Y      Z        X      Y      Z   
After scan for Atom:   Atom  AN      X      Y      Z        X      Y      Z        X      Y      Z   
After scan for Atom:   Atom  AN      X      Y      Z        X      Y      Z        X      Y      Z   
After scan for Atom:   Atom  AN      X      Y      Z        X      Y      Z        X      Y      Z   
After scan for Atom:   Atom  AN      X      Y      Z        X      Y      Z        X      Y      Z   
After scan for Atom:   Atom  AN      X      Y      Z        X      Y      Z        X      Y      Z   
After scan for Atom:   Atom  AN      X      Y      Z        X      Y      Z        X      Y      Z   
After scan for Atom:   Atom  AN      X      Y      Z        X      Y      Z        X      Y      Z   
After scan for Atom:   Atom  AN      X      Y      Z        X      Y      Z        X      Y      Z   
After scan for Atom:   Atom  AN      X      Y      Z        X      Y      Z        X      Y      Z   
After scan for Atom:   Atom  AN      X      Y      Z        X      Y      Z        X      Y      Z   
After scan for Atom:   Atom  AN      X      Y      Z        X      Y      Z        X      Y      Z   
After scan for Atom:   Atom  AN      X      Y      Z        X      Y      Z        X      Y      Z   
After scan for Atom:   Atom  AN      X      Y      Z        X      Y      Z        X      Y      Z   
After scan for Atom:   Atom  AN      X      Y      Z        X      Y      Z        X      Y      Z   
After scan for Atom:   Atom  AN      X      Y      Z        X      Y      Z        X      Y      Z   
After scan for Atom:   Atom  AN      X      Y      Z        X      Y      Z        X      Y      Z   
After scan for Atom:   Atom  AN      X      Y      Z        X      Y      Z        X      Y      Z   
After scan for Atom:   Atom  AN      X      Y      Z        X      Y      Z        X      Y      Z   
After scan for Atom:   Atom  AN      X      Y      Z        X      Y      Z        X      Y      Z   
After scan for Atom:   Atom  AN      X      Y      Z        X      Y      Z        X      Y      Z   
After scan for Atom:   Atom  AN      X      Y      Z        X      Y      Z        X      Y      Z   
After scan for Atom:   Atom  AN      X      Y      Z        X      Y      Z        X      Y      Z   
After scan for Atom:   Atom  AN      X      Y      Z        X      Y      Z        X      Y      Z   
After scan for Atom:   Atom  AN      X      Y      Z        X      Y      Z        X      Y      Z   
After scan for Atom:   Atom  AN      X      Y      Z        X      Y      Z        X      Y      Z   
After scan for Atom:   Atom  AN      X      Y      Z        X      Y      Z        X      Y      Z   
After scan for Atom:   Atom  AN      X      Y      Z        X      Y      Z        X      Y      Z   
After scan for Atom:   Atom  AN      X      Y      Z        X      Y      Z        X      Y      Z   
After scan for Atom:   Atom  AN      X      Y      Z        X      Y      Z        X      Y      Z   
After scan for Atom:   Atom  AN      X      Y      Z        X      Y      Z        X      Y      Z   
After scan for Atom:   Atom  AN      X      Y      Z        X      Y      Z        X      Y      Z   
After scan for Atom:   Atom  AN      X      Y      Z        X      Y      Z        X      Y      Z   
After scan for Atom:   Atom  AN      X      Y      Z        X      Y      Z        X      Y      Z   
After scan for Atom:   Atom  AN      X      Y      Z        X      Y      Z        X      Y      Z   
After scan for Atom:   Atom  AN      X      Y      Z        X      Y      Z        X      Y      Z   
After scan for Atom:   Atom  AN      X      Y      Z        X      Y      Z        X      Y      Z   
 g94    frequencies=
     0.0    0.0    0.0    0.0    0.0    0.0 -102.3  -80.9  -43.4   21.1
    58.1   58.9  123.2  142.2  171.6  173.5  230.0  257.4  336.1  344.4
   365.5  381.7  394.6  409.0  416.1  430.8  457.0  476.1  477.3  508.8
   552.6  556.4  626.2  630.5  633.3  653.9  669.4  687.9  692.6  697.4
   726.9  732.1  753.9  772.4  787.8  799.8  805.2  816.4  839.1  842.1
   846.3  859.4  919.1  919.3  938.0  949.2  957.3  960.4  972.7  975.0
   998.1  998.2 1011.3 1014.5 1016.1 1021.4 1022.5 1045.0 1061.0 1065.2
  1065.3 1111.6 1112.1 1155.7 1172.0 1187.3 1189.6 1208.5 1214.6 1241.7
  1250.7 1289.2 1290.1 1295.5 1295.9 1310.6 1311.6 1319.6 1348.2 1357.0
  1366.7 1374.4 1436.1 1444.5 1478.1 1486.8 1518.7 1529.1 1553.3 1574.6
  1584.1 1605.2 1623.0 1624.0 1635.5 1642.2 1650.2 1659.7 3160.1 3160.2
  3168.3 3168.4 3179.4 3180.7 3182.9 3184.8 3187.9 3189.6 3193.7 3196.1
  3201.3 3202.3 3208.4 3210.3 3211.1 3213.9
 g94    symmetries=
                                                AU     B1     AU     B3
      B2     B2     B3     B3     B2     AG     B2     B3     B1     B2
      B3     AU     B1     AU     B1     B2     B3     B3     AG     B2
      B3     B2     B1     B3     B2     B3     B2     AG     B3     B2
      B3     B2     B1     B3     B2     AU     AG     B1     AU     B3
      B1     B2     B3     B2     AU     B2     B1     B3     AU     B1
      B2     B3     B1     AG     B1     AG     B1     AG     B1     AG
      B1     B3     B2     B3     B2     B3     B2     B1     AG     B1
      AG     B1     B2     AG     B3     AG     B2     B3     B3     B2
      B2     B3     B2     B3     B2     B3     B1     AG     B1     AG
      B2     B3     B2     B3     AG     B1     AG     B1     B1     AG
      B3     B2     B1     B3     AG     B1     B2     AG     B3     B1
      B2     AG     B3     B1     B2     AG
 atomic masses:
 12.0000 12.0000 12.0000 12.0000 12.0000 12.0000 12.0000 12.0000 12.0000 12.0000
 12.0000 12.0000 12.0000 12.0000 12.0000 12.0000 12.0000 12.0000 12.0000 12.0000
 12.0000 12.0000 12.0000 12.0000  1.0078  1.0078  1.0078  1.0078  1.0078  1.0078
  1.0078  1.0078  1.0078  1.0078  1.0078  1.0078  1.0078  1.0078  1.0078  1.0078
  1.0078  1.0078
 looking for force constants in 
 ./Phenyls_2_C0S0.fchk                                                          
  
 Cartesian Force Constants                  R   N=        8001                  
  
 n3=         126        8001
 g94-fc frequencies=
  -102.3  -80.9  -43.4   -1.0   -0.6   -0.0   -0.0    0.0    7.2   21.1
    58.1   58.9  123.2  142.2  171.6  173.5  230.0  257.4  336.1  344.4
   365.5  381.7  394.6  409.0  416.2  430.8  457.0  476.1  477.3  508.8
   552.6  556.4  626.2  630.6  633.3  653.9  669.4  687.9  692.7  697.4
   726.9  732.1  753.9  772.4  787.8  799.9  805.2  816.5  839.1  842.1
   846.3  859.4  919.2  919.3  938.0  949.3  957.4  960.5  972.8  975.1
   998.1  998.2 1011.4 1014.5 1016.2 1021.4 1022.5 1045.0 1061.1 1065.2
  1065.3 1111.7 1112.1 1155.7 1172.0 1187.4 1189.6 1208.6 1214.6 1241.7
  1250.7 1289.2 1290.1 1295.5 1296.0 1310.6 1311.6 1319.7 1348.3 1357.1
  1366.8 1374.5 1436.1 1444.5 1478.2 1486.9 1518.7 1529.1 1553.3 1574.6
  1584.1 1605.2 1623.0 1624.0 1635.5 1642.2 1650.2 1659.7 3160.2 3160.2
  3168.4 3168.4 3179.4 3180.7 3182.9 3184.8 3188.0 3189.6 3193.8 3196.2
  3201.4 3202.4 3208.5 3210.3 3211.2 3214.0
 at 99999: n3=         126
 symm operator            1 :  T  nop=           1
 symm operator            2 :  T  nop=           2
 symm operator            3 :  T  nop=           3
 symm operator            4 :  T  nop=           4
 symm operator            5 :  T  nop=           5
 symm operator            6 :  T  nop=           6
 symm operator            7 :  T  nop=           7
 The point group of the molecule is D2H
 enforcing symm op           1  jsymt=          -1          -1           1
 enforcing symm op           2  jsymt=          -1           1          -1
 enforcing symm op           3  jsymt=           1          -1          -1
 enforcing symm op           4  jsymt=          -1          -1          -1
 enforcing symm op           5  jsymt=           1           1          -1
 enforcing symm op           6  jsymt=           1          -1           1
 enforcing symm op           7  jsymt=          -1           1           1
 cartesian coord symmetries:
 Ag :   21 Au :    8 B1g:    8 B1u:   21 B2g:   13 B2u:   21 B3g:   21 B3u:   13
 Symmetry rotation matrix:
   1.00000   0.00000   0.00000
   0.00000   1.00000   0.00000
   0.00000   0.00000   1.00000

 Projecting out zero-frequency components
 generating redundant internal coords
         300        3600          42
 search for int coords
   1 str   2   1   1.392
   2 str   3   2   1.390
   3 str   4   3   1.406
   4 str   5   4   1.406
   5 str   6   1   1.392
   6 str   6   5   1.390
   7 str   7   4   1.490
   8 str   8   7   1.404
   9 str   9   8   1.387
  10 str  10   9   1.405
  11 str  11  10   1.405
  12 str  12   7   1.404
  13 str  12  11   1.387
  14 str  13  10   1.486
  15 str  14  13   1.405
  16 str  15  14   1.387
  17 str  16  15   1.404
  18 str  17  16   1.404
  19 str  18  13   1.405
  20 str  18  17   1.387
  21 str  19  16   1.490
  22 str  20  19   1.406
  23 str  21  20   1.390
  24 str  22  21   1.392
  25 str  23  22   1.392
  26 str  24  19   1.406
  27 str  24  23   1.390
  28 str  25   1   1.084
  29 str  26   2   1.085
  30 str  27   3   1.082
  31 str  28   5   1.082
  32 str  29   6   1.085
  33 str  30   8   1.082
  34 str  31   9   1.082
  35 str  32  11   1.082
  36 str  33  12   1.082
  37 str  34  14   1.082
  38 str  35  15   1.082
  39 str  36  17   1.082
  40 str  37  18   1.082
  41 str  38  20   1.082
  42 str  39  21   1.085
  43 str  40  22   1.084
  44 str  41  23   1.085
  45 str  42  24   1.082
 nber stretches=          45
  46 ben   1   2   3
  47 prop tor   1   2   3   4
  48 prop tor   1   2   3  27
  49 ben   1   2  26
  50 ben   1   6   5
  51 ben   1   6  29
  52 ben   2   1   6
  53 prop tor   2   1   6   5
  54 prop tor   2   1   6  29
  55 ben   2   1  25
  56 ben   2   3   4
  57 prop tor   2   3   4   5
  58 prop tor   2   3   4   7
  59 ben   2   3  27
  60 ben   3   2  26
  61 ben   3   4   5
  62 prop tor   3   4   5   6
  63 prop tor   3   4   5  28
  64 ben   3   4   7
  65 prop tor   3   4   7   8
  66 prop tor   3   4   7  12
  67 ben   4   3  27
  68 ben   4   5   6
  69 prop tor   4   5   6   1
  70 prop tor   4   5   6  29
  71 ben   4   5  28
  72 ben   4   7   8
  73 prop tor   4   7   8   9
  74 prop tor   4   7   8  30
  75 ben   4   7  12
  76 prop tor   4   7  12  11
  77 prop tor   4   7  12  33
  78 ben   5   4   7
  79 prop tor   5   4   7   8
  80 prop tor   5   4   7  12
  81 ben   5   6  29
  82 prop tor   6   1   2   3
  83 prop tor   6   1   2  26
  84 ben   6   1  25
  85 ben   6   5  28
  86 prop tor   7   4   5   6
  87 prop tor   7   4   5  28
  88 ben   7   8   9
  89 prop tor   7   8   9  10
  90 prop tor   7   8   9  31
  91 ben   7   8  30
  92 ben   7  12  11
  93 ben   7  12  33
  94 ben   8   7  12
  95 prop tor   8   7  12  11
  96 prop tor   8   7  12  33
  97 ben   8   9  10
  98 prop tor   8   9  10  11
  99 prop tor   8   9  10  13
 100 ben   8   9  31
 101 ben   9   8  30
 102 ben   9  10  11
 103 prop tor   9  10  11  12
 104 prop tor   9  10  11  32
 105 ben   9  10  13
 106 prop tor   9  10  13  14
 107 prop tor   9  10  13  18
 108 ben  10   9  31
 109 ben  10  11  12
 110 prop tor  10  11  12   7
 111 prop tor  10  11  12  33
 112 ben  10  11  32
 113 ben  10  13  14
 114 prop tor  10  13  14  15
 115 prop tor  10  13  14  34
 116 ben  10  13  18
 117 prop tor  10  13  18  17
 118 prop tor  10  13  18  37
 119 ben  11  10  13
 120 prop tor  11  10  13  14
 121 prop tor  11  10  13  18
 122 ben  11  12  33
 123 prop tor  12   7   8   9
 124 prop tor  12   7   8  30
 125 ben  12  11  32
 126 prop tor  13  10  11  12
 127 prop tor  13  10  11  32
 128 ben  13  14  15
 129 prop tor  13  14  15  16
 130 prop tor  13  14  15  35
 131 ben  13  14  34
 132 ben  13  18  17
 133 ben  13  18  37
 134 ben  14  13  18
 135 prop tor  14  13  18  17
 136 prop tor  14  13  18  37
 137 ben  14  15  16
 138 prop tor  14  15  16  17
 139 prop tor  14  15  16  19
 140 ben  14  15  35
 141 ben  15  14  34
 142 ben  15  16  17
 143 prop tor  15  16  17  18
 144 prop tor  15  16  17  36
 145 ben  15  16  19
 146 prop tor  15  16  19  20
 147 prop tor  15  16  19  24
 148 ben  16  15  35
 149 ben  16  17  18
 150 prop tor  16  17  18  13
 151 prop tor  16  17  18  37
 152 ben  16  17  36
 153 ben  16  19  20
 154 prop tor  16  19  20  21
 155 prop tor  16  19  20  38
 156 ben  16  19  24
 157 prop tor  16  19  24  23
 158 prop tor  16  19  24  42
 159 ben  17  16  19
 160 prop tor  17  16  19  20
 161 prop tor  17  16  19  24
 162 ben  17  18  37
 163 prop tor  18  13  14  15
 164 prop tor  18  13  14  34
 165 ben  18  17  36
 166 prop tor  19  16  17  18
 167 prop tor  19  16  17  36
 168 ben  19  20  21
 169 prop tor  19  20  21  22
 170 prop tor  19  20  21  39
 171 ben  19  20  38
 172 ben  19  24  23
 173 ben  19  24  42
 174 ben  20  19  24
 175 prop tor  20  19  24  23
 176 prop tor  20  19  24  42
 177 ben  20  21  22
 178 prop tor  20  21  22  23
 179 prop tor  20  21  22  40
 180 ben  20  21  39
 181 ben  21  20  38
 182 ben  21  22  23
 183 prop tor  21  22  23  24
 184 prop tor  21  22  23  41
 185 ben  21  22  40
 186 ben  22  21  39
 187 ben  22  23  24
 188 prop tor  22  23  24  19
 189 prop tor  22  23  24  42
 190 ben  22  23  41
 191 ben  23  22  40
 192 ben  23  24  42
 193 prop tor  24  19  20  21
 194 prop tor  24  19  20  38
 195 ben  24  23  41
 196 prop tor  25   1   2   3
 197 prop tor  25   1   2  26
 198 prop tor  25   1   6   5
 199 prop tor  25   1   6  29
 200 prop tor  26   2   3   4
 201 prop tor  26   2   3  27
 202 prop tor  27   3   4   5
 203 prop tor  27   3   4   7
 204 prop tor  28   5   6   1
 205 prop tor  28   5   6  29
 206 prop tor  30   8   9  10
 207 prop tor  30   8   9  31
 208 prop tor  31   9  10  11
 209 prop tor  31   9  10  13
 210 prop tor  32  11  12   7
 211 prop tor  32  11  12  33
 212 prop tor  34  14  15  16
 213 prop tor  34  14  15  35
 214 prop tor  35  15  16  17
 215 prop tor  35  15  16  19
 216 prop tor  36  17  18  13
 217 prop tor  36  17  18  37
 218 prop tor  38  20  21  22
 219 prop tor  38  20  21  39
 220 prop tor  39  21  22  23
 221 prop tor  39  21  22  40
 222 prop tor  40  22  23  24
 223 prop tor  40  22  23  41
 224 prop tor  41  23  24  19
 225 prop tor  41  23  24  42
 nber bend=              72
 nber lin bend=           0
 nber prop tor=         108
 nber impr tor=           0
 nber tot redund int=         225
 Eigenvalues of G in red int coords
    Gval -0.00000000 -0.00000000 -0.00000000 -0.00000000 -0.00000000 -0.00000000 -0.00000000 -0.00000000
    Gval -0.00000000 -0.00000000 -0.00000000 -0.00000000 -0.00000000 -0.00000000 -0.00000000 -0.00000000
    Gval -0.00000000 -0.00000000 -0.00000000 -0.00000000 -0.00000000 -0.00000000 -0.00000000 -0.00000000
    Gval -0.00000000 -0.00000000 -0.00000000 -0.00000000 -0.00000000 -0.00000000 -0.00000000 -0.00000000
    Gval -0.00000000 -0.00000000 -0.00000000 -0.00000000 -0.00000000 -0.00000000 -0.00000000 -0.00000000
    Gval -0.00000000 -0.00000000 -0.00000000 -0.00000000 -0.00000000 -0.00000000 -0.00000000 -0.00000000
    Gval  0.00000000  0.00000000  0.00000000  0.00000000  0.00000000  0.00000000  0.00000000  0.00000000
    Gval  0.00000000  0.00000000  0.00000000  0.00000000  0.00000000  0.00000000  0.00000000  0.00000000
    Gval  0.00000000  0.00000000  0.00000000  0.00000000  0.00000000  0.00000000  0.00000000  0.00000000
    Gval  0.00000000  0.00000000  0.00000000  0.00000000  0.00000000  0.00000000  0.00000000  0.00000000
    Gval  0.00000000  0.00000000  0.00000000  0.00000000  0.00000000  0.00000000  0.00000000  0.00000000
    Gval  0.00000000  0.00000000  0.00000000  0.00000000  0.00000000  0.00000000  0.00000000  0.00000000
    Gval  0.00000000  0.00000000  0.00000000  0.00000000  0.00000000  0.00000000  0.00000000  0.00000000
    Gval  0.00000000  0.00000048  0.00000196  0.00000206  0.00000292  0.00000775  0.00000842  0.00001254
    Gval  0.00001476  0.00001535  0.00002033  0.00002812  0.00003021  0.00004281  0.00004524  0.00004591
    Gval  0.00004949  0.00005083  0.00005794  0.00005794  0.00005926  0.00005967  0.00005978  0.00006741
    Gval  0.00006987  0.00007808  0.00008264  0.00009334  0.00009894  0.00010606  0.00011693  0.00011720
    Gval  0.00011791  0.00011802  0.00012101  0.00012278  0.00012800  0.00013385  0.00016967  0.00021570
    Gval  0.00024288  0.00025879  0.00026028  0.00026436  0.00028229  0.00028806  0.00030318  0.00035850
    Gval  0.00036512  0.00038165  0.00039243  0.00039502  0.00040415  0.00041644  0.00043284  0.00053101
    Gval  0.00054134  0.00059175  0.00059308  0.00059308  0.00059342  0.00059344  0.00059648  0.00059838
    Gval  0.00059969  0.00059983  0.00060406  0.00060406  0.00062262  0.00062264  0.00062392  0.00063248
    Gval  0.00063546  0.00064429  0.00064904  0.00065132  0.00066107  0.00066109  0.00076072  0.00093187
    Gval  0.00104120  0.00104121  0.00106889  0.00107842  0.00108199  0.00110940  0.00111024  0.00111141
    Gval  0.00111248  0.00113882  0.00113883  0.00115085  0.00115151  0.00116809  0.00116894  0.00116995
    Gval  0.00117009  0.00117278  0.00117278  0.00142961  0.00143175  0.00155936  0.00166037  0.00184526
    Gval  0.00199633  0.00234484  0.00234884  0.00235923  0.00236974  0.00242309  0.00267183  0.00313595
    Gval  0.00314797  0.00356114  0.00363929  0.00366454  0.00367764  0.00370778  0.00370825  0.00406598
    Gval  0.00406600
  4.791626447113471E-007  4.791626447113471E-007
  1.961317139362100E-006  4.791626447113471E-007
  2.057105964450408E-006  4.791626447113471E-007
  2.919011800061494E-006  4.791626447113471E-007
  7.751172932192643E-006  4.791626447113471E-007
  8.418690392033950E-006  4.791626447113471E-007
  1.253743264298929E-005  4.791626447113471E-007
  1.476423846241041E-005  4.791626447113471E-007
  1.534821857237923E-005  4.791626447113471E-007
  2.033480099127958E-005  4.791626447113471E-007
  2.812440463926613E-005  4.791626447113471E-007
  3.021198438758575E-005  4.791626447113471E-007
  4.280585718851131E-005  4.791626447113471E-007
  4.524097301036714E-005  4.791626447113471E-007
  4.590670714264879E-005  4.791626447113471E-007
  4.948543417288655E-005  4.791626447113471E-007
  5.082577229438061E-005  4.791626447113471E-007
  5.793913654456697E-005  4.791626447113471E-007
  5.794384180737395E-005  4.791626447113471E-007
  5.926126842293528E-005  4.791626447113471E-007
  5.966523414386922E-005  4.791626447113471E-007
  5.978402216732064E-005  4.791626447113471E-007
  6.740857770537277E-005  4.791626447113471E-007
  6.986955257304875E-005  4.791626447113471E-007
  7.808209751723954E-005  4.791626447113471E-007
  8.264135044476183E-005  4.791626447113471E-007
  9.334142640068779E-005  4.791626447113471E-007
  9.894152865747449E-005  4.791626447113471E-007
  1.060645334652674E-004  4.791626447113471E-007
  1.169330665217542E-004  4.791626447113471E-007
  1.171967588363903E-004  4.791626447113471E-007
  1.179126886863487E-004  4.791626447113471E-007
  1.180190715028022E-004  4.791626447113471E-007
  1.210063240029218E-004  4.791626447113471E-007
  1.227804908286898E-004  4.791626447113471E-007
  1.280029783933070E-004  4.791626447113471E-007
  1.338533906119170E-004  4.791626447113471E-007
  1.696716770549584E-004  4.791626447113471E-007
  2.156960120497900E-004  4.791626447113471E-007
  2.428818844547457E-004  4.791626447113471E-007
  2.587922186314409E-004  4.791626447113471E-007
  2.602830733815216E-004  4.791626447113471E-007
  2.643593419498108E-004  4.791626447113471E-007
  2.822892000458226E-004  4.791626447113471E-007
  2.880551947612051E-004  4.791626447113471E-007
  3.031762303659071E-004  4.791626447113471E-007
  3.584953045641309E-004  4.791626447113471E-007
  3.651175416234732E-004  4.791626447113471E-007
  3.816462652097783E-004  4.791626447113471E-007
  3.924308010808248E-004  4.791626447113471E-007
  3.950158910628091E-004  4.791626447113471E-007
  4.041458373580790E-004  4.791626447113471E-007
  4.164441053298642E-004  4.791626447113471E-007
  4.328419306254255E-004  4.791626447113471E-007
  5.310072804619872E-004  4.791626447113471E-007
  5.413434597608430E-004  4.791626447113471E-007
  5.917543972044022E-004  4.791626447113471E-007
  5.930750263709357E-004  4.791626447113471E-007
  5.930750265296786E-004  4.791626447113471E-007
  5.934181355005438E-004  4.791626447113471E-007
  5.934361227598271E-004  4.791626447113471E-007
  5.964830511518206E-004  4.791626447113471E-007
  5.983829087668905E-004  4.791626447113471E-007
  5.996861115086223E-004  4.791626447113471E-007
  5.998280683981909E-004  4.791626447113471E-007
  6.040567637250391E-004  4.791626447113471E-007
  6.040573335740431E-004  4.791626447113471E-007
  6.226204788751549E-004  4.791626447113471E-007
  6.226357870619833E-004  4.791626447113471E-007
  6.239175091121750E-004  4.791626447113471E-007
  6.324781491351349E-004  4.791626447113471E-007
  6.354563528520171E-004  4.791626447113471E-007
  6.442908909408412E-004  4.791626447113471E-007
  6.490419123521853E-004  4.791626447113471E-007
  6.513154875518790E-004  4.791626447113471E-007
  6.610669614600844E-004  4.791626447113471E-007
  6.610898085620959E-004  4.791626447113471E-007
  7.607198543789727E-004  4.791626447113471E-007
  9.318693082356116E-004  4.791626447113471E-007
  1.041198742997484E-003  4.791626447113471E-007
  1.041206203635498E-003  4.791626447113471E-007
  1.068892999034312E-003  4.791626447113471E-007
  1.078419166537604E-003  4.791626447113471E-007
  1.081990397668414E-003  4.791626447113471E-007
  1.109397182380358E-003  4.791626447113471E-007
  1.110239496881199E-003  4.791626447113471E-007
  1.111411353428543E-003  4.791626447113471E-007
  1.112478685889405E-003  4.791626447113471E-007
  1.138823602599198E-003  4.791626447113471E-007
  1.138827879452127E-003  4.791626447113471E-007
  1.150850268061720E-003  4.791626447113471E-007
  1.151513936937092E-003  4.791626447113471E-007
  1.168093356773062E-003  4.791626447113471E-007
  1.168944551953167E-003  4.791626447113471E-007
  1.169947880475850E-003  4.791626447113471E-007
  1.170089527169738E-003  4.791626447113471E-007
  1.172775609751932E-003  4.791626447113471E-007
  1.172775609761739E-003  4.791626447113471E-007
  1.429613377470758E-003  4.791626447113471E-007
  1.431753555825925E-003  4.791626447113471E-007
  1.559358024981409E-003  4.791626447113471E-007
  1.660372365521125E-003  4.791626447113471E-007
  1.845264700257174E-003  4.791626447113471E-007
  1.996327202789030E-003  4.791626447113471E-007
  2.344839719020097E-003  4.791626447113471E-007
  2.348838129205672E-003  4.791626447113471E-007
  2.359232778864990E-003  4.791626447113471E-007
  2.369736717348311E-003  4.791626447113471E-007
  2.423090055767042E-003  4.791626447113471E-007
  2.671833765789618E-003  4.791626447113471E-007
  3.135954962112401E-003  4.791626447113471E-007
  3.147970992652494E-003  4.791626447113471E-007
  3.561140362010288E-003  4.791626447113471E-007
  3.639287009405440E-003  4.791626447113471E-007
  3.664543679459504E-003  4.791626447113471E-007
  3.677639606011270E-003  4.791626447113471E-007
  3.707779883567439E-003  4.791626447113471E-007
  3.708248756242799E-003  4.791626447113471E-007
  4.065984683247157E-003  4.791626447113471E-007
  4.066001391693126E-003  4.791626447113471E-007
 cut=1d-8, nber non-redundant internal coords=         120
 Check on Eigenvals of non-red overlap matrix:
  0.00000048  0.00000196  0.00000206  0.00000292  0.00000775  0.00000842  0.00001254  0.00001476
  0.00001535  0.00002033  0.00002812  0.00003021  0.00004281  0.00004524  0.00004591  0.00004949
  0.00005083  0.00005794  0.00005794  0.00005926  0.00005967  0.00005978  0.00006741  0.00006987
  0.00007808  0.00008264  0.00009334  0.00009894  0.00010606  0.00011693  0.00011720  0.00011791
  0.00011802  0.00012101  0.00012278  0.00012800  0.00013385  0.00016967  0.00021570  0.00024288
  0.00025879  0.00026028  0.00026436  0.00028229  0.00028806  0.00030318  0.00035850  0.00036512
  0.00038165  0.00039243  0.00039502  0.00040415  0.00041644  0.00043284  0.00053101  0.00054134
  0.00059175  0.00059308  0.00059308  0.00059342  0.00059344  0.00059648  0.00059838  0.00059969
  0.00059983  0.00060406  0.00060406  0.00062262  0.00062264  0.00062392  0.00063248  0.00063546
  0.00064429  0.00064904  0.00065132  0.00066107  0.00066109  0.00076072  0.00093187  0.00104120
  0.00104121  0.00106889  0.00107842  0.00108199  0.00110940  0.00111024  0.00111141  0.00111248
  0.00113882  0.00113883  0.00115085  0.00115151  0.00116809  0.00116894  0.00116995  0.00117009
  0.00117278  0.00117278  0.00142961  0.00143175  0.00155936  0.00166037  0.00184526  0.00199633
  0.00234484  0.00234884  0.00235923  0.00236974  0.00242309  0.00267183  0.00313595  0.00314797
  0.00356114  0.00363929  0.00366454  0.00367764  0.00370778  0.00370825  0.00406598  0.00406600
 Checking for correct frequencies
 recalc frequencies=
  -102.3  -80.9  -43.4   -0.0   -0.0   -0.0   -0.0    0.0    0.0   21.1
    58.1   58.9  123.2  142.2  171.6  173.5  230.0  257.4  336.1  344.4
   365.5  381.7  394.6  409.0  416.2  430.8  457.0  476.1  477.3  508.8
   552.6  556.4  626.2  630.6  633.3  653.9  669.4  687.9  692.7  697.4
   726.9  732.1  753.9  772.4  787.8  799.9  805.2  816.5  839.1  842.1
   846.3  859.4  919.2  919.3  938.0  949.3  957.4  960.5  972.8  975.1
   998.1  998.2 1011.4 1014.5 1016.2 1021.4 1022.5 1045.0 1061.1 1065.2
  1065.3 1111.7 1112.1 1155.7 1172.0 1187.4 1189.6 1208.6 1214.6 1241.7
  1250.7 1289.2 1290.1 1295.5 1296.0 1310.6 1311.6 1319.7 1348.3 1357.1
  1366.8 1374.5 1436.1 1444.5 1478.2 1486.9 1518.7 1529.1 1553.3 1574.6
  1584.1 1605.2 1623.0 1624.0 1635.5 1642.2 1650.2 1659.7 3160.2 3160.2
  3168.4 3168.4 3179.4 3180.7 3182.9 3184.8 3188.0 3189.6 3193.8 3196.2
  3201.4 3202.4 3208.5 3210.3 3211.2 3214.0
 recalc symmetries=
     Au     B1g    Au     B3g    B1u    B3u    B2u    B1g    B2g    B3u
     B2u    B2g    B3u    B3g    B2g    Ag     B2u    B3u    B1u    B2g
     B3g    Au     B1g    Au     B1g    B2u    B3u    B3g    Ag     B2g
     B3u    B2g    B1u    B3g    B2u    B3g    B2u    Ag     B3u    B2g
     B3u    B2g    B1u    B3u    B2g    Au     Ag     B1g    Au     B3u
     B1g    B2g    B3u    B2g    Au     B2g    B1g    B3u    Au     B1g
     B2g    B3u    B1u    Ag     B1u    Ag     B1u    Ag     B1u    Ag 
     B1u    B3g    B2u    B3g    B2u    B3g    B2u    B1u    Ag     B1u
     Ag     B1u    B2u    Ag     B3g    Ag     B2u    B3g    B3g    B2u
     B2u    B3g    B2u    B3g    B2u    B3g    B1u    Ag     B1u    Ag 
     B2u    B3g    B2u    B3g    Ag     B1u    Ag     B1u    B1u    Ag 
     B3g    B2u    B1u    B3g    Ag     B1u    B2u    Ag     B3g    B1u
     B2u    Ag     B3g    B1u    B2u    Ag 
 recalc freqs check OK
 Zero-point lengths:
 24.5069 27.5582 37.6348 10.0000 10.0000 10.0000 10.0000 10.0000 10.0000 53.9204
 32.5104 32.3133 22.3317 20.7880 18.9231 18.8216 16.3460 15.4525 13.5217 13.3587
 12.9668 12.6885 12.4803 12.2588 12.1526 11.9441 11.5965 11.3622 11.3477 10.9910
 10.5457 10.5102  9.9071  9.8726  9.8514  9.6946  9.5816  9.4520  9.4196  9.3876
  9.1951  9.1625  9.0288  8.9201  8.8323  8.7658  8.7366  8.6761  8.5584  8.5429
  8.5219  8.4565  8.1771  8.1765  8.0945  8.0464  8.0123  7.9994  7.9486  7.9392
  7.8471  7.8468  7.7955  7.7832  7.7770  7.7570  7.7529  7.6689  7.6107  7.5958
  7.5956  7.4355  7.4339  7.2925  7.2416  7.1946  7.1878  7.1312  7.1133  7.0353
  7.0100  6.9046  6.9021  6.8877  6.8865  6.8480  6.8454  6.8244  6.7517  6.7297
  6.7058  6.6870  6.5419  6.5227  6.4482  6.4293  6.3614  6.3398  6.2903  6.2475
  6.2287  6.1876  6.1537  6.1518  6.1301  6.1176  6.1028  6.0853  4.4100  4.4100
  4.4043  4.4043  4.3966  4.3957  4.3942  4.3929  4.3908  4.3896  4.3867  4.3851
  4.3815  4.3808  4.3767  4.3754  4.3748  4.3729
 highest evec of mol 1
  0.0000  0.0000 -0.0077
  0.0000 -0.0133 -0.0089
  0.0000 -0.0513  0.0275
  0.0000  0.0000  0.0019
  0.0000  0.0513  0.0275
  0.0000  0.0133 -0.0089
  0.0000  0.0000 -0.0043
  0.0000  0.0827 -0.0452
  0.0000  0.0800  0.0440
  0.0000  0.0000  0.0040
  0.0000 -0.0800  0.0440
  0.0000 -0.0827 -0.0452
  0.0000  0.0000 -0.0040
  0.0000  0.0800 -0.0440
  0.0000  0.0827  0.0452
  0.0000  0.0000  0.0043
  0.0000 -0.0827  0.0452
  0.0000 -0.0800 -0.0440
  0.0000  0.0000 -0.0019
  0.0000  0.0513 -0.0275
  0.0000  0.0133  0.0089
  0.0000  0.0000  0.0077
  0.0000 -0.0133  0.0089
  0.0000 -0.0513 -0.0275
  0.0000  0.0000  0.0227
  0.0000  0.0420  0.0242
  0.0000  0.1717 -0.0953
  0.0000 -0.1717 -0.0953
  0.0000 -0.0420  0.0242
  0.0000 -0.2740  0.1481
  0.0000 -0.2651 -0.1439
  0.0000  0.2651 -0.1439
  0.0000  0.2740  0.1481
  0.0000 -0.2651  0.1439
  0.0000 -0.2740 -0.1481
  0.0000  0.2740 -0.1481
  0.0000  0.2651  0.1439
  0.0000 -0.1717  0.0953
  0.0000 -0.0420 -0.0242
  0.0000  0.0000 -0.0227
  0.0000  0.0420 -0.0242
  0.0000  0.1717  0.0953
 generating redundant internal coords
         300        3600          42
 Adding extra bonds for z output only
           6           6           6           6           6           6
           6           6           6           6           6           6
           6           6           6           6           6           6
           6           6           6           6           6           6
           1           1           1           1           1           1
           1           1           1           1           1           1
           1           1           1           1           1           1
 search for int coords
   1 str   2   1   1.392
   2 str   3   2   1.390
   3 str   4   3   1.406
   4 str   5   4   1.406
   5 str   6   1   1.392
   6 str   6   5   1.390
   7 str   7   4   1.490
   8 str   8   7   1.404
   9 str   9   8   1.387
  10 str  10   9   1.405
  11 str  11  10   1.405
  12 str  12   7   1.404
  13 str  12  11   1.387
  14 str  13  10   1.486
  15 str  14  13   1.405
  16 str  15  14   1.387
  17 str  16  15   1.404
  18 str  17  16   1.404
  19 str  18  13   1.405
  20 str  18  17   1.387
  21 str  19  16   1.490
  22 str  20  19   1.406
  23 str  21  20   1.390
  24 str  22  21   1.392
  25 str  23  22   1.392
  26 str  24  19   1.406
  27 str  24  23   1.390
  28 str  25   1   1.084
  29 str  26   2   1.085
  30 str  27   3   1.082
  31 str  28   5   1.082
  32 str  29   6   1.085
  33 str  30   8   1.082
  34 str  31   9   1.082
  35 str  32  11   1.082
  36 str  33  12   1.082
  37 str  34  14   1.082
  38 str  35  15   1.082
  39 str  36  17   1.082
  40 str  37  18   1.082
  41 str  38  20   1.082
  42 str  39  21   1.085
  43 str  40  22   1.084
  44 str  41  23   1.085
  45 str  42  24   1.082
 nber stretches=          45
  46 ben   1   2   3
  47 prop tor   1   2   3   4
  48 prop tor   1   2   3  27
  49 ben   1   2  26
  50 ben   1   6   5
  51 ben   1   6  29
  52 ben   2   1   6
  53 prop tor   2   1   6   5
  54 prop tor   2   1   6  29
  55 ben   2   1  25
  56 ben   2   3   4
  57 prop tor   2   3   4   5
  58 prop tor   2   3   4   7
  59 ben   2   3  27
  60 ben   3   2  26
  61 ben   3   4   5
  62 prop tor   3   4   5   6
  63 prop tor   3   4   5  28
  64 ben   3   4   7
  65 prop tor   3   4   7   8
  66 prop tor   3   4   7  12
  67 ben   4   3  27
  68 ben   4   5   6
  69 prop tor   4   5   6   1
  70 prop tor   4   5   6  29
  71 ben   4   5  28
  72 ben   4   7   8
  73 prop tor   4   7   8   9
  74 prop tor   4   7   8  30
  75 ben   4   7  12
  76 prop tor   4   7  12  11
  77 prop tor   4   7  12  33
  78 ben   5   4   7
  79 prop tor   5   4   7   8
  80 prop tor   5   4   7  12
  81 ben   5   6  29
  82 prop tor   6   1   2   3
  83 prop tor   6   1   2  26
  84 ben   6   1  25
  85 ben   6   5  28
  86 prop tor   7   4   5   6
  87 prop tor   7   4   5  28
  88 ben   7   8   9
  89 prop tor   7   8   9  10
  90 prop tor   7   8   9  31
  91 ben   7   8  30
  92 ben   7  12  11
  93 ben   7  12  33
  94 ben   8   7  12
  95 prop tor   8   7  12  11
  96 prop tor   8   7  12  33
  97 ben   8   9  10
  98 prop tor   8   9  10  11
  99 prop tor   8   9  10  13
 100 ben   8   9  31
 101 ben   9   8  30
 102 ben   9  10  11
 103 prop tor   9  10  11  12
 104 prop tor   9  10  11  32
 105 ben   9  10  13
 106 prop tor   9  10  13  14
 107 prop tor   9  10  13  18
 108 ben  10   9  31
 109 ben  10  11  12
 110 prop tor  10  11  12   7
 111 prop tor  10  11  12  33
 112 ben  10  11  32
 113 ben  10  13  14
 114 prop tor  10  13  14  15
 115 prop tor  10  13  14  34
 116 ben  10  13  18
 117 prop tor  10  13  18  17
 118 prop tor  10  13  18  37
 119 ben  11  10  13
 120 prop tor  11  10  13  14
 121 prop tor  11  10  13  18
 122 ben  11  12  33
 123 prop tor  12   7   8   9
 124 prop tor  12   7   8  30
 125 ben  12  11  32
 126 prop tor  13  10  11  12
 127 prop tor  13  10  11  32
 128 ben  13  14  15
 129 prop tor  13  14  15  16
 130 prop tor  13  14  15  35
 131 ben  13  14  34
 132 ben  13  18  17
 133 ben  13  18  37
 134 ben  14  13  18
 135 prop tor  14  13  18  17
 136 prop tor  14  13  18  37
 137 ben  14  15  16
 138 prop tor  14  15  16  17
 139 prop tor  14  15  16  19
 140 ben  14  15  35
 141 ben  15  14  34
 142 ben  15  16  17
 143 prop tor  15  16  17  18
 144 prop tor  15  16  17  36
 145 ben  15  16  19
 146 prop tor  15  16  19  20
 147 prop tor  15  16  19  24
 148 ben  16  15  35
 149 ben  16  17  18
 150 prop tor  16  17  18  13
 151 prop tor  16  17  18  37
 152 ben  16  17  36
 153 ben  16  19  20
 154 prop tor  16  19  20  21
 155 prop tor  16  19  20  38
 156 ben  16  19  24
 157 prop tor  16  19  24  23
 158 prop tor  16  19  24  42
 159 ben  17  16  19
 160 prop tor  17  16  19  20
 161 prop tor  17  16  19  24
 162 ben  17  18  37
 163 prop tor  18  13  14  15
 164 prop tor  18  13  14  34
 165 ben  18  17  36
 166 prop tor  19  16  17  18
 167 prop tor  19  16  17  36
 168 ben  19  20  21
 169 prop tor  19  20  21  22
 170 prop tor  19  20  21  39
 171 ben  19  20  38
 172 ben  19  24  23
 173 ben  19  24  42
 174 ben  20  19  24
 175 prop tor  20  19  24  23
 176 prop tor  20  19  24  42
 177 ben  20  21  22
 178 prop tor  20  21  22  23
 179 prop tor  20  21  22  40
 180 ben  20  21  39
 181 ben  21  20  38
 182 ben  21  22  23
 183 prop tor  21  22  23  24
 184 prop tor  21  22  23  41
 185 ben  21  22  40
 186 ben  22  21  39
 187 ben  22  23  24
 188 prop tor  22  23  24  19
 189 prop tor  22  23  24  42
 190 ben  22  23  41
 191 ben  23  22  40
 192 ben  23  24  42
 193 prop tor  24  19  20  21
 194 prop tor  24  19  20  38
 195 ben  24  23  41
 196 prop tor  25   1   2   3
 197 prop tor  25   1   2  26
 198 prop tor  25   1   6   5
 199 prop tor  25   1   6  29
 200 prop tor  26   2   3   4
 201 prop tor  26   2   3  27
 202 prop tor  27   3   4   5
 203 prop tor  27   3   4   7
 204 prop tor  28   5   6   1
 205 prop tor  28   5   6  29
 206 prop tor  30   8   9  10
 207 prop tor  30   8   9  31
 208 prop tor  31   9  10  11
 209 prop tor  31   9  10  13
 210 prop tor  32  11  12   7
 211 prop tor  32  11  12  33
 212 prop tor  34  14  15  16
 213 prop tor  34  14  15  35
 214 prop tor  35  15  16  17
 215 prop tor  35  15  16  19
 216 prop tor  36  17  18  13
 217 prop tor  36  17  18  37
 218 prop tor  38  20  21  22
 219 prop tor  38  20  21  39
 220 prop tor  39  21  22  23
 221 prop tor  39  21  22  40
 222 prop tor  40  22  23  24
 223 prop tor  40  22  23  41
 224 prop tor  41  23  24  19
 225 prop tor  41  23  24  42
 nber bend=              72
 nber lin bend=           0
 nber prop tor=         108
 nber impr tor=           0
 nber tot redund int=         225
 Reading file: 
 ./Phenyls_2_C-1S0.log                                                          
                                          
  Entering Gaussian System, Link 0=g16                                          
  
 Gaussian format, type: g94, g98, g03= F F F
  #P Geom=AllCheck Guess=TCheck SCRF=Check GenChk UB3LYP/6-311G(d,p) Fre    
 energy type= B3LYP   
 Original G94 input coords:
  6  7.973373  0.000000  0.000000
  6  7.252569 -1.197832  0.000000
  6  5.865615 -1.200144  0.000000
  6  5.105387  0.000000  0.000000
  6  5.865615  1.200144  0.000000
  6  7.252569  1.197832  0.000000
  6  3.644387  0.000000  0.000000
  6  2.875163  1.194642  0.000000
  6  1.497929  1.196594  0.000000
  6  0.723678  0.000000  0.000000
  6  1.497929 -1.196594  0.000000
  6  2.875163 -1.194642  0.000000
  6 -0.723678  0.000000  0.000000
  6 -1.497929  1.196594  0.000000
  6 -2.875163  1.194642  0.000000
  6 -3.644387  0.000000  0.000000
  6 -2.875163 -1.194642  0.000000
  6 -1.497929 -1.196594  0.000000
  6 -5.105387  0.000000  0.000000
  6 -5.865615  1.200144  0.000000
  6 -7.252569  1.197832  0.000000
  6 -7.973373  0.000000  0.000000
  6 -7.252569 -1.197832  0.000000
  6 -5.865615 -1.200144  0.000000
  1  9.058150  0.000000  0.000000
  1  7.781413 -2.147092  0.000000
  1  5.358372 -2.156578  0.000000
  1  5.358372  2.156578  0.000000
  1  7.781413  2.147092  0.000000
  1  3.374602  2.156720  0.000000
  1  0.997206  2.157511  0.000000
  1  0.997206 -2.157511  0.000000
  1  3.374602 -2.156720  0.000000
  1 -0.997206  2.157511  0.000000
  1 -3.374602  2.156720  0.000000
  1 -3.374602 -2.156720  0.000000
  1 -0.997206 -2.157511  0.000000
  1 -5.358372  2.156578  0.000000
  1 -7.781413  2.147092  0.000000
  1 -9.058150  0.000000  0.000000
  1 -7.781413 -2.147092  0.000000
  1 -5.358372 -2.156578  0.000000
 nber atoms=          42
 Original standard coords:
  6  0.000000  0.000000  7.973373
  6  0.000000  1.197832  7.252569
  6  0.000000  1.200144  5.865615
  6  0.000000  0.000000  5.105387
  6  0.000000 -1.200144  5.865615
  6  0.000000 -1.197832  7.252569
  6  0.000000  0.000000  3.644387
  6  0.000000 -1.194642  2.875163
  6  0.000000 -1.196594  1.497929
  6  0.000000  0.000000  0.723678
  6  0.000000  1.196594  1.497929
  6  0.000000  1.194642  2.875163
  6  0.000000  0.000000 -0.723678
  6  0.000000 -1.196594 -1.497929
  6  0.000000 -1.194642 -2.875163
  6  0.000000  0.000000 -3.644387
  6  0.000000  1.194642 -2.875163
  6  0.000000  1.196594 -1.497929
  6  0.000000  0.000000 -5.105387
  6  0.000000 -1.200144 -5.865615
  6  0.000000 -1.197832 -7.252569
  6  0.000000  0.000000 -7.973373
  6  0.000000  1.197832 -7.252569
  6  0.000000  1.200144 -5.865615
  1  0.000000  0.000000  9.058150
  1  0.000000  2.147092  7.781413
  1  0.000000  2.156578  5.358372
  1  0.000000 -2.156578  5.358372
  1  0.000000 -2.147092  7.781413
  1  0.000000 -2.156720  3.374602
  1  0.000000 -2.157511  0.997206
  1  0.000000  2.157511  0.997206
  1  0.000000  2.156720  3.374602
  1  0.000000 -2.157511 -0.997206
  1  0.000000 -2.156720 -3.374602
  1  0.000000  2.156720 -3.374602
  1  0.000000  2.157511 -0.997206
  1  0.000000 -2.156578 -5.358372
  1  0.000000 -2.147092 -7.781413
  1  0.000000  0.000000 -9.058150
  1  0.000000  2.147092 -7.781413
  1  0.000000  2.156578 -5.358372
  SCF Done:  E(UB3LYP) =  -925.654716500     A.U. after    1 cycles             
  
          23          40 "  -925.654716500"
After scan for Atom:   Atom  AN      X      Y      Z        X      Y      Z        X      Y      Z   
After scan for Atom:   Atom  AN      X      Y      Z        X      Y      Z        X      Y      Z   
After scan for Atom:   Atom  AN      X      Y      Z        X      Y      Z        X      Y      Z   
After scan for Atom:   Atom  AN      X      Y      Z        X      Y      Z        X      Y      Z   
After scan for Atom:   Atom  AN      X      Y      Z        X      Y      Z        X      Y      Z   
After scan for Atom:   Atom  AN      X      Y      Z        X      Y      Z        X      Y      Z   
After scan for Atom:   Atom  AN      X      Y      Z        X      Y      Z        X      Y      Z   
After scan for Atom:   Atom  AN      X      Y      Z        X      Y      Z        X      Y      Z   
After scan for Atom:   Atom  AN      X      Y      Z        X      Y      Z        X      Y      Z   
After scan for Atom:   Atom  AN      X      Y      Z        X      Y      Z        X      Y      Z   
After scan for Atom:   Atom  AN      X      Y      Z        X      Y      Z        X      Y      Z   
After scan for Atom:   Atom  AN      X      Y      Z        X      Y      Z        X      Y      Z   
After scan for Atom:   Atom  AN      X      Y      Z        X      Y      Z        X      Y      Z   
After scan for Atom:   Atom  AN      X      Y      Z        X      Y      Z        X      Y      Z   
After scan for Atom:   Atom  AN      X      Y      Z        X      Y      Z        X      Y      Z   
After scan for Atom:   Atom  AN      X      Y      Z        X      Y      Z        X      Y      Z   
After scan for Atom:   Atom  AN      X      Y      Z        X      Y      Z        X      Y      Z   
After scan for Atom:   Atom  AN      X      Y      Z        X      Y      Z        X      Y      Z   
After scan for Atom:   Atom  AN      X      Y      Z        X      Y      Z        X      Y      Z   
After scan for Atom:   Atom  AN      X      Y      Z        X      Y      Z        X      Y      Z   
After scan for Atom:   Atom  AN      X      Y      Z        X      Y      Z        X      Y      Z   
After scan for Atom:   Atom  AN      X      Y      Z        X      Y      Z        X      Y      Z   
After scan for Atom:   Atom  AN      X      Y      Z        X      Y      Z        X      Y      Z   
After scan for Atom:   Atom  AN      X      Y      Z        X      Y      Z        X      Y      Z   
After scan for Atom:   Atom  AN      X      Y      Z        X      Y      Z        X      Y      Z   
After scan for Atom:   Atom  AN      X      Y      Z        X      Y      Z        X      Y      Z   
After scan for Atom:   Atom  AN      X      Y      Z        X      Y      Z        X      Y      Z   
After scan for Atom:   Atom  AN      X      Y      Z        X      Y      Z        X      Y      Z   
After scan for Atom:   Atom  AN      X      Y      Z        X      Y      Z        X      Y      Z   
After scan for Atom:   Atom  AN      X      Y      Z        X      Y      Z        X      Y      Z   
After scan for Atom:   Atom  AN      X      Y      Z        X      Y      Z        X      Y      Z   
After scan for Atom:   Atom  AN      X      Y      Z        X      Y      Z        X      Y      Z   
After scan for Atom:   Atom  AN      X      Y      Z        X      Y      Z        X      Y      Z   
After scan for Atom:   Atom  AN      X      Y      Z        X      Y      Z        X      Y      Z   
After scan for Atom:   Atom  AN      X      Y      Z        X      Y      Z        X      Y      Z   
After scan for Atom:   Atom  AN      X      Y      Z        X      Y      Z        X      Y      Z   
After scan for Atom:   Atom  AN      X      Y      Z        X      Y      Z        X      Y      Z   
After scan for Atom:   Atom  AN      X      Y      Z        X      Y      Z        X      Y      Z   
After scan for Atom:   Atom  AN      X      Y      Z        X      Y      Z        X      Y      Z   
After scan for Atom:   Atom  AN      X      Y      Z        X      Y      Z        X      Y      Z   
 g94    frequencies=
     0.0    0.0    0.0    0.0    0.0    0.0  -72.1  -58.8  -23.5   20.7
    55.4   57.3  119.7  139.6  153.1  173.1  225.2  232.5  306.1  335.4
   368.3  410.4  410.6  412.0  420.5  425.1  429.1  472.3  477.3  480.8
   518.0  518.2  612.4  628.1  631.6  649.9  665.3  682.2  682.4  686.0
   699.7  708.4  739.1  741.6  753.2  758.8  775.3  785.8  798.3  806.5
   807.3  812.7  850.5  850.6  894.0  905.5  920.2  924.7  942.5  944.2
   952.7  953.3  985.0  992.1 1000.0 1003.3 1004.8 1024.3 1034.7 1046.3
  1048.0 1099.6 1099.9 1149.3 1152.3 1170.5 1170.8 1199.2 1203.7 1223.5
  1248.1 1286.3 1287.4 1289.7 1302.8 1328.0 1328.6 1335.8 1336.7 1343.9
  1359.0 1365.0 1452.9 1461.0 1467.2 1486.6 1496.1 1513.2 1516.3 1525.3
  1533.9 1551.7 1572.2 1572.8 1606.3 1633.3 1633.4 1651.0 3130.8 3131.0
  3137.3 3137.3 3150.2 3150.5 3156.9 3157.0 3165.4 3166.4 3170.3 3173.6
  3181.7 3184.4 3188.5 3189.8 3191.3 3193.1
 g94    symmetries=
                                                AU     B1     AU     B3
      B2     B2     B3     B3     B2     AG     B2     B3     B2     B1
      B3     AU     B1     B3     AU     B1     B2     B3     AG     B2
      B2     B3     B1     B3     B2     B3     B2     AG     B3     B2
      B3     B2     B3     B1     B2     AU     B1     AG     B3     AU
      B2     B1     B3     B2     AU     B2     B1     B3     AU     B1
      B2     B3     B1     AG     B1     B1     AG     AG     B1     B1
      AG     B2     B3     B3     B2     B3     B2     B1     AG     B1
      AG     B2     B3     B2     B1     B3     AG     B2     B3     AG
      B2     B3     B3     B2     B2     B3     B1     AG     B2     B1
      B3     AG     B3     B2     B1     AG     AG     B1     B1     AG
      B3     B2     B1     B3     AG     B2     B1     AG     B3     B1
      B2     AG     B3     B2     B1     AG
 atomic masses:
 12.0000 12.0000 12.0000 12.0000 12.0000 12.0000 12.0000 12.0000 12.0000 12.0000
 12.0000 12.0000 12.0000 12.0000 12.0000 12.0000 12.0000 12.0000 12.0000 12.0000
 12.0000 12.0000 12.0000 12.0000  1.0078  1.0078  1.0078  1.0078  1.0078  1.0078
  1.0078  1.0078  1.0078  1.0078  1.0078  1.0078  1.0078  1.0078  1.0078  1.0078
  1.0078  1.0078
 looking for force constants in 
 ./Phenyls_2_C-1S0.fchk                                                         
  
 Cartesian Force Constants                  R   N=        8001                  
  
 n3=         126        8001
 g94-fc frequencies=
   -72.1  -58.8  -23.5   -0.0   -0.0    0.0    0.5    0.6    5.4   20.7
    55.4   57.3  119.7  139.6  153.1  173.1  225.2  232.5  306.1  335.4
   368.3  410.4  410.6  412.0  420.6  425.1  429.1  472.3  477.3  480.8
   518.0  518.3  612.5  628.2  631.6  649.9  665.3  682.2  682.4  686.0
   699.7  708.4  739.2  741.6  753.2  758.8  775.3  785.8  798.3  806.5
   807.3  812.7  850.5  850.6  894.0  905.6  920.2  924.7  942.5  944.2
   952.8  953.3  985.0  992.1 1000.0 1003.3 1004.8 1024.4 1034.8 1046.4
  1048.0 1099.6 1099.9 1149.3 1152.3 1170.6 1170.8 1199.3 1203.7 1223.5
  1248.1 1286.3 1287.5 1289.7 1302.8 1328.1 1328.7 1335.8 1336.8 1343.9
  1359.0 1365.0 1453.0 1461.0 1467.2 1486.6 1496.1 1513.3 1516.4 1525.3
  1533.9 1551.7 1572.2 1572.8 1606.3 1633.3 1633.5 1651.0 3130.8 3131.1
  3137.4 3137.4 3150.2 3150.6 3157.0 3157.1 3165.4 3166.4 3170.3 3173.7
  3181.8 3184.4 3188.6 3189.9 3191.4 3193.2
 at 99999: n3=         126
 symm operator            1 :  T  nop=           1
 symm operator            2 :  T  nop=           2
 symm operator            3 :  T  nop=           3
 symm operator            4 :  T  nop=           4
 symm operator            5 :  T  nop=           5
 symm operator            6 :  T  nop=           6
 symm operator            7 :  T  nop=           7
 The point group of the molecule is D2H
 enforcing symm op           1  jsymt=          -1          -1           1
 enforcing symm op           2  jsymt=          -1           1          -1
 enforcing symm op           3  jsymt=           1          -1          -1
 enforcing symm op           4  jsymt=          -1          -1          -1
 enforcing symm op           5  jsymt=           1           1          -1
 enforcing symm op           6  jsymt=           1          -1           1
 enforcing symm op           7  jsymt=          -1           1           1
 cartesian coord symmetries:
 Ag :   21 Au :    8 B1g:    8 B1u:   21 B2g:   13 B2u:   21 B3g:   21 B3u:   13
 Symmetry rotation matrix:
   1.00000   0.00000   0.00000
   0.00000   1.00000   0.00000
   0.00000   0.00000   1.00000

 Projecting out zero-frequency components
 generating redundant internal coords
         300        3600          42
 search for int coords
   1 str   2   1   1.398
   2 str   3   2   1.387
   3 str   4   3   1.421
   4 str   5   4   1.421
   5 str   6   1   1.398
   6 str   6   5   1.387
   7 str   7   4   1.461
   8 str   8   7   1.421
   9 str   9   8   1.377
  10 str  10   9   1.425
  11 str  11  10   1.425
  12 str  12   7   1.421
  13 str  12  11   1.377
  14 str  13  10   1.447
  15 str  14  13   1.425
  16 str  15  14   1.377
  17 str  16  15   1.421
  18 str  17  16   1.421
  19 str  18  13   1.425
  20 str  18  17   1.377
  21 str  19  16   1.461
  22 str  20  19   1.421
  23 str  21  20   1.387
  24 str  22  21   1.398
  25 str  23  22   1.398
  26 str  24  19   1.421
  27 str  24  23   1.387
  28 str  25   1   1.085
  29 str  26   2   1.087
  30 str  27   3   1.083
  31 str  28   5   1.083
  32 str  29   6   1.087
  33 str  30   8   1.084
  34 str  31   9   1.084
  35 str  32  11   1.084
  36 str  33  12   1.084
  37 str  34  14   1.084
  38 str  35  15   1.084
  39 str  36  17   1.084
  40 str  37  18   1.084
  41 str  38  20   1.083
  42 str  39  21   1.087
  43 str  40  22   1.085
  44 str  41  23   1.087
  45 str  42  24   1.083
 nber stretches=          45
  46 ben   1   2   3
  47 prop tor   1   2   3   4
  48 prop tor   1   2   3  27
  49 ben   1   2  26
  50 ben   1   6   5
  51 ben   1   6  29
  52 ben   2   1   6
  53 prop tor   2   1   6   5
  54 prop tor   2   1   6  29
  55 ben   2   1  25
  56 ben   2   3   4
  57 prop tor   2   3   4   5
  58 prop tor   2   3   4   7
  59 ben   2   3  27
  60 ben   3   2  26
  61 ben   3   4   5
  62 prop tor   3   4   5   6
  63 prop tor   3   4   5  28
  64 ben   3   4   7
  65 prop tor   3   4   7   8
  66 prop tor   3   4   7  12
  67 ben   4   3  27
  68 ben   4   5   6
  69 prop tor   4   5   6   1
  70 prop tor   4   5   6  29
  71 ben   4   5  28
  72 ben   4   7   8
  73 prop tor   4   7   8   9
  74 prop tor   4   7   8  30
  75 ben   4   7  12
  76 prop tor   4   7  12  11
  77 prop tor   4   7  12  33
  78 ben   5   4   7
  79 prop tor   5   4   7   8
  80 prop tor   5   4   7  12
  81 ben   5   6  29
  82 prop tor   6   1   2   3
  83 prop tor   6   1   2  26
  84 ben   6   1  25
  85 ben   6   5  28
  86 prop tor   7   4   5   6
  87 prop tor   7   4   5  28
  88 ben   7   8   9
  89 prop tor   7   8   9  10
  90 prop tor   7   8   9  31
  91 ben   7   8  30
  92 ben   7  12  11
  93 ben   7  12  33
  94 ben   8   7  12
  95 prop tor   8   7  12  11
  96 prop tor   8   7  12  33
  97 ben   8   9  10
  98 prop tor   8   9  10  11
  99 prop tor   8   9  10  13
 100 ben   8   9  31
 101 ben   9   8  30
 102 ben   9  10  11
 103 prop tor   9  10  11  12
 104 prop tor   9  10  11  32
 105 ben   9  10  13
 106 prop tor   9  10  13  14
 107 prop tor   9  10  13  18
 108 ben  10   9  31
 109 ben  10  11  12
 110 prop tor  10  11  12   7
 111 prop tor  10  11  12  33
 112 ben  10  11  32
 113 ben  10  13  14
 114 prop tor  10  13  14  15
 115 prop tor  10  13  14  34
 116 ben  10  13  18
 117 prop tor  10  13  18  17
 118 prop tor  10  13  18  37
 119 ben  11  10  13
 120 prop tor  11  10  13  14
 121 prop tor  11  10  13  18
 122 ben  11  12  33
 123 prop tor  12   7   8   9
 124 prop tor  12   7   8  30
 125 ben  12  11  32
 126 prop tor  13  10  11  12
 127 prop tor  13  10  11  32
 128 ben  13  14  15
 129 prop tor  13  14  15  16
 130 prop tor  13  14  15  35
 131 ben  13  14  34
 132 ben  13  18  17
 133 ben  13  18  37
 134 ben  14  13  18
 135 prop tor  14  13  18  17
 136 prop tor  14  13  18  37
 137 ben  14  15  16
 138 prop tor  14  15  16  17
 139 prop tor  14  15  16  19
 140 ben  14  15  35
 141 ben  15  14  34
 142 ben  15  16  17
 143 prop tor  15  16  17  18
 144 prop tor  15  16  17  36
 145 ben  15  16  19
 146 prop tor  15  16  19  20
 147 prop tor  15  16  19  24
 148 ben  16  15  35
 149 ben  16  17  18
 150 prop tor  16  17  18  13
 151 prop tor  16  17  18  37
 152 ben  16  17  36
 153 ben  16  19  20
 154 prop tor  16  19  20  21
 155 prop tor  16  19  20  38
 156 ben  16  19  24
 157 prop tor  16  19  24  23
 158 prop tor  16  19  24  42
 159 ben  17  16  19
 160 prop tor  17  16  19  20
 161 prop tor  17  16  19  24
 162 ben  17  18  37
 163 prop tor  18  13  14  15
 164 prop tor  18  13  14  34
 165 ben  18  17  36
 166 prop tor  19  16  17  18
 167 prop tor  19  16  17  36
 168 ben  19  20  21
 169 prop tor  19  20  21  22
 170 prop tor  19  20  21  39
 171 ben  19  20  38
 172 ben  19  24  23
 173 ben  19  24  42
 174 ben  20  19  24
 175 prop tor  20  19  24  23
 176 prop tor  20  19  24  42
 177 ben  20  21  22
 178 prop tor  20  21  22  23
 179 prop tor  20  21  22  40
 180 ben  20  21  39
 181 ben  21  20  38
 182 ben  21  22  23
 183 prop tor  21  22  23  24
 184 prop tor  21  22  23  41
 185 ben  21  22  40
 186 ben  22  21  39
 187 ben  22  23  24
 188 prop tor  22  23  24  19
 189 prop tor  22  23  24  42
 190 ben  22  23  41
 191 ben  23  22  40
 192 ben  23  24  42
 193 prop tor  24  19  20  21
 194 prop tor  24  19  20  38
 195 ben  24  23  41
 196 prop tor  25   1   2   3
 197 prop tor  25   1   2  26
 198 prop tor  25   1   6   5
 199 prop tor  25   1   6  29
 200 prop tor  26   2   3   4
 201 prop tor  26   2   3  27
 202 prop tor  27   3   4   5
 203 prop tor  27   3   4   7
 204 prop tor  28   5   6   1
 205 prop tor  28   5   6  29
 206 prop tor  30   8   9  10
 207 prop tor  30   8   9  31
 208 prop tor  31   9  10  11
 209 prop tor  31   9  10  13
 210 prop tor  32  11  12   7
 211 prop tor  32  11  12  33
 212 prop tor  34  14  15  16
 213 prop tor  34  14  15  35
 214 prop tor  35  15  16  17
 215 prop tor  35  15  16  19
 216 prop tor  36  17  18  13
 217 prop tor  36  17  18  37
 218 prop tor  38  20  21  22
 219 prop tor  38  20  21  39
 220 prop tor  39  21  22  23
 221 prop tor  39  21  22  40
 222 prop tor  40  22  23  24
 223 prop tor  40  22  23  41
 224 prop tor  41  23  24  19
 225 prop tor  41  23  24  42
 nber bend=              72
 nber lin bend=           0
 nber prop tor=         108
 nber impr tor=           0
 nber tot redund int=         225
 Eigenvalues of G in red int coords
    Gval -0.00000000 -0.00000000 -0.00000000 -0.00000000 -0.00000000 -0.00000000 -0.00000000 -0.00000000
    Gval -0.00000000 -0.00000000 -0.00000000 -0.00000000 -0.00000000 -0.00000000 -0.00000000 -0.00000000
    Gval -0.00000000 -0.00000000 -0.00000000 -0.00000000 -0.00000000 -0.00000000 -0.00000000 -0.00000000
    Gval -0.00000000 -0.00000000 -0.00000000 -0.00000000 -0.00000000 -0.00000000 -0.00000000 -0.00000000
    Gval -0.00000000 -0.00000000 -0.00000000 -0.00000000 -0.00000000 -0.00000000 -0.00000000 -0.00000000
    Gval -0.00000000 -0.00000000 -0.00000000 -0.00000000 -0.00000000 -0.00000000 -0.00000000 -0.00000000
    Gval -0.00000000 -0.00000000 -0.00000000 -0.00000000 -0.00000000 -0.00000000 -0.00000000  0.00000000
    Gval  0.00000000  0.00000000  0.00000000  0.00000000  0.00000000  0.00000000  0.00000000  0.00000000
    Gval  0.00000000  0.00000000  0.00000000  0.00000000  0.00000000  0.00000000  0.00000000  0.00000000
    Gval  0.00000000  0.00000000  0.00000000  0.00000000  0.00000000  0.00000000  0.00000000  0.00000000
    Gval  0.00000000  0.00000000  0.00000000  0.00000000  0.00000000  0.00000000  0.00000000  0.00000000
    Gval  0.00000000  0.00000000  0.00000000  0.00000000  0.00000000  0.00000000  0.00000000  0.00000000
    Gval  0.00000000  0.00000000  0.00000000  0.00000000  0.00000000  0.00000000  0.00000000  0.00000000
    Gval  0.00000000  0.00000048  0.00000199  0.00000204  0.00000291  0.00000771  0.00000837  0.00001258
    Gval  0.00001498  0.00001526  0.00002051  0.00002815  0.00003017  0.00004283  0.00004516  0.00004597
    Gval  0.00004966  0.00005102  0.00005761  0.00005797  0.00005940  0.00005981  0.00006005  0.00006733
    Gval  0.00006979  0.00007804  0.00008210  0.00009360  0.00009927  0.00010645  0.00011675  0.00011706
    Gval  0.00011874  0.00011909  0.00012090  0.00012221  0.00012921  0.00013334  0.00017152  0.00021688
    Gval  0.00024463  0.00025593  0.00025994  0.00026099  0.00027766  0.00028879  0.00029804  0.00035510
    Gval  0.00036157  0.00037752  0.00038776  0.00040289  0.00040727  0.00042273  0.00043973  0.00054503
    Gval  0.00055421  0.00059308  0.00059308  0.00059337  0.00059339  0.00059639  0.00059840  0.00059942
    Gval  0.00059954  0.00060165  0.00060373  0.00060373  0.00060737  0.00062267  0.00062413  0.00063604
    Gval  0.00064554  0.00064782  0.00064856  0.00064993  0.00066011  0.00066013  0.00076714  0.00092974
    Gval  0.00103837  0.00103838  0.00106826  0.00107332  0.00107700  0.00110247  0.00110401  0.00110599
    Gval  0.00110622  0.00113707  0.00113708  0.00114697  0.00114765  0.00116295  0.00116385  0.00116555
    Gval  0.00116559  0.00116987  0.00116987  0.00142466  0.00142741  0.00154555  0.00164957  0.00183781
    Gval  0.00200384  0.00231660  0.00232447  0.00233339  0.00233980  0.00241350  0.00267422  0.00313409
    Gval  0.00314913  0.00353613  0.00362059  0.00362747  0.00364065  0.00367549  0.00367586  0.00405734
    Gval  0.00405736
  4.764343307690019E-007  4.764343307690019E-007
  1.994922860109823E-006  4.764343307690019E-007
  2.043045602219418E-006  4.764343307690019E-007
  2.907760518490727E-006  4.764343307690019E-007
  7.706627277658744E-006  4.764343307690019E-007
  8.366299011280716E-006  4.764343307690019E-007
  1.257741082664264E-005  4.764343307690019E-007
  1.497751400404931E-005  4.764343307690019E-007
  1.525863337617359E-005  4.764343307690019E-007
  2.051083903461755E-005  4.764343307690019E-007
  2.814553490430232E-005  4.764343307690019E-007
  3.016997627557484E-005  4.764343307690019E-007
  4.282805720965062E-005  4.764343307690019E-007
  4.516497252460759E-005  4.764343307690019E-007
  4.597028971085969E-005  4.764343307690019E-007
  4.966076832380402E-005  4.764343307690019E-007
  5.101756665371039E-005  4.764343307690019E-007
  5.760599050377332E-005  4.764343307690019E-007
  5.797419460980023E-005  4.764343307690019E-007
  5.940154508648978E-005  4.764343307690019E-007
  5.980752941973188E-005  4.764343307690019E-007
  6.004932523924444E-005  4.764343307690019E-007
  6.733096234347339E-005  4.764343307690019E-007
  6.978593753177736E-005  4.764343307690019E-007
  7.804233140186513E-005  4.764343307690019E-007
  8.210465992979930E-005  4.764343307690019E-007
  9.359790978051814E-005  4.764343307690019E-007
  9.926784626169253E-005  4.764343307690019E-007
  1.064526653847003E-004  4.764343307690019E-007
  1.167473237025643E-004  4.764343307690019E-007
  1.170596086777546E-004  4.764343307690019E-007
  1.187376342000909E-004  4.764343307690019E-007
  1.190858363980122E-004  4.764343307690019E-007
  1.208966746527143E-004  4.764343307690019E-007
  1.222113405023386E-004  4.764343307690019E-007
  1.292112165500006E-004  4.764343307690019E-007
  1.333406015927872E-004  4.764343307690019E-007
  1.715173972297824E-004  4.764343307690019E-007
  2.168798207793507E-004  4.764343307690019E-007
  2.446317887367440E-004  4.764343307690019E-007
  2.559265083052427E-004  4.764343307690019E-007
  2.599428002745981E-004  4.764343307690019E-007
  2.609948523228073E-004  4.764343307690019E-007
  2.776635553590466E-004  4.764343307690019E-007
  2.887910362360890E-004  4.764343307690019E-007
  2.980405837998537E-004  4.764343307690019E-007
  3.550980364153166E-004  4.764343307690019E-007
  3.615681582619033E-004  4.764343307690019E-007
  3.775240357567805E-004  4.764343307690019E-007
  3.877637626854134E-004  4.764343307690019E-007
  4.028922053110394E-004  4.764343307690019E-007
  4.072671758134391E-004  4.764343307690019E-007
  4.227341367780365E-004  4.764343307690019E-007
  4.397256648624415E-004  4.764343307690019E-007
  5.450292384900877E-004  4.764343307690019E-007
  5.542118572704135E-004  4.764343307690019E-007
  5.930793875238301E-004  4.764343307690019E-007
  5.930793876708565E-004  4.764343307690019E-007
  5.933702111390853E-004  4.764343307690019E-007
  5.933907538904211E-004  4.764343307690019E-007
  5.963921914134781E-004  4.764343307690019E-007
  5.983997276573990E-004  4.764343307690019E-007
  5.994165499282398E-004  4.764343307690019E-007
  5.995444110346391E-004  4.764343307690019E-007
  6.016540905665323E-004  4.764343307690019E-007
  6.037255496895598E-004  4.764343307690019E-007
  6.037260106392300E-004  4.764343307690019E-007
  6.073687638836646E-004  4.764343307690019E-007
  6.226671658384486E-004  4.764343307690019E-007
  6.241290422597096E-004  4.764343307690019E-007
  6.360435493898696E-004  4.764343307690019E-007
  6.455352538222963E-004  4.764343307690019E-007
  6.478165421641722E-004  4.764343307690019E-007
  6.485558523394920E-004  4.764343307690019E-007
  6.499291754297304E-004  4.764343307690019E-007
  6.601138727281376E-004  4.764343307690019E-007
  6.601316406363406E-004  4.764343307690019E-007
  7.671427359494200E-004  4.764343307690019E-007
  9.297355084877277E-004  4.764343307690019E-007
  1.038368539771192E-003  4.764343307690019E-007
  1.038378024055309E-003  4.764343307690019E-007
  1.068257459995869E-003  4.764343307690019E-007
  1.073317694781053E-003  4.764343307690019E-007
  1.077001598438846E-003  4.764343307690019E-007
  1.102465926994063E-003  4.764343307690019E-007
  1.104012316796908E-003  4.764343307690019E-007
  1.105988612185611E-003  4.764343307690019E-007
  1.106218345818795E-003  4.764343307690019E-007
  1.137072024568579E-003  4.764343307690019E-007
  1.137077086715861E-003  4.764343307690019E-007
  1.146965664327153E-003  4.764343307690019E-007
  1.147647509380513E-003  4.764343307690019E-007
  1.162951323209801E-003  4.764343307690019E-007
  1.163849536105272E-003  4.764343307690019E-007
  1.165545672629445E-003  4.764343307690019E-007
  1.165592370481073E-003  4.764343307690019E-007
  1.169866781805713E-003  4.764343307690019E-007
  1.169866781843536E-003  4.764343307690019E-007
  1.424657002339904E-003  4.764343307690019E-007
  1.427406385633261E-003  4.764343307690019E-007
  1.545551667189185E-003  4.764343307690019E-007
  1.649570256192015E-003  4.764343307690019E-007
  1.837805387074121E-003  4.764343307690019E-007
  2.003844709278614E-003  4.764343307690019E-007
  2.316602806469474E-003  4.764343307690019E-007
  2.324474730603745E-003  4.764343307690019E-007
  2.333386996681709E-003  4.764343307690019E-007
  2.339800134350576E-003  4.764343307690019E-007
  2.413499299757703E-003  4.764343307690019E-007
  2.674215339105486E-003  4.764343307690019E-007
  3.134085510458573E-003  4.764343307690019E-007
  3.149126105116502E-003  4.764343307690019E-007
  3.536128174405484E-003  4.764343307690019E-007
  3.620590662952915E-003  4.764343307690019E-007
  3.627470358861420E-003  4.764343307690019E-007
  3.640650364220903E-003  4.764343307690019E-007
  3.675494365514599E-003  4.764343307690019E-007
  3.675855568942201E-003  4.764343307690019E-007
  4.057338810564861E-003  4.764343307690019E-007
  4.057355446934401E-003  4.764343307690019E-007
 cut=1d-8, nber non-redundant internal coords=         120
 Check on Eigenvals of non-red overlap matrix:
  0.00000048  0.00000199  0.00000204  0.00000291  0.00000771  0.00000837  0.00001258  0.00001498
  0.00001526  0.00002051  0.00002815  0.00003017  0.00004283  0.00004516  0.00004597  0.00004966
  0.00005102  0.00005761  0.00005797  0.00005940  0.00005981  0.00006005  0.00006733  0.00006979
  0.00007804  0.00008210  0.00009360  0.00009927  0.00010645  0.00011675  0.00011706  0.00011874
  0.00011909  0.00012090  0.00012221  0.00012921  0.00013334  0.00017152  0.00021688  0.00024463
  0.00025593  0.00025994  0.00026099  0.00027766  0.00028879  0.00029804  0.00035510  0.00036157
  0.00037752  0.00038776  0.00040289  0.00040727  0.00042273  0.00043973  0.00054503  0.00055421
  0.00059308  0.00059308  0.00059337  0.00059339  0.00059639  0.00059840  0.00059942  0.00059954
  0.00060165  0.00060373  0.00060373  0.00060737  0.00062267  0.00062413  0.00063604  0.00064554
  0.00064782  0.00064856  0.00064993  0.00066011  0.00066013  0.00076714  0.00092974  0.00103837
  0.00103838  0.00106826  0.00107332  0.00107700  0.00110247  0.00110401  0.00110599  0.00110622
  0.00113707  0.00113708  0.00114697  0.00114765  0.00116295  0.00116385  0.00116555  0.00116559
  0.00116987  0.00116987  0.00142466  0.00142741  0.00154555  0.00164957  0.00183781  0.00200384
  0.00231660  0.00232447  0.00233339  0.00233980  0.00241350  0.00267422  0.00313409  0.00314913
  0.00353613  0.00362059  0.00362747  0.00364065  0.00367549  0.00367586  0.00405734  0.00405736
 Checking for correct frequencies
 recalc frequencies=
   -72.1  -58.8  -23.5   -0.0   -0.0   -0.0   -0.0    0.0    0.0   20.7
    55.4   57.3  119.7  139.6  153.1  173.1  225.2  232.5  306.1  335.4
   368.3  410.4  410.6  412.0  420.6  425.1  429.1  472.3  477.3  480.8
   518.0  518.3  612.5  628.2  631.6  649.9  665.3  682.2  682.4  686.0
   699.7  708.4  739.2  741.6  753.2  758.8  775.3  785.8  798.3  806.5
   807.3  812.7  850.5  850.6  894.0  905.6  920.2  924.7  942.5  944.2
   952.8  953.3  985.0  992.1 1000.0 1003.3 1004.8 1024.4 1034.8 1046.4
  1048.0 1099.6 1099.9 1149.3 1152.3 1170.6 1170.8 1199.3 1203.7 1223.5
  1248.1 1286.3 1287.5 1289.7 1302.8 1328.1 1328.7 1335.8 1336.8 1343.9
  1359.0 1365.0 1453.0 1461.0 1467.2 1486.6 1496.1 1513.3 1516.4 1525.3
  1533.9 1551.7 1572.2 1572.8 1606.3 1633.3 1633.5 1651.0 3130.8 3131.1
  3137.4 3137.4 3150.2 3150.6 3157.0 3157.1 3165.4 3166.4 3170.3 3173.7
  3181.8 3184.4 3188.6 3189.9 3191.4 3193.2
 recalc symmetries=
     Au     B1g    Au     B1u    B2u    B3g    B1g    B3u    B2g    B3u
     B2g    B2u    B3u    B3g    B2g    Ag     B2u    B3u    B2g    B1u
     B3g    Au     B1g    B3u    Au     B1g    B2u    B3g    Ag     B2g
     B2g    B3u    B1u    B3g    B2u    B3g    B2u    Ag     B3u    B2g
     B3u    B2g    B3u    B1u    B2g    Au     B1g    Ag     B3u    Au 
     B2g    B1g    B3u    B2g    Au     B2g    B1g    B3u    Au     B1g
     B2g    B3u    B1u    Ag     B1u    B1u    Ag     Ag     B1u    B1u
     Ag     B2u    B3g    B3g    B2u    B3g    B2u    B1u    Ag     B1u
     Ag     B2u    B3g    B2u    B1u    B3g    Ag     B2u    B3g    Ag 
     B2u    B3g    B3g    B2u    B2u    B3g    B1u    Ag     B2u    B1u
     B3g    Ag     B3g    B2u    B1u    Ag     Ag     B1u    B1u    Ag 
     B3g    B2u    B1u    B3g    Ag     B2u    B1u    Ag     B3g    B1u
     B2u    Ag     B3g    B2u    B1u    Ag 
 recalc freqs check OK
 Zero-point lengths:
 29.1990 32.3414 51.0891 10.0000 10.0000 10.0000 10.0000 10.0000 10.0000 54.4267
 33.2998 32.7465 22.6579 20.9790 20.0360 18.8415 16.5210 16.2572 14.1700 13.5360
 12.9178 12.2381 12.2348 12.2136 12.0889 12.0238 11.9674 11.4071 11.3473 11.3058
 10.8921 10.8899 10.0174  9.8915  9.8645  9.7247  9.6111  9.4916  9.4903  9.4655
  9.3723  9.3142  9.1185  9.1035  9.0330  8.9996  8.9035  8.8437  8.7742  8.7297
  8.7253  8.6963  8.5009  8.5002  8.2913  8.2383  8.1724  8.1527  8.0753  8.0679
  8.0317  8.0295  7.8990  7.8706  7.8396  7.8268  7.8209  7.7458  7.7068  7.6640
  7.6581  7.4761  7.4752  7.3126  7.3031  7.2460  7.2452  7.1588  7.1455  7.0874
  7.0173  6.9122  6.9092  6.9032  6.8685  6.8028  6.8012  6.7831  6.7806  6.7626
  6.7249  6.7101  6.5038  6.4859  6.4721  6.4298  6.4093  6.3729  6.3664  6.3477
  6.3299  6.2934  6.2523  6.2512  6.1856  6.1343  6.1339  6.1013  4.4306  4.4304
  4.4260  4.4260  4.4170  4.4167  4.4123  4.4122  4.4063  4.4057  4.4029  4.4006
  4.3950  4.3932  4.3903  4.3894  4.3884  4.3871
 highest evec of mol 2
  0.0000  0.0000 -0.0203
  0.0000 -0.0241 -0.0159
  0.0000 -0.0899  0.0487
  0.0000  0.0000  0.0039
  0.0000  0.0899  0.0487
  0.0000  0.0241 -0.0159
  0.0000  0.0000 -0.0028
  0.0000  0.0587 -0.0324
  0.0000  0.0594  0.0329
  0.0000  0.0000  0.0032
  0.0000 -0.0594  0.0329
  0.0000 -0.0587 -0.0324
  0.0000  0.0000 -0.0032
  0.0000  0.0594 -0.0329
  0.0000  0.0587  0.0324
  0.0000  0.0000  0.0028
  0.0000 -0.0587  0.0324
  0.0000 -0.0594 -0.0329
  0.0000  0.0000 -0.0039
  0.0000  0.0899 -0.0487
  0.0000  0.0241  0.0159
  0.0000  0.0000  0.0203
  0.0000 -0.0241  0.0159
  0.0000 -0.0899 -0.0487
  0.0000  0.0000  0.0625
  0.0000  0.0755  0.0429
  0.0000  0.3023 -0.1650
  0.0000 -0.3023 -0.1650
  0.0000 -0.0755  0.0429
  0.0000 -0.1971  0.1067
  0.0000 -0.1989 -0.1072
  0.0000  0.1989 -0.1072
  0.0000  0.1971  0.1067
  0.0000 -0.1989  0.1072
  0.0000 -0.1971 -0.1067
  0.0000  0.1971 -0.1067
  0.0000  0.1989  0.1072
  0.0000 -0.3023  0.1650
  0.0000 -0.0755 -0.0429
  0.0000  0.0000 -0.0625
  0.0000  0.0755 -0.0429
  0.0000  0.3023  0.1650
 Enter nber and list of atoms to keep of mol #2
 keep list:          42           1           2           3           4
           5           6           7           8           9          10
          11          12          13          14          15          16
          17          18          19          20          21          22
          23          24          25          26          27          28
          29          30          31          32          33          34
          35          36          37          38          39          40
          41          42
 reordering atoms
           1   7.97337300000000     
           2   7.25256900000000     
           3   5.86561500000000     
           4   5.10538700000000     
           5   5.86561500000000     
           6   7.25256900000000     
           7   3.64438700000000     
           8   2.87516300000000     
           9   1.49792900000000     
          10  0.723678000000000     
          11   1.49792900000000     
          12   2.87516300000000     
          13 -0.723678000000000     
          14  -1.49792900000000     
          15  -2.87516300000000     
          16  -3.64438700000000     
          17  -2.87516300000000     
          18  -1.49792900000000     
          19  -5.10538700000000     
          20  -5.86561500000000     
          21  -7.25256900000000     
          22  -7.97337300000000     
          23  -7.25256900000000     
          24  -5.86561500000000     
          25   9.05815000000000     
          26   7.78141300000000     
          27   5.35837200000000     
          28   5.35837200000000     
          29   7.78141300000000     
          30   3.37460200000000     
          31  0.997206000000000     
          32  0.997206000000000     
          33   3.37460200000000     
          34 -0.997206000000000     
          35  -3.37460200000000     
          36  -3.37460200000000     
          37 -0.997206000000000     
          38  -5.35837200000000     
          39  -7.78141300000000     
          40  -9.05815000000000     
          41  -7.78141300000000     
          42  -5.35837200000000     
           1           1
           2           2
           3           3
           4           4
           5           5
           6           6
           7           7
           8           8
           9           9
          10          10
          11          11
          12          12
          13          13
          14          14
          15          15
          16          16
          17          17
          18          18
          19          19
          20          20
          21          21
          22          22
          23          23
          24          24
          25          25
          26          26
          27          27
          28          28
          29          29
          30          30
          31          31
          32          32
          33          33
          34          34
          35          35
          36          36
          37          37
          38          38
          39          39
          40          40
          41          41
          42          42
 initial cartes coords mol 1
   6   0.00000   0.00000   7.94536
   6   0.00000  -1.19910   7.23784
   6   0.00000  -1.19764   5.84749
   6   0.00000   0.00000   5.11111
   6   0.00000   1.19764   5.84749
   6   0.00000   1.19910   7.23784
   6   0.00000   0.00000   3.62127
   6   0.00000   1.18999   2.87528
   6   0.00000   1.19031   1.48855
   6   0.00000   0.00000   0.74291
   6   0.00000  -1.19031   1.48855
   6   0.00000  -1.18999   2.87528
   6   0.00000   0.00000  -0.74291
   6   0.00000   1.19031  -1.48855
   6   0.00000   1.18999  -2.87528
   6   0.00000   0.00000  -3.62127
   6   0.00000  -1.18999  -2.87528
   6   0.00000  -1.19031  -1.48855
   6   0.00000   0.00000  -5.11111
   6   0.00000   1.19764  -5.84749
   6   0.00000   1.19910  -7.23784
   6   0.00000   0.00000  -7.94536
   6   0.00000  -1.19910  -7.23784
   6   0.00000  -1.19764  -5.84749
   1   0.00000   0.00000   9.02938
   1   0.00000  -2.14448   7.76933
   1   0.00000  -2.15232   5.33859
   1   0.00000   2.15232   5.33859
   1   0.00000   2.14448   7.76933
   1   0.00000   2.14898   3.37554
   1   0.00000   2.14904   0.98696
   1   0.00000  -2.14904   0.98696
   1   0.00000  -2.14898   3.37554
   1   0.00000   2.14904  -0.98696
   1   0.00000   2.14898  -3.37554
   1   0.00000  -2.14898  -3.37554
   1   0.00000  -2.14904  -0.98696
   1   0.00000   2.15232  -5.33859
   1   0.00000   2.14448  -7.76933
   1   0.00000   0.00000  -9.02938
   1   0.00000  -2.14448  -7.76933
   1   0.00000  -2.15232  -5.33859
 initial cartes coords mol 2
   6   0.00000   0.00000   7.97337
   6   0.00000  -1.19783   7.25257
   6   0.00000  -1.20014   5.86562
   6   0.00000   0.00000   5.10539
   6   0.00000   1.20014   5.86562
   6   0.00000   1.19783   7.25257
   6   0.00000   0.00000   3.64439
   6   0.00000   1.19464   2.87516
   6   0.00000   1.19659   1.49793
   6   0.00000   0.00000   0.72368
   6   0.00000  -1.19659   1.49793
   6   0.00000  -1.19464   2.87516
   6   0.00000   0.00000  -0.72368
   6   0.00000   1.19659  -1.49793
   6   0.00000   1.19464  -2.87516
   6   0.00000   0.00000  -3.64439
   6   0.00000  -1.19464  -2.87516
   6   0.00000  -1.19659  -1.49793
   6   0.00000   0.00000  -5.10539
   6   0.00000   1.20014  -5.86562
   6   0.00000   1.19783  -7.25257
   6   0.00000   0.00000  -7.97337
   6   0.00000  -1.19783  -7.25257
   6   0.00000  -1.20014  -5.86562
   1   0.00000   0.00000   9.05815
   1   0.00000  -2.14709   7.78141
   1   0.00000  -2.15658   5.35837
   1   0.00000   2.15658   5.35837
   1   0.00000   2.14709   7.78141
   1   0.00000   2.15672   3.37460
   1   0.00000   2.15751   0.99721
   1   0.00000  -2.15751   0.99721
   1   0.00000  -2.15672   3.37460
   1   0.00000   2.15751  -0.99721
   1   0.00000   2.15672  -3.37460
   1   0.00000  -2.15672  -3.37460
   1   0.00000  -2.15751  -0.99721
   1   0.00000   2.15658  -5.35837
   1   0.00000   2.14709  -7.78141
   1   0.00000   0.00000  -9.05815
   1   0.00000  -2.14709  -7.78141
   1   0.00000  -2.15658  -5.35837
 loop 1 0
 mod cartes coords mol 2
   6   0.00000   0.00000   7.97337
   6   0.00000  -1.19783   7.25257
   6   0.00000  -1.20014   5.86562
   6   0.00000   0.00000   5.10539
   6   0.00000   1.20014   5.86562
   6   0.00000   1.19783   7.25257
   6   0.00000   0.00000   3.64439
   6   0.00000   1.19464   2.87516
   6   0.00000   1.19659   1.49793
   6   0.00000   0.00000   0.72368
   6   0.00000  -1.19659   1.49793
   6   0.00000  -1.19464   2.87516
   6   0.00000   0.00000  -0.72368
   6   0.00000   1.19659  -1.49793
   6   0.00000   1.19464  -2.87516
   6   0.00000   0.00000  -3.64439
   6   0.00000  -1.19464  -2.87516
   6   0.00000  -1.19659  -1.49793
   6   0.00000   0.00000  -5.10539
   6   0.00000   1.20014  -5.86562
   6   0.00000   1.19783  -7.25257
   6   0.00000   0.00000  -7.97337
   6   0.00000  -1.19783  -7.25257
   6   0.00000  -1.20014  -5.86562
   1   0.00000   0.00000   9.05815
   1   0.00000  -2.14709   7.78141
   1   0.00000  -2.15658   5.35837
   1   0.00000   2.15658   5.35837
   1   0.00000   2.14709   7.78141
   1   0.00000   2.15672   3.37460
   1   0.00000   2.15751   0.99721
   1   0.00000  -2.15751   0.99721
   1   0.00000  -2.15672   3.37460
   1   0.00000   2.15751  -0.99721
   1   0.00000   2.15672  -3.37460
   1   0.00000  -2.15672  -3.37460
   1   0.00000  -2.15751  -0.99721
   1   0.00000   2.15658  -5.35837
   1   0.00000   2.14709  -7.78141
   1   0.00000   0.00000  -9.05815
[...]
 115 Ag   3183. -0.7013    49.2   100.0 115 Ag   3157.
                 0.6931    48.0         118 Ag   3166.
 116 B1u  3185. -0.9644    93.0   100.0 117 B1u  3165.
 117 B2u  3188.  0.9509    90.4   100.0 116 B2u  3157.
 118 Ag   3190. -0.6720    45.2   100.0 115 Ag   3157.
                -0.7069    50.0         118 Ag   3166.
 119 B3g  3194.  0.9104    82.9   100.0 119 B3g  3170.
                 0.4021    16.2         123 B3g  3189.
 120 B1u  3196. -0.9113    83.0   100.0 120 B1u  3174.
                 0.3972    15.8         125 B1u  3191.
 121 B2u  3201. -0.9171    84.1   100.0 121 B2u  3182.
                 0.3185    10.1         124 B2u  3190.
 122 Ag   3202.  0.9282    86.2   100.0 122 Ag   3184.
                 0.3261    10.6         126 Ag   3193.
 123 B3g  3208. -0.3861    14.9   100.0 119 B3g  3170.
                 0.9038    81.7         123 B3g  3189.
 124 B1u  3210.  0.3847    14.8   100.0 120 B1u  3174.
                 0.9073    82.3         125 B1u  3191.
 125 B2u  3211.  0.3680    13.5   100.0 121 B2u  3182.
                 0.9075    82.4         124 B2u  3190.
 126 Ag   3214. -0.3557    12.7   100.0 122 Ag   3184.
                 0.9180    84.3         126 Ag   3193.
 nber times 1st assigned=           1           0
 nber times 1st assigned=           2           0
 nber times 1st assigned=           3           0
 nber times 1st assigned=           4           0
 nber times 1st assigned=           5           0
 nber times 1st assigned=           6           0
 nber times 1st assigned=           7           0
 nber times 1st assigned=           8           0
 nber times 1st assigned=           9           0
 nber times 1st assigned=          10           0
 nber times 1st assigned=          11           0
 nber times 1st assigned=          12           0
 nber times 1st assigned=          13           0
 nber times 1st assigned=          14           0
 nber times 1st assigned=          15           0
 nber times 1st assigned=          16           0
 nber times 1st assigned=          17           0
 nber times 1st assigned=          18           0
 nber times 1st assigned=          19           0
 nber times 1st assigned=          20           0
 nber times 1st assigned=          21           0
 nber times 1st assigned=          22           0
 nber times 1st assigned=          23           0
 nber times 1st assigned=          24           0
 nber times 1st assigned=          25           0
 nber times 1st assigned=          26           0
 nber times 1st assigned=          27           0
 nber times 1st assigned=          28           0
 nber times 1st assigned=          29           0
 nber times 1st assigned=          30           0
 nber times 1st assigned=          31           0
 nber times 1st assigned=          32           0
 nber times 1st assigned=          33           0
 nber times 1st assigned=          34           0
 nber times 1st assigned=          35           0
 nber times 1st assigned=          36           0
 nber times 1st assigned=          37           0
 nber times 1st assigned=          38           0
 nber times 1st assigned=          39           0
 nber times 1st assigned=          40           0
 nber times 1st assigned=          41           0
 nber times 1st assigned=          42           0
 nber times 1st assigned=          43           0
 nber times 1st assigned=          44           0
 nber times 1st assigned=          45           0
 nber times 1st assigned=          46           0
 nber times 1st assigned=          47           0
 nber times 1st assigned=          48           0
 nber times 1st assigned=          49           0
 nber times 1st assigned=          50           0
 nber times 1st assigned=          51           0
 nber times 1st assigned=          52           0
 nber times 1st assigned=          53           0
 nber times 1st assigned=          54           0
 nber times 1st assigned=          55           0
 nber times 1st assigned=          56           0
 nber times 1st assigned=          57           0
 nber times 1st assigned=          58           0
 nber times 1st assigned=          59           0
 nber times 1st assigned=          60           0
 nber times 1st assigned=          61           0
 nber times 1st assigned=          62           0
 nber times 1st assigned=          63           0
 nber times 1st assigned=          64           0
 nber times 1st assigned=          65           0
 nber times 1st assigned=          66           0
 nber times 1st assigned=          67           0
 nber times 1st assigned=          68           0
 nber times 1st assigned=          69           0
 nber times 1st assigned=          70           0
 nber times 1st assigned=          71           0
 nber times 1st assigned=          72           0
 nber times 1st assigned=          73           0
 nber times 1st assigned=          74           0
 nber times 1st assigned=          75           0
 nber times 1st assigned=          76           0
 nber times 1st assigned=          77           0
 nber times 1st assigned=          78           0
 nber times 1st assigned=          79           0
 nber times 1st assigned=          80           0
 nber times 1st assigned=          81           0
 nber times 1st assigned=          82           0
 nber times 1st assigned=          83           0
 nber times 1st assigned=          84           0
 nber times 1st assigned=          85           0
 nber times 1st assigned=          86           0
 nber times 1st assigned=          87           0
 nber times 1st assigned=          88           0
 nber times 1st assigned=          89           0
 nber times 1st assigned=          90           0
 nber times 1st assigned=          91           0
 nber times 1st assigned=          92           0
 nber times 1st assigned=          93           0
 nber times 1st assigned=          94           0
 nber times 1st assigned=          95           0
 nber times 1st assigned=          96           0
 nber times 1st assigned=          97           0
 nber times 1st assigned=          98           0
 nber times 1st assigned=          99           0
 nber times 1st assigned=         100           0
 nber times 1st assigned=         101           0
 nber times 1st assigned=         102           0
 nber times 1st assigned=         103           0
 nber times 1st assigned=         104           0
 nber times 1st assigned=         105           0
 nber times 1st assigned=         106           0
 nber times 1st assigned=         107           0
 nber times 1st assigned=         108           0
 nber times 1st assigned=         109           0
 nber times 1st assigned=         110           0
 nber times 1st assigned=         111           0
 nber times 1st assigned=         112           0
 nber times 1st assigned=         113           0
 nber times 1st assigned=         114           0
 nber times 1st assigned=         115           0
 nber times 1st assigned=         116           0
 nber times 1st assigned=         117           0
 nber times 1st assigned=         118           0
 nber times 1st assigned=         119           0
 nber times 1st assigned=         120           0
 nber times 1st assigned=         121           0
 nber times 1st assigned=         122           0
 nber times 1st assigned=         123           0
 nber times 1st assigned=         124           0
 nber times 1st assigned=         125           0
 nber times 1st assigned=         126           0
 modes represented=   119.955721650353     
 p1=
   -0.   -0.   -0.    0.    0.   -0.   -0.    0.    0.   -0.   -0.   -0.   -0.    0.   -0.   -9.   -0.    0.   -0.   -0.
   -0.    0.   -0.    0.    0.   -0.    0.    0.    2.    0.    0.    0.    0.   -0.    0.    0.   -0.   -1.    0.    0.
    0.   -0.   -0.    0.    0.   -0.    0.   -0.    0.    0.   -0.    0.   -0.   -0.    0.   -0.   -0.   -0.   -0.    0.
    0.   -0.    0.    2.    0.    1.    0.   -0.   -0.   -1.   -0.    0.    0.   -0.    0.    0.   -0.    0.    0.   -0.
   -5.    0.   -0.    3.    0.   -0.    0.    0.   -0.   -0.    0.   -0.   -0.   -0.   -0.    0.    0.    1.   -0.    0.
   -0.   -0.   -0.    0.   -5.   -0.    1.   -0.   -0.    0.    0.    0.    0.    0.   -0.   -0.   -0.    0.   -0.   -0.
    0.    0.   -0.   -0.    0.    0.
 p2=
    0.    0.    0.    0.    0.   -0.    0.    0.    0.    0.    0.    0.    0.    0.   -0.   -9.    0.    0.    0.    0.
   -0.    0.    0.   -0.   -0.   -0.    0.   -0.    2.   -0.   -0.    0.   -0.    0.    0.   -0.    0.   -1.   -0.   -0.
    0.   -0.   -0.    0.    0.   -0.    0.    1.   -0.   -0.    0.    0.   -0.    0.   -0.   -0.    0.    0.    0.   -0.
    0.    0.    0.   -1.    0.    0.   -1.   -1.    0.    0.    1.    0.    0.    0.    0.   -0.   -0.   -0.   -0.   -0.
   -4.    0.    0.   -0.    0.   -0.    3.   -0.    0.   -3.    0.   -0.    0.   -0.    0.    0.   -0.    2.   -0.   -0.
    0.   -0.   -0.    0.    0.   -0.    5.   -0.   -0.   -0.   -0.    0.   -0.    0.   -0.   -0.   -0.    0.    0.   -0.
    0.    0.   -0.   -0.    0.   -0.

 Displacement: in terms of nc of 1 THEN of nc of 2

   1 Au  freq=  -102. Q= -0.000 lam=    -0.0 Au  freq=   -72. Q= -0.000 lam=    -0.0
   2 B1g freq=   -81. Q= -0.000 lam=    -0.0 B1g freq=   -59. Q= -0.000 lam=    -0.0
   3 Au  freq=   -43. Q= -0.000 lam=    -0.0 Au  freq=   -24. Q= -0.000 lam=    -0.0
   4 B3g freq=    -0. Q=  0.000 lam=    -0.0 B1u freq=    -0. Q=  0.000 lam=    -0.0
   5 B1u freq=    -0. Q=  0.000 lam=    -0.0 B2u freq=    -0. Q=  0.000 lam=    -0.0
   6 B3u freq=    -0. Q= -0.000 lam=    -0.0 B3g freq=    -0. Q= -0.000 lam=    -0.0
   7 B2u freq=    -0. Q= -0.000 lam=    -0.0 B1g freq=    -0. Q= -0.000 lam=    -0.0
   8 B1g freq=     0. Q=  0.000 lam=     0.0 B3u freq=     0. Q=  0.000 lam=     0.0
   9 B2g freq=     0. Q=  0.000 lam=     0.0 B2g freq=     0. Q=  0.000 lam=     0.0
  10 B3u freq=    21. Q= -0.000 lam=     0.0 B3u freq=    21. Q= -0.000 lam=     0.0
  11 B2u freq=    58. Q= -0.000 lam=     0.0 B2g freq=    55. Q= -0.000 lam=     0.0
  12 B2g freq=    59. Q= -0.000 lam=     0.0 B2u freq=    57. Q= -0.000 lam=     0.0
  13 B3u freq=   123. Q= -0.000 lam=     0.0 B3u freq=   120. Q= -0.000 lam=     0.0
  14 B3g freq=   142. Q=  0.000 lam=     0.0 B3g freq=   140. Q=  0.000 lam=     0.0
  15 B2g freq=   172. Q= -0.000 lam=     0.0 B2g freq=   153. Q= -0.000 lam=     0.0
  16 Ag  freq=   173. Q= -0.462 lam=    18.5 Ag  freq=   173. Q= -0.487 lam=    20.5
  17 B2u freq=   230. Q= -0.000 lam=     0.0 B2u freq=   225. Q= -0.000 lam=     0.0
  18 B3u freq=   257. Q=  0.000 lam=     0.0 B3u freq=   233. Q=  0.000 lam=     0.0
  19 B1u freq=   336. Q= -0.000 lam=     0.0 B2g freq=   306. Q= -0.000 lam=     0.0
  20 B2g freq=   344. Q= -0.000 lam=     0.0 B1u freq=   335. Q= -0.000 lam=     0.0
  21 B3g freq=   366. Q= -0.000 lam=     0.0 B3g freq=   368. Q= -0.000 lam=     0.0
  22 Au  freq=   382. Q=  0.000 lam=     0.0 Au  freq=   410. Q=  0.000 lam=     0.0
  23 B1g freq=   395. Q= -0.000 lam=     0.0 B1g freq=   411. Q= -0.000 lam=     0.0
  24 Au  freq=   409. Q=  0.000 lam=     0.0 B3u freq=   412. Q=  0.000 lam=     0.0
  25 B1g freq=   416. Q=  0.000 lam=     0.0 Au  freq=   421. Q=  0.000 lam=     0.0
  26 B2u freq=   431. Q= -0.000 lam=     0.0 B1g freq=   425. Q= -0.000 lam=     0.0
  27 B3u freq=   457. Q=  0.000 lam=     0.0 B2u freq=   429. Q=  0.000 lam=     0.0
  28 B3g freq=   476. Q=  0.000 lam=     0.0 B3g freq=   472. Q=  0.000 lam=     0.0
  29 Ag  freq=   477. Q=  0.177 lam=     7.4 Ag  freq=   477. Q=  0.181 lam=     7.9
  30 B2g freq=   509. Q=  0.000 lam=     0.0 B2g freq=   481. Q=  0.000 lam=     0.0
  31 B3u freq=   553. Q=  0.000 lam=     0.0 B2g freq=   518. Q=  0.000 lam=     0.0
  32 B2g freq=   556. Q=  0.000 lam=     0.0 B3u freq=   518. Q=  0.000 lam=     0.0
  33 B1u freq=   626. Q=  0.000 lam=     0.0 B1u freq=   612. Q=  0.000 lam=     0.0
  34 B3g freq=   631. Q= -0.000 lam=     0.0 B3g freq=   628. Q= -0.000 lam=     0.0
  35 B2u freq=   633. Q=  0.000 lam=     0.0 B2u freq=   632. Q=  0.000 lam=     0.0
  36 B3g freq=   654. Q=  0.000 lam=     0.0 B3g freq=   650. Q=  0.000 lam=     0.0
  37 B2u freq=   669. Q= -0.000 lam=     0.0 B2u freq=   665. Q= -0.000 lam=     0.0
  38 Ag  freq=   688. Q= -0.147 lam=     7.4 Ag  freq=   682. Q= -0.146 lam=     7.3
  39 B3u freq=   693. Q=  0.000 lam=     0.0 B3u freq=   682. Q=  0.000 lam=     0.0
  40 B2g freq=   697. Q=  0.000 lam=     0.0 B2g freq=   686. Q=  0.000 lam=     0.0
  41 B3u freq=   727. Q=  0.000 lam=     0.0 B3u freq=   700. Q=  0.000 lam=     0.0
  42 B2g freq=   732. Q= -0.000 lam=     0.0 B2g freq=   708. Q= -0.000 lam=     0.0
  43 B1u freq=   754. Q= -0.000 lam=     0.0 B3u freq=   739. Q= -0.000 lam=     0.0
  44 B3u freq=   772. Q=  0.000 lam=     0.0 B1u freq=   742. Q=  0.000 lam=     0.0
  45 B2g freq=   788. Q=  0.000 lam=     0.0 B2g freq=   753. Q=  0.000 lam=     0.0
  46 Au  freq=   800. Q= -0.000 lam=     0.0 Au  freq=   759. Q= -0.000 lam=     0.0
  47 Ag  freq=   805. Q=  0.038 lam=     0.6 B1g freq=   775. Q=  0.000 lam=     0.0
  48 B1g freq=   816. Q= -0.000 lam=     0.0 Ag  freq=   786. Q= -0.078 lam=     2.4
  49 Au  freq=   839. Q=  0.000 lam=     0.0 B3u freq=   798. Q=  0.000 lam=     0.0
  50 B3u freq=   842. Q=  0.000 lam=     0.0 Au  freq=   806. Q=  0.000 lam=     0.0
  51 B1g freq=   846. Q= -0.000 lam=     0.0 B2g freq=   807. Q= -0.000 lam=     0.0
  52 B2g freq=   859. Q=  0.000 lam=     0.0 B1g freq=   813. Q=  0.000 lam=     0.0
  53 B3u freq=   919. Q= -0.000 lam=     0.0 B3u freq=   850. Q= -0.000 lam=     0.0
  54 B2g freq=   919. Q= -0.000 lam=     0.0 B2g freq=   851. Q= -0.000 lam=     0.0
  55 Au  freq=   938. Q=  0.000 lam=     0.0 Au  freq=   894. Q=  0.000 lam=     0.0
  56 B2g freq=   949. Q= -0.000 lam=     0.0 B2g freq=   906. Q= -0.000 lam=     0.0
  57 B1g freq=   957. Q= -0.000 lam=     0.0 B1g freq=   920. Q= -0.000 lam=     0.0
  58 B3u freq=   960. Q= -0.000 lam=     0.0 B3u freq=   925. Q= -0.000 lam=     0.0
  59 Au  freq=   973. Q= -0.000 lam=     0.0 Au  freq=   942. Q= -0.000 lam=     0.0
  60 B1g freq=   975. Q=  0.000 lam=     0.0 B1g freq=   944. Q=  0.000 lam=     0.0
  61 B2g freq=   998. Q=  0.000 lam=     0.0 B2g freq=   953. Q=  0.000 lam=     0.0
  62 B3u freq=   998. Q= -0.000 lam=     0.0 B3u freq=   953. Q= -0.000 lam=     0.0
  63 B1u freq=  1011. Q=  0.000 lam=     0.0 B1u freq=   985. Q=  0.000 lam=     0.0
  64 Ag  freq=  1015. Q=  0.213 lam=    23.0 Ag  freq=   992. Q=  0.129 lam=     8.2
  65 B1u freq=  1016. Q=  0.000 lam=     0.0 B1u freq=  1000. Q=  0.000 lam=     0.0
  66 Ag  freq=  1021. Q=  0.116 lam=     6.9 B1u freq=  1003. Q=  0.000 lam=     0.0
  67 B1u freq=  1022. Q=  0.000 lam=     0.0 Ag  freq=  1005. Q=  0.181 lam=    16.5
  68 Ag  freq=  1045. Q= -0.003 lam=     0.0 Ag  freq=  1024. Q= -0.103 lam=     5.4
  69 B1u freq=  1061. Q= -0.000 lam=     0.0 B1u freq=  1035. Q= -0.000 lam=     0.0
  70 Ag  freq=  1065. Q= -0.150 lam=    12.0 B1u freq=  1046. Q= -0.000 lam=     0.0
  71 B1u freq=  1065. Q= -0.000 lam=     0.0 Ag  freq=  1048. Q= -0.155 lam=    12.6
  72 B3g freq=  1112. Q=  0.000 lam=     0.0 B2u freq=  1100. Q=  0.000 lam=     0.0
  73 B2u freq=  1112. Q=  0.000 lam=     0.0 B3g freq=  1100. Q=  0.000 lam=     0.0
  74 B3g freq=  1156. Q= -0.000 lam=     0.0 B3g freq=  1149. Q= -0.000 lam=     0.0
  75 B2u freq=  1172. Q=  0.000 lam=     0.0 B2u freq=  1152. Q=  0.000 lam=     0.0
  76 B3g freq=  1187. Q=  0.000 lam=     0.0 B3g freq=  1171. Q=  0.000 lam=     0.0
  77 B2u freq=  1190. Q= -0.000 lam=     0.0 B2u freq=  1171. Q= -0.000 lam=     0.0
  78 B1u freq=  1209. Q=  0.000 lam=     0.0 B1u freq=  1199. Q=  0.000 lam=     0.0
  79 Ag  freq=  1215. Q=  0.010 lam=     0.1 Ag  freq=  1204. Q=  0.043 lam=     1.1
  80 B1u freq=  1242. Q= -0.000 lam=     0.0 B1u freq=  1224. Q= -0.000 lam=     0.0
  81 Ag  freq=  1251. Q= -0.691 lam=   298.3 Ag  freq=  1248. Q= -0.541 lam=   182.5
  82 B1u freq=  1289. Q=  0.000 lam=     0.0 B2u freq=  1286. Q=  0.000 lam=     0.0
  83 B2u freq=  1290. Q= -0.000 lam=     0.0 B3g freq=  1287. Q= -0.000 lam=     0.0
  84 Ag  freq=  1295. Q=  0.403 lam=   105.4 B2u freq=  1290. Q=  0.000 lam=     0.0
  85 B3g freq=  1296. Q=  0.000 lam=     0.0 B1u freq=  1303. Q=  0.000 lam=     0.0
  86 Ag  freq=  1311. Q= -0.061 lam=     2.4 B3g freq=  1328. Q= -0.000 lam=     0.0
  87 B2u freq=  1312. Q=  0.000 lam=     0.0 Ag  freq=  1329. Q=  0.378 lam=    94.7
  88 B3g freq=  1320. Q=  0.000 lam=     0.0 B2u freq=  1336. Q=  0.000 lam=     0.0
  89 B3g freq=  1348. Q= -0.000 lam=     0.0 B3g freq=  1337. Q= -0.000 lam=     0.0
  90 B2u freq=  1357. Q= -0.000 lam=     0.0 Ag  freq=  1344. Q= -0.412 lam=   114.3
  91 B2u freq=  1367. Q=  0.000 lam=     0.0 B2u freq=  1359. Q=  0.000 lam=     0.0
  92 B3g freq=  1374. Q= -0.000 lam=     0.0 B3g freq=  1365. Q= -0.000 lam=     0.0
  93 B2u freq=  1436. Q= -0.000 lam=     0.0 B3g freq=  1453. Q= -0.000 lam=     0.0
  94 B3g freq=  1445. Q= -0.000 lam=     0.0 B2u freq=  1461. Q= -0.000 lam=     0.0
  95 B2u freq=  1478. Q= -0.000 lam=     0.0 B2u freq=  1467. Q= -0.000 lam=     0.0
  96 B3g freq=  1487. Q=  0.000 lam=     0.0 B3g freq=  1487. Q=  0.000 lam=     0.0
  97 B1u freq=  1519. Q=  0.000 lam=     0.0 B1u freq=  1496. Q=  0.000 lam=     0.0
  98 Ag  freq=  1529. Q=  0.209 lam=    33.3 Ag  freq=  1513. Q=  0.258 lam=    50.5
  99 B1u freq=  1553. Q= -0.000 lam=     0.0 B2u freq=  1516. Q= -0.000 lam=     0.0
 100 Ag  freq=  1575. Q=  0.026 lam=     0.5 B1u freq=  1525. Q=  0.000 lam=     0.0
 101 B2u freq=  1584. Q= -0.000 lam=     0.0 B3g freq=  1534. Q= -0.000 lam=     0.0
 102 B3g freq=  1605. Q= -0.000 lam=     0.0 Ag  freq=  1552. Q= -0.018 lam=     0.2
 103 B2u freq=  1623. Q= -0.000 lam=     0.0 B3g freq=  1572. Q= -0.000 lam=     0.0
 104 B3g freq=  1624. Q=  0.000 lam=     0.0 B2u freq=  1573. Q=  0.000 lam=     0.0
 105 Ag  freq=  1635. Q= -0.763 lam=   475.6 B1u freq=  1606. Q= -0.000 lam=     0.0
 106 B1u freq=  1642. Q= -0.000 lam=     0.0 Ag  freq=  1633. Q= -0.022 lam=     0.4
 107 Ag  freq=  1650. Q=  0.138 lam=    15.6 Ag  freq=  1633. Q=  0.759 lam=   470.1
 108 B1u freq=  1660. Q= -0.000 lam=     0.0 B1u freq=  1651. Q= -0.000 lam=     0.0
 109 B1u freq=  3160. Q= -0.000 lam=     0.0 B1u freq=  3131. Q= -0.000 lam=     0.0
 110 Ag  freq=  3160. Q=  0.026 lam=     1.1 Ag  freq=  3131. Q=  0.027 lam=     1.2
 111 B3g freq=  3168. Q=  0.000 lam=     0.0 B3g freq=  3137. Q=  0.000 lam=     0.0
 112 B2u freq=  3168. Q=  0.000 lam=     0.0 B2u freq=  3137. Q=  0.000 lam=     0.0
 113 B1u freq=  3179. Q=  0.000 lam=     0.0 B1u freq=  3150. Q=  0.000 lam=     0.0
 114 B3g freq=  3181. Q=  0.000 lam=     0.0 B3g freq=  3151. Q=  0.000 lam=     0.0
 115 Ag  freq=  3183. Q= -0.024 lam=     0.9 Ag  freq=  3157. Q= -0.020 lam=     0.7
 116 B1u freq=  3185. Q= -0.000 lam=     0.0 B2u freq=  3157. Q= -0.000 lam=     0.0
 117 B2u freq=  3188. Q= -0.000 lam=     0.0 B1u freq=  3165. Q= -0.000 lam=     0.0
 118 Ag  freq=  3190. Q=  0.003 lam=     0.0 Ag  freq=  3166. Q=  0.014 lam=     0.3
 119 B3g freq=  3194. Q= -0.000 lam=     0.0 B3g freq=  3170. Q= -0.000 lam=     0.0
 120 B1u freq=  3196. Q= -0.000 lam=     0.0 B1u freq=  3174. Q= -0.000 lam=     0.0
 121 B2u freq=  3201. Q=  0.000 lam=     0.0 B2u freq=  3182. Q=  0.000 lam=     0.0
 122 Ag  freq=  3202. Q=  0.006 lam=     0.1 Ag  freq=  3184. Q=  0.011 lam=     0.2
 123 B3g freq=  3208. Q= -0.000 lam=     0.0 B3g freq=  3189. Q= -0.000 lam=     0.0
 124 B1u freq=  3210. Q= -0.000 lam=     0.0 B2u freq=  3190. Q= -0.000 lam=     0.0
 125 B2u freq=  3211. Q=  0.000 lam=     0.0 B1u freq=  3191. Q=  0.000 lam=     0.0
 126 Ag  freq=  3214. Q=  0.035 lam=     2.0 Ag  freq=  3193. Q=  0.032 lam=     1.7

 total reorg energy (cm**-1, kcal/mol)=     1011.      999.      2.89      2.86
 Nber of molecules processed=           2
