 Enter ifcurve (0=recti, 1=orth curvi, 2=apprx curvi, -1 = skip
 And atom ordering flag, 0= never changes, 1= use the first order thenceforth,
  2= deduce it (does read on fail), 3= always read it
 Reading file: 
 ./CDT-PDI_1_C0S2.log                                                           
                                          
  Entering Gaussian System, Link 0=g16                                          
  
 Gaussian format, type: g94, g98, g03= F F F
  #P Geom=AllCheck Guess=TCheck SCRF=Check GenChk RB3LYP TD(FC,Read)/6-3    
 energy type= TD      
 Original G94 input coords:
  6  5.308986-33.831382-11.929852
  6  4.187894-33.181332-12.747159
  6  2.783005-33.565060-12.271300
  7  4.356413-31.695255-12.834127
  6  4.279361-30.929162-11.665495
  8  4.077673-31.444004-10.575436
  6  4.452005-29.465937-11.799500
  6  4.381437-28.666505-10.652820
  6  4.538415-27.298192-10.743594
  6  4.774952-26.654934-11.989358
  6  4.941204-25.227598-12.099333
  6  4.879701-24.366435-10.969417
  6  5.041112-23.001689-11.088372
  6  5.273006-22.419609-12.341923
  6  5.440014-20.955742-12.419787
  8  5.378113-20.260985-11.417832
  7  5.673354-20.397482-13.695524
  6  5.851822-19.005328-13.895499
  6  5.835726-18.012740-12.984062
  6  6.031534-16.618939-13.297330
  6  6.019447-15.577917-12.384108
  6  6.239852-14.318655-12.975887
  6  6.335625-12.876398-12.520855
  6  6.596026-12.155532-13.827889
  6  6.803035-10.821684-14.257446
  6  6.999831-10.742765-15.611461
 16  6.935520-12.306105-16.390817
  6  6.639563-13.068736-14.867731
  6  6.421704-14.392163-14.346462
 16  6.325358-16.013975-14.937940
  6  5.748967-21.187223-14.884841
  8  5.950900-20.664025-15.966690
  6  5.574859-22.639927-14.746650
  6  5.644682-23.440789-15.895114
  6  5.486839-24.808073-15.804687
  6  5.250072-25.452681-14.559752
  6  5.083800-26.879942-14.450223
  6  5.145006-27.741900-15.579039
  6  4.984191-29.107605-15.458742
  6  4.753596-29.687985-14.205830
  6  4.586300-31.152806-14.113057
  8  4.645521-31.861165-15.106154
  6  4.684773-28.871837-13.057511
  6  4.849144-27.457601-13.166777
  6  5.176235-24.649704-13.382383
  6  5.341418-23.235828-13.490341
  1  5.228169-34.918263-12.017796
  1  5.247910-33.562106-10.876203
  1  6.288733-33.538167-12.315765
  1  4.294006-33.501041-13.781400
  1  2.618919-33.284620-11.231663
  1  2.659805-34.647505-12.364650
  1  2.020585-33.088492-12.892913
  1  4.201654-29.150037 -9.701339
  1  4.477899-26.712141 -9.837516
  1  4.702585-24.779189 -9.986423
  1  4.992944-22.353584-10.223192
  1  6.017203-18.798763-14.943072
  1  5.668838-18.231162-11.940648
  1  5.854299-15.750290-11.327981
  1  7.147233-12.726354-11.800087
  1  5.412047-12.535194-12.039978
  1  6.809234 -9.953295-13.611527
  1  7.180086 -9.865384-16.212814
  1  5.824739-22.959064-16.847264
  1  5.547079-25.393265-16.711321
  1  5.321509-27.329740-16.562491
  1  5.032335-29.756592-16.323551
 nber atoms=          68
  Total Energy, E(TD-HF/TD-DFT) =  -2668.58118943                               
  
          32          49 "  -2668.58118943"
After scan for Atom:   Atom  AN      X      Y      Z        X      Y      Z        X      Y      Z   
After scan for Atom:   Atom  AN      X      Y      Z        X      Y      Z        X      Y      Z   
After scan for Atom:   Atom  AN      X      Y      Z        X      Y      Z        X      Y      Z   
After scan for Atom:   Atom  AN      X      Y      Z        X      Y      Z        X      Y      Z   
After scan for Atom:   Atom  AN      X      Y      Z        X      Y      Z        X      Y      Z   
After scan for Atom:   Atom  AN      X      Y      Z        X      Y      Z        X      Y      Z   
After scan for Atom:   Atom  AN      X      Y      Z        X      Y      Z        X      Y      Z   
After scan for Atom:   Atom  AN      X      Y      Z        X      Y      Z        X      Y      Z   
After scan for Atom:   Atom  AN      X      Y      Z        X      Y      Z        X      Y      Z   
After scan for Atom:   Atom  AN      X      Y      Z        X      Y      Z        X      Y      Z   
After scan for Atom:   Atom  AN      X      Y      Z        X      Y      Z        X      Y      Z   
After scan for Atom:   Atom  AN      X      Y      Z        X      Y      Z        X      Y      Z   
After scan for Atom:   Atom  AN      X      Y      Z        X      Y      Z        X      Y      Z   
After scan for Atom:   Atom  AN      X      Y      Z        X      Y      Z        X      Y      Z   
After scan for Atom:   Atom  AN      X      Y      Z        X      Y      Z        X      Y      Z   
After scan for Atom:   Atom  AN      X      Y      Z        X      Y      Z        X      Y      Z   
After scan for Atom:   Atom  AN      X      Y      Z        X      Y      Z        X      Y      Z   
After scan for Atom:   Atom  AN      X      Y      Z        X      Y      Z        X      Y      Z   
After scan for Atom:   Atom  AN      X      Y      Z        X      Y      Z        X      Y      Z   
After scan for Atom:   Atom  AN      X      Y      Z        X      Y      Z        X      Y      Z   
After scan for Atom:   Atom  AN      X      Y      Z        X      Y      Z        X      Y      Z   
After scan for Atom:   Atom  AN      X      Y      Z        X      Y      Z        X      Y      Z   
After scan for Atom:   Atom  AN      X      Y      Z        X      Y      Z        X      Y      Z   
After scan for Atom:   Atom  AN      X      Y      Z        X      Y      Z        X      Y      Z   
After scan for Atom:   Atom  AN      X      Y      Z        X      Y      Z        X      Y      Z   
After scan for Atom:   Atom  AN      X      Y      Z        X      Y      Z        X      Y      Z   
After scan for Atom:   Atom  AN      X      Y      Z        X      Y      Z        X      Y      Z   
After scan for Atom:   Atom  AN      X      Y      Z        X      Y      Z        X      Y      Z   
After scan for Atom:   Atom  AN      X      Y      Z        X      Y      Z        X      Y      Z   
After scan for Atom:   Atom  AN      X      Y      Z        X      Y      Z        X      Y      Z   
After scan for Atom:   Atom  AN      X      Y      Z        X      Y      Z        X      Y      Z   
After scan for Atom:   Atom  AN      X      Y      Z        X      Y      Z        X      Y      Z   
After scan for Atom:   Atom  AN      X      Y      Z        X      Y      Z        X      Y      Z   
After scan for Atom:   Atom  AN      X      Y      Z        X      Y      Z        X      Y      Z   
After scan for Atom:   Atom  AN      X      Y      Z        X      Y      Z        X      Y      Z   
After scan for Atom:   Atom  AN      X      Y      Z        X      Y      Z        X      Y      Z   
After scan for Atom:   Atom  AN      X      Y      Z        X      Y      Z        X      Y      Z   
After scan for Atom:   Atom  AN      X      Y      Z        X      Y      Z        X      Y      Z   
After scan for Atom:   Atom  AN      X      Y      Z        X      Y      Z        X      Y      Z   
After scan for Atom:   Atom  AN      X      Y      Z        X      Y      Z        X      Y      Z   
After scan for Atom:   Atom  AN      X      Y      Z        X      Y      Z        X      Y      Z   
After scan for Atom:   Atom  AN      X      Y      Z        X      Y      Z        X      Y      Z   
After scan for Atom:   Atom  AN      X      Y      Z        X      Y      Z        X      Y      Z   
After scan for Atom:   Atom  AN      X      Y      Z        X      Y      Z        X      Y      Z   
After scan for Atom:   Atom  AN      X      Y      Z        X      Y      Z        X      Y      Z   
After scan for Atom:   Atom  AN      X      Y      Z        X      Y      Z        X      Y      Z   
After scan for Atom:   Atom  AN      X      Y      Z        X      Y      Z        X      Y      Z   
After scan for Atom:   Atom  AN      X      Y      Z        X      Y      Z        X      Y      Z   
After scan for Atom:   Atom  AN      X      Y      Z        X      Y      Z        X      Y      Z   
After scan for Atom:   Atom  AN      X      Y      Z        X      Y      Z        X      Y      Z   
After scan for Atom:   Atom  AN      X      Y      Z        X      Y      Z        X      Y      Z   
After scan for Atom:   Atom  AN      X      Y      Z        X      Y      Z        X      Y      Z   
After scan for Atom:   Atom  AN      X      Y      Z        X      Y      Z        X      Y      Z   
After scan for Atom:   Atom  AN      X      Y      Z        X      Y      Z        X      Y      Z   
After scan for Atom:   Atom  AN      X      Y      Z        X      Y      Z        X      Y      Z   
After scan for Atom:   Atom  AN      X      Y      Z        X      Y      Z        X      Y      Z   
After scan for Atom:   Atom  AN      X      Y      Z        X      Y      Z        X      Y      Z   
After scan for Atom:   Atom  AN      X      Y      Z        X      Y      Z        X      Y      Z   
After scan for Atom:   Atom  AN      X      Y      Z        X      Y      Z        X      Y      Z   
After scan for Atom:   Atom  AN      X      Y      Z        X      Y      Z        X      Y      Z   
After scan for Atom:   Atom  AN      X      Y      Z        X      Y      Z        X      Y      Z   
After scan for Atom:   Atom  AN      X      Y      Z        X      Y      Z        X      Y      Z   
After scan for Atom:   Atom  AN      X      Y      Z        X      Y      Z        X      Y      Z   
After scan for Atom:   Atom  AN      X      Y      Z        X      Y      Z        X      Y      Z   
After scan for Atom:   Atom  AN      X      Y      Z        X      Y      Z        X      Y      Z   
After scan for Atom:   Atom  AN      X      Y      Z        X      Y      Z        X      Y      Z   
 g94    frequencies=
     0.0    0.0    0.0    0.0    0.0    0.0    7.9   14.2   22.6   26.1
    30.6   41.4   55.5   60.8   75.1   77.9   89.2   99.5  113.4  118.3
   140.9  145.7  146.5  167.9  181.4  188.1  196.5  209.8  222.1  224.2
   233.5  235.6  240.9  252.7  256.2  290.3  291.9  298.5  302.3  324.3
   356.9  386.2  389.9  395.4  416.0  417.5  432.6  434.6  439.1  440.3
   447.3  447.6  468.3  471.5  482.5  482.8  496.8  504.9  505.7  518.0
   534.7  542.8  569.5  569.5  574.5  574.8  581.6  594.1  604.6  615.9
   625.9  631.5  631.8  651.7  662.5  676.2  689.4  695.6  699.9  708.9
   713.0  726.5  739.3  741.7  747.0  757.4  763.6  802.2  807.4  809.6
   815.2  819.2  825.8  826.1  832.1  835.0  844.5  874.6  879.0  901.5
   914.8  935.7  936.4  945.6  948.7  956.8  962.8  974.6  976.7  987.7
   988.8  995.9 1000.8 1007.9 1029.3 1062.7 1093.1 1094.2 1109.2 1131.4
  1137.7 1149.0 1155.6 1160.3 1161.8 1170.3 1185.6 1195.3 1197.1 1198.6
  1223.8 1232.4 1235.6 1241.7 1243.1 1252.9 1264.5 1294.9 1311.4 1316.0
  1319.3 1344.1 1352.8 1360.6 1366.7 1372.4 1382.0 1384.0 1392.3 1400.4
  1403.8 1404.5 1416.4 1425.5 1430.1 1438.4 1440.6 1447.3 1458.3 1460.3
  1465.4 1466.3 1485.1 1493.5 1497.7 1505.1 1510.0 1522.4 1526.2 1540.3
  1546.0 1554.2 1571.1 1581.6 1599.6 1601.2 1619.9 1662.9 1683.8 1686.1
  1724.7 1729.8 3027.8 3034.3 3038.3 3055.3 3092.2 3095.4 3112.4 3132.4
  3142.8 3195.6 3197.9 3198.4 3198.9 3205.8 3206.1 3213.3 3213.7 3213.7
  3223.5 3224.0 3236.7 3245.9
 g94    symmetries=
                                                 A      A      A      A
       A      A      A      A      A      A      A      A      A      A
       A      A      A      A      A      A      A      A      A      A
       A      A      A      A      A      A      A      A      A      A
       A      A      A      A      A      A      A      A      A      A
       A      A      A      A      A      A      A      A      A      A
       A      A      A      A      A      A      A      A      A      A
       A      A      A      A      A      A      A      A      A      A
       A      A      A      A      A      A      A      A      A      A
       A      A      A      A      A      A      A      A      A      A
       A      A      A      A      A      A      A      A      A      A
       A      A      A      A      A      A      A      A      A      A
       A      A      A      A      A      A      A      A      A      A
       A      A      A      A      A      A      A      A      A      A
       A      A      A      A      A      A      A      A      A      A
       A      A      A      A      A      A      A      A      A      A
       A      A      A      A      A      A      A      A      A      A
       A      A      A      A      A      A      A      A      A      A
       A      A      A      A      A      A      A      A      A      A
       A      A      A      A      A      A      A      A      A      A
       A      A      A      A
 atomic masses:
 12.0000 12.0000 12.0000 14.0031 12.0000 15.9949 12.0000 12.0000 12.0000 12.0000
 12.0000 12.0000 12.0000 12.0000 12.0000 15.9949 14.0031 12.0000 12.0000 12.0000
 12.0000 12.0000 12.0000 12.0000 12.0000 12.0000 31.9721 12.0000 12.0000 31.9721
 12.0000 15.9949 12.0000 12.0000 12.0000 12.0000 12.0000 12.0000 12.0000 12.0000
 12.0000 15.9949 12.0000 12.0000 12.0000 12.0000  1.0078  1.0078  1.0078  1.0078
  1.0078  1.0078  1.0078  1.0078  1.0078  1.0078  1.0078  1.0078  1.0078  1.0078
  1.0078  1.0078  1.0078  1.0078  1.0078  1.0078  1.0078  1.0078
 looking for force constants in 
 ./CDT-PDI_1_C0S2.fchk                                                          
  
 Cartesian Force Constants                  R   N=       20910                  
  
 n3=         204       20910
 g94-fc frequencies=
    -0.9   -0.0    0.0    0.0    0.8    3.1    7.9   14.2   22.6   26.1
    30.6   41.4   55.5   60.8   75.1   77.9   89.2   99.5  113.4  118.3
   140.9  145.7  146.5  167.9  181.4  188.1  196.5  209.8  222.1  224.2
   233.6  235.6  240.9  252.7  256.2  290.3  291.9  298.5  302.3  324.4
   356.9  386.2  389.9  395.4  416.0  417.5  432.6  434.6  439.1  440.3
   447.3  447.7  468.3  471.5  482.6  482.8  496.8  504.9  505.7  518.0
   534.7  542.8  569.5  569.6  574.5  574.8  581.6  594.1  604.6  616.0
   625.9  631.5  631.8  651.7  662.5  676.2  689.4  695.6  700.0  708.9
   713.0  726.6  739.3  741.7  747.0  757.4  763.6  802.2  807.5  809.6
   815.2  819.2  825.9  826.1  832.1  835.0  844.5  874.6  879.0  901.5
   914.8  935.7  936.4  945.6  948.7  956.8  962.8  974.7  976.7  987.7
   988.9  995.9 1000.8 1007.9 1029.3 1062.7 1093.1 1094.2 1109.2 1131.4
  1137.7 1149.0 1155.6 1160.3 1161.8 1170.3 1185.6 1195.3 1197.2 1198.7
  1223.9 1232.4 1235.6 1241.7 1243.1 1252.9 1264.5 1294.9 1311.4 1316.0
  1319.4 1344.1 1352.8 1360.6 1366.7 1372.4 1382.1 1384.1 1392.3 1400.4
  1403.9 1404.6 1416.4 1425.5 1430.1 1438.5 1440.6 1447.4 1458.3 1460.4
  1465.4 1466.3 1485.1 1493.6 1497.7 1505.1 1510.1 1522.5 1526.2 1540.3
  1546.0 1554.3 1571.1 1581.6 1599.6 1601.2 1619.9 1662.9 1683.9 1686.2
  1724.7 1729.9 3027.8 3034.3 3038.4 3055.3 3092.3 3095.5 3112.5 3132.5
  3142.8 3195.7 3198.0 3198.4 3199.0 3205.8 3206.1 3213.4 3213.7 3213.8
  3223.6 3224.1 3236.7 3245.9
 at 99999: n3=         204
 symm operator            1 :  F  nop=           0
 symm operator            2 :  F  nop=           0
 symm operator            3 :  F  nop=           0
 symm operator            4 :  F  nop=           0
 symm operator            5 :  F  nop=           0
 symm operator            6 :  F  nop=           0
 symm operator            7 :  F  nop=           0
 The point group of the molecule is  C1
 Symmetry rotation matrix:
   1.00000   0.00000   0.00000
   0.00000   1.00000   0.00000
   0.00000   0.00000   1.00000

 Projecting out zero-frequency components
 generating redundant internal coords
         300        3600          68
 search for int coords
   1 str   2   1   1.532
   2 str   3   2   1.532
   3 str   4   2   1.498
   4 str   5   4   1.399
   5 str   6   5   1.222
   6 str   7   5   1.479
   7 str   8   7   1.400
   8 str   9   8   1.380
   9 str  10   9   1.422
  10 str  11  10   1.441
  11 str  12  11   1.422
  12 str  13  12   1.379
  13 str  14  13   1.401
  14 str  15  14   1.475
  15 str  16  15   1.221
  16 str  17  15   1.412
  17 str  18  17   1.418
  18 str  19  18   1.348
  19 str  20  19   1.442
  20 str  21  20   1.385
  21 str  22  21   1.409
  22 str  23  22   1.515
  23 str  24  23   1.515
  24 str  25  24   1.417
  25 str  26  25   1.371
  26 str  27  26   1.748
  27 str  28  24   1.385
  28 str  28  27   1.729
  29 str  29  22   1.385
  30 str  29  28   1.439
  31 str  30  20   1.773
  32 str  30  29   1.729
  33 str  31  17   1.430
  34 str  32  31   1.219
  35 str  33  31   1.470
  36 str  34  33   1.402
  37 str  35  34   1.379
  38 str  36  35   1.422
  39 str  37  36   1.441
  40 str  38  37   1.422
  41 str  39  38   1.380
  42 str  40  39   1.400
  43 str  41   4   1.408
  44 str  41  40   1.477
  45 str  42  41   1.221
  46 str  43   7   1.411
  47 str  43  40   1.410
  48 str  44  10   1.427
  49 str  44  37   1.427
  50 str  44  43   1.428
  51 str  45  11   1.427
  52 str  45  36   1.427
  53 str  46  14   1.411
  54 str  46  33   1.410
  55 str  46  45   1.428
  56 str  47   1   1.093
  57 str  48   1   1.089
  58 str  49   1   1.093
  59 str  50   2   1.088
  60 str  51   3   1.089
  61 str  52   3   1.093
  62 str  53   3   1.093
  63 str  54   8   1.082
  64 str  55   9   1.081
  65 str  56  12   1.081
  66 str  57  13   1.082
  67 str  58  18   1.080
  68 str  59  19   1.079
  69 str  60  21   1.083
  70 str  61  23   1.096
  71 str  62  23   1.096
  72 str  63  25   1.082
  73 str  64  26   1.079
  74 str  65  34   1.082
  75 str  66  35   1.081
  76 str  67  38   1.081
  77 str  68  39   1.082
 nber stretches=          77
  78 ben   1   2   3
  79 prop tor   1   2   3  51
  80 prop tor   1   2   3  52
  81 prop tor   1   2   3  53
  82 ben   1   2   4
  83 prop tor   1   2   4   5
  84 prop tor   1   2   4  41
  85 ben   1   2  50
  86 ben   2   1  47
  87 ben   2   1  48
  88 ben   2   1  49
  89 ben   2   3  51
  90 ben   2   3  52
  91 ben   2   3  53
  92 ben   2   4   5
  93 prop tor   2   4   5   6
  94 prop tor   2   4   5   7
  95 ben   2   4  41
  96 prop tor   2   4  41  40
  97 prop tor   2   4  41  42
  98 ben   3   2   4
  99 prop tor   3   2   4   5
 100 prop tor   3   2   4  41
 101 ben   3   2  50
 102 prop tor   4   2   3  51
 103 prop tor   4   2   3  52
 104 prop tor   4   2   3  53
 105 ben   4   2  50
 106 ben   4   5   6
 107 ben   4   5   7
 108 prop tor   4   5   7   8
 109 prop tor   4   5   7  43
 110 ben   4  41  40
 111 ben   4  41  42
 112 ben   5   4  41
 113 prop tor   5   4  41  40
 114 prop tor   5   4  41  42
 115 ben   5   7   8
 116 prop tor   5   7   8   9
 117 prop tor   5   7   8  54
 118 ben   5   7  43
 119 prop tor   5   7  43  40
 120 prop tor   5   7  43  44
 121 ben   6   5   7
 122 prop tor   6   5   7   8
 123 prop tor   6   5   7  43
 124 ben   7   8   9
 125 prop tor   7   8   9  10
 126 prop tor   7   8   9  55
 127 ben   7   8  54
 128 ben   7  43  40
 129 ben   7  43  44
 130 prop tor   7  43  44  10
 131 prop tor   7  43  44  37
 132 ben   8   7  43
 133 prop tor   8   7  43  40
 134 prop tor   8   7  43  44
 135 ben   8   9  10
 136 prop tor   8   9  10  11
 137 prop tor   8   9  10  44
 138 ben   8   9  55
 139 ben   9   8  54
 140 ben   9  10  11
 141 prop tor   9  10  11  12
 142 prop tor   9  10  11  45
 143 ben   9  10  44
 144 prop tor   9  10  44  37
 145 prop tor   9  10  44  43
 146 ben  10   9  55
 147 ben  10  11  12
 148 prop tor  10  11  12  13
 149 prop tor  10  11  12  56
 150 ben  10  11  45
 151 prop tor  10  11  45  36
 152 prop tor  10  11  45  46
 153 ben  10  44  37
 154 ben  10  44  43
 155 ben  11  10  44
 156 prop tor  11  10  44  37
 157 prop tor  11  10  44  43
 158 ben  11  12  13
 159 prop tor  11  12  13  14
 160 prop tor  11  12  13  57
 161 ben  11  12  56
 162 ben  11  45  36
 163 ben  11  45  46
 164 prop tor  11  45  46  14
 165 prop tor  11  45  46  33
 166 ben  12  11  45
 167 prop tor  12  11  45  36
 168 prop tor  12  11  45  46
 169 ben  12  13  14
 170 prop tor  12  13  14  15
 171 prop tor  12  13  14  46
 172 ben  12  13  57
 173 ben  13  12  56
 174 ben  13  14  15
 175 prop tor  13  14  15  16
 176 prop tor  13  14  15  17
 177 ben  13  14  46
 178 prop tor  13  14  46  33
 179 prop tor  13  14  46  45
 180 ben  14  13  57
 181 ben  14  15  16
 182 ben  14  15  17
 183 prop tor  14  15  17  18
 184 prop tor  14  15  17  31
 185 ben  14  46  33
 186 ben  14  46  45
 187 ben  15  14  46
 188 prop tor  15  14  46  33
 189 prop tor  15  14  46  45
 190 ben  15  17  18
 191 prop tor  15  17  18  19
 192 prop tor  15  17  18  58
 193 ben  15  17  31
 194 prop tor  15  17  31  32
 195 prop tor  15  17  31  33
 196 ben  16  15  17
 197 prop tor  16  15  17  18
 198 prop tor  16  15  17  31
 199 ben  17  18  19
 200 prop tor  17  18  19  20
 201 prop tor  17  18  19  59
 202 ben  17  18  58
 203 ben  17  31  32
 204 ben  17  31  33
 205 prop tor  17  31  33  34
 206 prop tor  17  31  33  46
 207 ben  18  17  31
 208 prop tor  18  17  31  32
 209 prop tor  18  17  31  33
 210 ben  18  19  20
 211 prop tor  18  19  20  21
 212 prop tor  18  19  20  30
 213 ben  18  19  59
 214 ben  19  18  58
 215 ben  19  20  21
 216 prop tor  19  20  21  22
 217 prop tor  19  20  21  60
 218 ben  19  20  30
 219 prop tor  19  20  30  29
 220 ben  20  19  59
 221 ben  20  21  22
 222 prop tor  20  21  22  23
 223 prop tor  20  21  22  29
 224 ben  20  21  60
 225 ben  20  30  29
 226 ben  21  20  30
 227 prop tor  21  20  30  29
 228 ben  21  22  23
 229 prop tor  21  22  23  24
 230 prop tor  21  22  23  61
 231 prop tor  21  22  23  62
 232 ben  21  22  29
 233 prop tor  21  22  29  28
 234 prop tor  21  22  29  30
 235 ben  22  21  60
 236 ben  22  23  24
 237 prop tor  22  23  24  25
 238 prop tor  22  23  24  28
 239 ben  22  23  61
 240 ben  22  23  62
 241 ben  22  29  28
 242 ben  22  29  30
 243 prop tor  22  29  30  20
 244 ben  23  22  29
 245 prop tor  23  22  29  28
 246 prop tor  23  22  29  30
 247 ben  23  24  25
 248 prop tor  23  24  25  26
 249 prop tor  23  24  25  63
 250 ben  23  24  28
 251 prop tor  23  24  28  27
 252 prop tor  23  24  28  29
 253 ben  24  23  61
 254 ben  24  23  62
 255 ben  24  25  26
 256 prop tor  24  25  26  27
 257 prop tor  24  25  26  64
 258 ben  24  25  63
 259 ben  24  28  27
 260 ben  24  28  29
 261 prop tor  24  28  29  22
 262 prop tor  24  28  29  30
 263 ben  25  24  28
 264 prop tor  25  24  28  27
 265 prop tor  25  24  28  29
 266 ben  25  26  27
 267 prop tor  25  26  27  28
 268 ben  25  26  64
 269 ben  26  25  63
 270 ben  26  27  28
 271 prop tor  26  27  28  24
 272 prop tor  26  27  28  29
 273 ben  27  26  64
 274 ben  27  28  29
 275 prop tor  27  28  29  22
 276 prop tor  27  28  29  30
 277 prop tor  28  24  25  26
 278 prop tor  28  24  25  63
 279 ben  28  29  30
 280 prop tor  28  29  30  20
 281 prop tor  29  22  23  24
 282 prop tor  29  22  23  61
 283 prop tor  29  22  23  62
 284 prop tor  30  20  21  22
 285 prop tor  30  20  21  60
 286 prop tor  31  17  18  19
 287 prop tor  31  17  18  58
 288 ben  31  33  34
 289 prop tor  31  33  34  35
 290 prop tor  31  33  34  65
 291 ben  31  33  46
 292 prop tor  31  33  46  14
 293 prop tor  31  33  46  45
 294 ben  32  31  33
 295 prop tor  32  31  33  34
 296 prop tor  32  31  33  46
 297 ben  33  34  35
 298 prop tor  33  34  35  36
 299 prop tor  33  34  35  66
 300 ben  33  34  65
 301 ben  33  46  45
 302 ben  34  33  46
 303 prop tor  34  33  46  14
 304 prop tor  34  33  46  45
 305 ben  34  35  36
 306 prop tor  34  35  36  37
 307 prop tor  34  35  36  45
 308 ben  34  35  66
 309 ben  35  34  65
 310 ben  35  36  37
 311 prop tor  35  36  37  38
 312 prop tor  35  36  37  44
 313 ben  35  36  45
 314 prop tor  35  36  45  11
 315 prop tor  35  36  45  46
 316 ben  36  35  66
 317 ben  36  37  38
 318 prop tor  36  37  38  39
 319 prop tor  36  37  38  67
 320 ben  36  37  44
 321 prop tor  36  37  44  10
 322 prop tor  36  37  44  43
 323 ben  36  45  46
 324 prop tor  36  45  46  14
 325 prop tor  36  45  46  33
 326 ben  37  36  45
 327 prop tor  37  36  45  11
 328 prop tor  37  36  45  46
 329 ben  37  38  39
 330 prop tor  37  38  39  40
 331 prop tor  37  38  39  68
 332 ben  37  38  67
 333 ben  37  44  43
 334 ben  38  37  44
 335 prop tor  38  37  44  10
 336 prop tor  38  37  44  43
 337 ben  38  39  40
 338 prop tor  38  39  40  41
 339 prop tor  38  39  40  43
 340 ben  38  39  68
 341 ben  39  38  67
 342 ben  39  40  41
 343 prop tor  39  40  41   4
 344 prop tor  39  40  41  42
 345 ben  39  40  43
 346 prop tor  39  40  43   7
 347 prop tor  39  40  43  44
 348 ben  40  39  68
 349 ben  40  41  42
 350 ben  40  43  44
 351 prop tor  40  43  44  10
 352 prop tor  40  43  44  37
 353 prop tor  41   4   5   6
 354 prop tor  41   4   5   7
 355 ben  41  40  43
 356 prop tor  41  40  43   7
 357 prop tor  41  40  43  44
 358 prop tor  43   7   8   9
 359 prop tor  43   7   8  54
 360 prop tor  43  40  41   4
 361 prop tor  43  40  41  42
 362 prop tor  44  10  11  12
 363 prop tor  44  10  11  45
 364 prop tor  44  37  38  39
 365 prop tor  44  37  38  67
 366 prop tor  45  11  12  13
 367 prop tor  45  11  12  56
 368 prop tor  45  36  37  38
 369 prop tor  45  36  37  44
 370 prop tor  46  14  15  16
 371 prop tor  46  14  15  17
 372 prop tor  46  33  34  35
 373 prop tor  46  33  34  65
 374 prop tor  47   1   2   3
 375 prop tor  47   1   2   4
 376 prop tor  47   1   2  50
 377 ben  47   1  48
 378 ben  47   1  49
 379 prop tor  48   1   2   3
 380 prop tor  48   1   2   4
 381 prop tor  48   1   2  50
 382 ben  48   1  49
 383 prop tor  49   1   2   3
 384 prop tor  49   1   2   4
 385 prop tor  49   1   2  50
 386 prop tor  50   2   3  51
 387 prop tor  50   2   3  52
 388 prop tor  50   2   3  53
 389 prop tor  50   2   4   5
 390 prop tor  50   2   4  41
 391 ben  51   3  52
 392 ben  51   3  53
 393 ben  52   3  53
 394 prop tor  54   8   9  10
 395 prop tor  54   8   9  55
 396 prop tor  55   9  10  11
 397 prop tor  55   9  10  44
 398 prop tor  56  12  13  14
 399 prop tor  56  12  13  57
 400 prop tor  57  13  14  15
 401 prop tor  57  13  14  46
 402 prop tor  58  18  19  20
 403 prop tor  58  18  19  59
 404 prop tor  59  19  20  21
 405 prop tor  59  19  20  30
 406 prop tor  60  21  22  23
 407 prop tor  60  21  22  29
 408 prop tor  61  23  24  25
 409 prop tor  61  23  24  28
 410 ben  61  23  62
 411 prop tor  62  23  24  25
 412 prop tor  62  23  24  28
 413 prop tor  63  25  26  27
 414 prop tor  63  25  26  64
 415 prop tor  64  26  27  28
 416 prop tor  65  34  35  36
 417 prop tor  65  34  35  66
 418 prop tor  66  35  36  37
 419 prop tor  66  35  36  45
 420 prop tor  67  38  39  40
 421 prop tor  67  38  39  68
 422 prop tor  68  39  40  41
 423 prop tor  68  39  40  43
 nber bend=             134
 nber lin bend=           0
 nber prop tor=         212
 nber impr tor=           0
 nber tot redund int=         423
 Eigenvalues of G in red int coords
    Gval -0.00000000 -0.00000000 -0.00000000 -0.00000000 -0.00000000 -0.00000000 -0.00000000 -0.00000000
    Gval -0.00000000 -0.00000000 -0.00000000 -0.00000000 -0.00000000 -0.00000000 -0.00000000 -0.00000000
    Gval -0.00000000 -0.00000000 -0.00000000 -0.00000000 -0.00000000 -0.00000000 -0.00000000 -0.00000000
    Gval -0.00000000 -0.00000000 -0.00000000 -0.00000000 -0.00000000 -0.00000000 -0.00000000 -0.00000000
    Gval -0.00000000 -0.00000000 -0.00000000 -0.00000000 -0.00000000 -0.00000000 -0.00000000 -0.00000000
    Gval -0.00000000 -0.00000000 -0.00000000 -0.00000000 -0.00000000 -0.00000000 -0.00000000 -0.00000000
    Gval -0.00000000 -0.00000000 -0.00000000 -0.00000000 -0.00000000 -0.00000000 -0.00000000 -0.00000000
    Gval -0.00000000 -0.00000000 -0.00000000 -0.00000000 -0.00000000 -0.00000000 -0.00000000 -0.00000000
    Gval -0.00000000 -0.00000000 -0.00000000 -0.00000000 -0.00000000 -0.00000000 -0.00000000 -0.00000000
    Gval -0.00000000 -0.00000000 -0.00000000 -0.00000000 -0.00000000 -0.00000000 -0.00000000 -0.00000000
    Gval -0.00000000 -0.00000000 -0.00000000 -0.00000000 -0.00000000 -0.00000000 -0.00000000 -0.00000000
    Gval -0.00000000 -0.00000000 -0.00000000 -0.00000000 -0.00000000 -0.00000000 -0.00000000 -0.00000000
    Gval -0.00000000 -0.00000000 -0.00000000 -0.00000000 -0.00000000 -0.00000000 -0.00000000 -0.00000000
    Gval -0.00000000 -0.00000000 -0.00000000 -0.00000000 -0.00000000 -0.00000000 -0.00000000 -0.00000000
    Gval  0.00000000  0.00000000  0.00000000  0.00000000  0.00000000  0.00000000  0.00000000  0.00000000
    Gval  0.00000000  0.00000000  0.00000000  0.00000000  0.00000000  0.00000000  0.00000000  0.00000000
    Gval  0.00000000  0.00000000  0.00000000  0.00000000  0.00000000  0.00000000  0.00000000  0.00000000
    Gval  0.00000000  0.00000000  0.00000000  0.00000000  0.00000000  0.00000000  0.00000000  0.00000000
    Gval  0.00000000  0.00000000  0.00000000  0.00000000  0.00000000  0.00000000  0.00000000  0.00000000
    Gval  0.00000000  0.00000000  0.00000000  0.00000000  0.00000000  0.00000000  0.00000000  0.00000000
    Gval  0.00000000  0.00000000  0.00000000  0.00000000  0.00000000  0.00000000  0.00000000  0.00000000
    Gval  0.00000000  0.00000000  0.00000000  0.00000000  0.00000000  0.00000000  0.00000000  0.00000000
    Gval  0.00000000  0.00000000  0.00000000  0.00000000  0.00000000  0.00000000  0.00000000  0.00000000
    Gval  0.00000000  0.00000000  0.00000000  0.00000000  0.00000000  0.00000000  0.00000000  0.00000000
    Gval  0.00000000  0.00000000  0.00000000  0.00000000  0.00000000  0.00000000  0.00000000  0.00000000
    Gval  0.00000000  0.00000000  0.00000000  0.00000000  0.00000000  0.00000000  0.00000000  0.00000000
    Gval  0.00000000  0.00000000  0.00000000  0.00000000  0.00000000  0.00000000  0.00000000  0.00000000
    Gval  0.00000000  0.00000000  0.00000000  0.00000000  0.00000000  0.00000000  0.00000000  0.00000000
    Gval  0.00000000  0.00000011  0.00000037  0.00000072  0.00000121  0.00000263  0.00000276  0.00000365
    Gval  0.00000382  0.00000580  0.00000887  0.00000928  0.00000970  0.00001107  0.00001255  0.00001442
    Gval  0.00001585  0.00001680  0.00001767  0.00001827  0.00001879  0.00001937  0.00002149  0.00002350
    Gval  0.00002397  0.00002469  0.00002545  0.00002905  0.00003234  0.00003259  0.00003450  0.00003622
    Gval  0.00003937  0.00003994  0.00004820  0.00004885  0.00005109  0.00005194  0.00005320  0.00005375
    Gval  0.00005835  0.00005879  0.00005989  0.00006385  0.00006506  0.00006822  0.00007069  0.00007358
    Gval  0.00008129  0.00008199  0.00008232  0.00008397  0.00008605  0.00008729  0.00008867  0.00009296
    Gval  0.00009338  0.00009500  0.00009851  0.00010169  0.00011282  0.00011533  0.00011972  0.00012247
    Gval  0.00013398  0.00013416  0.00013643  0.00013727  0.00014050  0.00015409  0.00015412  0.00015899
    Gval  0.00016512  0.00016524  0.00018124  0.00018832  0.00019364  0.00020816  0.00020907  0.00022184
    Gval  0.00022807  0.00023010  0.00025074  0.00026965  0.00028436  0.00028531  0.00028944  0.00029468
    Gval  0.00030095  0.00031614  0.00034080  0.00034488  0.00035522  0.00035921  0.00037255  0.00038227
    Gval  0.00038393  0.00038946  0.00039168  0.00039512  0.00041063  0.00041169  0.00042581  0.00042795
    Gval  0.00043091  0.00043170  0.00043554  0.00044062  0.00044220  0.00046218  0.00046770  0.00046891
    Gval  0.00049573  0.00050897  0.00053391  0.00053716  0.00054701  0.00055410  0.00055601  0.00055603
    Gval  0.00058331  0.00058942  0.00059634  0.00059676  0.00059850  0.00059923  0.00059957  0.00059984
    Gval  0.00060219  0.00061040  0.00062283  0.00062530  0.00064071  0.00064422  0.00064497  0.00064537
    Gval  0.00064683  0.00065509  0.00067328  0.00069407  0.00069774  0.00079888  0.00081503  0.00091411
    Gval  0.00095538  0.00099419  0.00107272  0.00108141  0.00109332  0.00109427  0.00109494  0.00109546
    Gval  0.00109703  0.00113896  0.00114300  0.00116530  0.00116558  0.00116581  0.00116613  0.00117122
    Gval  0.00117182  0.00117379  0.00118415  0.00121014  0.00126299  0.00129537  0.00133579  0.00138174
    Gval  0.00138712  0.00148155  0.00156592  0.00166015  0.00171598  0.00177791  0.00191771  0.00195361
    Gval  0.00208419  0.00228109  0.00233946  0.00252220  0.00252346  0.00255947  0.00264732  0.00279137
    Gval  0.00286076  0.00292173  0.00302344  0.00302569  0.00304210  0.00308123  0.00309617  0.00323529
    Gval  0.00367382  0.00367587  0.00372077  0.00372262  0.00372994  0.00394523  0.00408007
  1.075246304954178E-007  1.075246304954178E-007
  3.669661227996517E-007  1.075246304954178E-007
  7.217805220820407E-007  1.075246304954178E-007
  1.210991023357478E-006  1.075246304954178E-007
  2.626275710174616E-006  1.075246304954178E-007
  2.755837379554982E-006  1.075246304954178E-007
  3.653679297178785E-006  1.075246304954178E-007
  3.815878994259961E-006  1.075246304954178E-007
  5.796758624967540E-006  1.075246304954178E-007
  8.872520030137591E-006  1.075246304954178E-007
  9.278109815758869E-006  1.075246304954178E-007
  9.702768129577620E-006  1.075246304954178E-007
  1.107283552638585E-005  1.075246304954178E-007
  1.254845456546005E-005  1.075246304954178E-007
  1.442260959338798E-005  1.075246304954178E-007
  1.584666679899903E-005  1.075246304954178E-007
  1.679521463772543E-005  1.075246304954178E-007
  1.766729385814363E-005  1.075246304954178E-007
  1.826998770651934E-005  1.075246304954178E-007
  1.879191469149767E-005  1.075246304954178E-007
  1.937458359841897E-005  1.075246304954178E-007
  2.148876315252844E-005  1.075246304954178E-007
  2.350066060649563E-005  1.075246304954178E-007
  2.396846348715065E-005  1.075246304954178E-007
  2.469402898113911E-005  1.075246304954178E-007
  2.545105471405323E-005  1.075246304954178E-007
  2.905269927970498E-005  1.075246304954178E-007
  3.234321630362585E-005  1.075246304954178E-007
  3.258967369104456E-005  1.075246304954178E-007
  3.450035161630291E-005  1.075246304954178E-007
  3.621519816549647E-005  1.075246304954178E-007
  3.936509072782415E-005  1.075246304954178E-007
  3.993989250077629E-005  1.075246304954178E-007
  4.819895349932256E-005  1.075246304954178E-007
  4.884690921474481E-005  1.075246304954178E-007
  5.109450219920428E-005  1.075246304954178E-007
  5.194164608675424E-005  1.075246304954178E-007
  5.320091221412000E-005  1.075246304954178E-007
  5.375237703701023E-005  1.075246304954178E-007
  5.834546089749277E-005  1.075246304954178E-007
  5.878977611178960E-005  1.075246304954178E-007
  5.989195677196556E-005  1.075246304954178E-007
  6.384507610344293E-005  1.075246304954178E-007
  6.506228938717436E-005  1.075246304954178E-007
  6.821672130243592E-005  1.075246304954178E-007
  7.069069650527327E-005  1.075246304954178E-007
  7.357992874781937E-005  1.075246304954178E-007
  8.129419800329280E-005  1.075246304954178E-007
  8.198689926441598E-005  1.075246304954178E-007
  8.231518459719984E-005  1.075246304954178E-007
  8.396584429130154E-005  1.075246304954178E-007
  8.605066736520802E-005  1.075246304954178E-007
  8.729280457056660E-005  1.075246304954178E-007
  8.866960126209061E-005  1.075246304954178E-007
  9.296433901065032E-005  1.075246304954178E-007
  9.337751880678582E-005  1.075246304954178E-007
  9.500425301849916E-005  1.075246304954178E-007
  9.851443322832835E-005  1.075246304954178E-007
  1.016913365027619E-004  1.075246304954178E-007
  1.128216589114835E-004  1.075246304954178E-007
  1.153269989768921E-004  1.075246304954178E-007
  1.197233146877505E-004  1.075246304954178E-007
  1.224708940265730E-004  1.075246304954178E-007
  1.339832049819840E-004  1.075246304954178E-007
  1.341615075754991E-004  1.075246304954178E-007
  1.364326942272429E-004  1.075246304954178E-007
  1.372704211943604E-004  1.075246304954178E-007
  1.405041451763085E-004  1.075246304954178E-007
  1.540911120299865E-004  1.075246304954178E-007
  1.541198256467431E-004  1.075246304954178E-007
  1.589909540659274E-004  1.075246304954178E-007
  1.651205507178776E-004  1.075246304954178E-007
  1.652417771391219E-004  1.075246304954178E-007
  1.812445717796224E-004  1.075246304954178E-007
  1.883227812219826E-004  1.075246304954178E-007
  1.936400727554315E-004  1.075246304954178E-007
  2.081587487068921E-004  1.075246304954178E-007
  2.090662130712522E-004  1.075246304954178E-007
  2.218384213558490E-004  1.075246304954178E-007
  2.280665965251420E-004  1.075246304954178E-007
  2.301034094637859E-004  1.075246304954178E-007
  2.507375456778573E-004  1.075246304954178E-007
  2.696538205640703E-004  1.075246304954178E-007
  2.843637395461224E-004  1.075246304954178E-007
  2.853146610176297E-004  1.075246304954178E-007
  2.894393460009208E-004  1.075246304954178E-007
  2.946831459386238E-004  1.075246304954178E-007
  3.009548458924411E-004  1.075246304954178E-007
  3.161368667707234E-004  1.075246304954178E-007
  3.408012387994626E-004  1.075246304954178E-007
  3.448823321685601E-004  1.075246304954178E-007
  3.552180340581600E-004  1.075246304954178E-007
  3.592084468330232E-004  1.075246304954178E-007
  3.725544097453682E-004  1.075246304954178E-007
  3.822673905557658E-004  1.075246304954178E-007
  3.839278956694820E-004  1.075246304954178E-007
  3.894600586579053E-004  1.075246304954178E-007
  3.916764078667711E-004  1.075246304954178E-007
  3.951213837367567E-004  1.075246304954178E-007
  4.106259175116927E-004  1.075246304954178E-007
  4.116871731432551E-004  1.075246304954178E-007
  4.258091970402045E-004  1.075246304954178E-007
  4.279513192586993E-004  1.075246304954178E-007
  4.309093495427336E-004  1.075246304954178E-007
  4.316951565399524E-004  1.075246304954178E-007
  4.355395511945712E-004  1.075246304954178E-007
  4.406165333159416E-004  1.075246304954178E-007
  4.422015662680598E-004  1.075246304954178E-007
  4.621802318921190E-004  1.075246304954178E-007
  4.676983082267090E-004  1.075246304954178E-007
  4.689101693495527E-004  1.075246304954178E-007
  4.957260535166527E-004  1.075246304954178E-007
  5.089710770335281E-004  1.075246304954178E-007
  5.339112048609877E-004  1.075246304954178E-007
  5.371639501957350E-004  1.075246304954178E-007
  5.470081169956691E-004  1.075246304954178E-007
  5.540955849905141E-004  1.075246304954178E-007
  5.560136563437972E-004  1.075246304954178E-007
  5.560269592755725E-004  1.075246304954178E-007
  5.833081261621391E-004  1.075246304954178E-007
  5.894246341483579E-004  1.075246304954178E-007
  5.963369124206672E-004  1.075246304954178E-007
  5.967642720044527E-004  1.075246304954178E-007
  5.984996172170553E-004  1.075246304954178E-007
  5.992303991729449E-004  1.075246304954178E-007
  5.995704880160119E-004  1.075246304954178E-007
  5.998422559443816E-004  1.075246304954178E-007
  6.021859135259198E-004  1.075246304954178E-007
  6.104034428147516E-004  1.075246304954178E-007
  6.228327129880818E-004  1.075246304954178E-007
  6.252954761254040E-004  1.075246304954178E-007
  6.407118440909212E-004  1.075246304954178E-007
  6.442213719034982E-004  1.075246304954178E-007
  6.449713023363341E-004  1.075246304954178E-007
  6.453706888005370E-004  1.075246304954178E-007
  6.468274114704529E-004  1.075246304954178E-007
  6.550866180659970E-004  1.075246304954178E-007
  6.732777237154071E-004  1.075246304954178E-007
  6.940726934426367E-004  1.075246304954178E-007
  6.977410534812544E-004  1.075246304954178E-007
  7.988817768436743E-004  1.075246304954178E-007
  8.150286407334155E-004  1.075246304954178E-007
  9.141114982766726E-004  1.075246304954178E-007
  9.553821891921339E-004  1.075246304954178E-007
  9.941861449366939E-004  1.075246304954178E-007
  1.072720395986839E-003  1.075246304954178E-007
  1.081412211184958E-003  1.075246304954178E-007
  1.093316193627217E-003  1.075246304954178E-007
  1.094270776561780E-003  1.075246304954178E-007
  1.094935325881226E-003  1.075246304954178E-007
  1.095457174998133E-003  1.075246304954178E-007
  1.097027121704603E-003  1.075246304954178E-007
  1.138955047038750E-003  1.075246304954178E-007
  1.143002729845791E-003  1.075246304954178E-007
  1.165299049666472E-003  1.075246304954178E-007
  1.165584029425908E-003  1.075246304954178E-007
  1.165812535830542E-003  1.075246304954178E-007
  1.166134939048807E-003  1.075246304954178E-007
  1.171221081479226E-003  1.075246304954178E-007
  1.171816920916415E-003  1.075246304954178E-007
  1.173794304767923E-003  1.075246304954178E-007
  1.184147474573640E-003  1.075246304954178E-007
  1.210140670171724E-003  1.075246304954178E-007
  1.262986057469389E-003  1.075246304954178E-007
  1.295374892139910E-003  1.075246304954178E-007
  1.335793453604404E-003  1.075246304954178E-007
  1.381742071221332E-003  1.075246304954178E-007
  1.387116241699276E-003  1.075246304954178E-007
  1.481553231126665E-003  1.075246304954178E-007
  1.565923966098809E-003  1.075246304954178E-007
  1.660151337107557E-003  1.075246304954178E-007
  1.715975264291019E-003  1.075246304954178E-007
  1.777908986192704E-003  1.075246304954178E-007
  1.917705045581566E-003  1.075246304954178E-007
  1.953613581823309E-003  1.075246304954178E-007
  2.084194702877130E-003  1.075246304954178E-007
  2.281093042565953E-003  1.075246304954178E-007
  2.339457621734276E-003  1.075246304954178E-007
  2.522199311350923E-003  1.075246304954178E-007
  2.523464128135470E-003  1.075246304954178E-007
  2.559468786686502E-003  1.075246304954178E-007
  2.647321337550337E-003  1.075246304954178E-007
  2.791373941454289E-003  1.075246304954178E-007
  2.860764168177340E-003  1.075246304954178E-007
  2.921725450254384E-003  1.075246304954178E-007
  3.023442019185586E-003  1.075246304954178E-007
  3.025694990264650E-003  1.075246304954178E-007
  3.042101277615581E-003  1.075246304954178E-007
  3.081226745197508E-003  1.075246304954178E-007
  3.096172166083221E-003  1.075246304954178E-007
  3.235287171972204E-003  1.075246304954178E-007
  3.673822610484058E-003  1.075246304954178E-007
  3.675869799791142E-003  1.075246304954178E-007
  3.720774196543932E-003  1.075246304954178E-007
  3.722623624811990E-003  1.075246304954178E-007
  3.729941416855265E-003  1.075246304954178E-007
  3.945233509574556E-003  1.075246304954178E-007
  4.080067892995421E-003  1.075246304954178E-007
 cut=1d-8, nber non-redundant internal coords=         198
 Check on Eigenvals of non-red overlap matrix:
  0.00000011  0.00000037  0.00000072  0.00000121  0.00000263  0.00000276  0.00000365  0.00000382
  0.00000580  0.00000887  0.00000928  0.00000970  0.00001107  0.00001255  0.00001442  0.00001585
  0.00001680  0.00001767  0.00001827  0.00001879  0.00001937  0.00002149  0.00002350  0.00002397
  0.00002469  0.00002545  0.00002905  0.00003234  0.00003259  0.00003450  0.00003622  0.00003937
  0.00003994  0.00004820  0.00004885  0.00005109  0.00005194  0.00005320  0.00005375  0.00005835
  0.00005879  0.00005989  0.00006385  0.00006506  0.00006822  0.00007069  0.00007358  0.00008129
  0.00008199  0.00008232  0.00008397  0.00008605  0.00008729  0.00008867  0.00009296  0.00009338
  0.00009500  0.00009851  0.00010169  0.00011282  0.00011533  0.00011972  0.00012247  0.00013398
  0.00013416  0.00013643  0.00013727  0.00014050  0.00015409  0.00015412  0.00015899  0.00016512
  0.00016524  0.00018124  0.00018832  0.00019364  0.00020816  0.00020907  0.00022184  0.00022807
  0.00023010  0.00025074  0.00026965  0.00028436  0.00028531  0.00028944  0.00029468  0.00030095
  0.00031614  0.00034080  0.00034488  0.00035522  0.00035921  0.00037255  0.00038227  0.00038393
  0.00038946  0.00039168  0.00039512  0.00041063  0.00041169  0.00042581  0.00042795  0.00043091
  0.00043170  0.00043554  0.00044062  0.00044220  0.00046218  0.00046770  0.00046891  0.00049573
  0.00050897  0.00053391  0.00053716  0.00054701  0.00055410  0.00055601  0.00055603  0.00058331
  0.00058942  0.00059634  0.00059676  0.00059850  0.00059923  0.00059957  0.00059984  0.00060219
  0.00061040  0.00062283  0.00062530  0.00064071  0.00064422  0.00064497  0.00064537  0.00064683
  0.00065509  0.00067328  0.00069407  0.00069774  0.00079888  0.00081503  0.00091411  0.00095538
  0.00099419  0.00107272  0.00108141  0.00109332  0.00109427  0.00109494  0.00109546  0.00109703
  0.00113896  0.00114300  0.00116530  0.00116558  0.00116581  0.00116613  0.00117122  0.00117182
  0.00117379  0.00118415  0.00121014  0.00126299  0.00129537  0.00133579  0.00138174  0.00138712
  0.00148155  0.00156592  0.00166015  0.00171598  0.00177791  0.00191771  0.00195361  0.00208419
  0.00228109  0.00233946  0.00252220  0.00252346  0.00255947  0.00264732  0.00279137  0.00286076
  0.00292173  0.00302344  0.00302569  0.00304210  0.00308123  0.00309617  0.00323529  0.00367382
  0.00367587  0.00372077  0.00372262  0.00372994  0.00394523  0.00408007
 Checking for correct frequencies
 recalc frequencies=
    -0.0   -0.0   -0.0    0.0    0.0    0.0    7.9   14.2   22.6   26.1
    30.6   41.4   55.5   60.8   75.1   77.9   89.2   99.5  113.4  118.3
   140.9  145.7  146.5  167.9  181.4  188.1  196.5  209.8  222.1  224.2
   233.6  235.6  240.9  252.7  256.2  290.3  291.9  298.5  302.3  324.4
   356.9  386.2  389.9  395.4  416.0  417.5  432.6  434.6  439.1  440.3
   447.3  447.7  468.3  471.5  482.6  482.8  496.8  504.9  505.7  518.0
   534.7  542.8  569.5  569.6  574.5  574.8  581.6  594.1  604.6  616.0
   625.9  631.5  631.8  651.7  662.5  676.2  689.4  695.6  700.0  708.9
   713.0  726.6  739.3  741.7  747.0  757.4  763.6  802.2  807.5  809.6
   815.2  819.2  825.9  826.1  832.1  835.0  844.5  874.6  879.0  901.5
   914.8  935.7  936.4  945.6  948.7  956.8  962.8  974.7  976.7  987.7
   988.9  995.9 1000.8 1007.9 1029.3 1062.7 1093.1 1094.2 1109.2 1131.4
  1137.7 1149.0 1155.6 1160.3 1161.8 1170.3 1185.6 1195.3 1197.2 1198.7
  1223.9 1232.4 1235.6 1241.7 1243.1 1252.9 1264.5 1294.9 1311.4 1316.0
  1319.4 1344.1 1352.8 1360.6 1366.7 1372.4 1382.1 1384.1 1392.3 1400.4
  1403.9 1404.6 1416.4 1425.5 1430.1 1438.5 1440.6 1447.4 1458.3 1460.4
  1465.4 1466.3 1485.1 1493.6 1497.7 1505.1 1510.1 1522.5 1526.2 1540.3
  1546.0 1554.3 1571.1 1581.6 1599.6 1601.2 1619.9 1662.9 1683.9 1686.2
  1724.7 1729.9 3027.8 3034.3 3038.4 3055.3 3092.3 3095.5 3112.5 3132.5
  3142.8 3195.7 3198.0 3198.4 3199.0 3205.8 3206.1 3213.4 3213.7 3213.8
  3223.6 3224.1 3236.7 3245.9
 recalc symmetries=
                                                                       
                                                                       
                                                                       
                                                                       
                                                                       
                                                                       
                                                                       
                                                                       
                                                                       
                                                                       
                                                                       
                                                                       
                                                                       
                                                                       
                                                                       
                                                                       
                                                                       
                                                                       
                                                                       
                                                                       
                             
 recalc freqs check OK
 Zero-point lengths:
 10.0000 10.0000 10.0000 10.0000 10.0000 10.0000 88.1003 65.7975 52.1338 48.5448
 44.7991 38.5073 33.2637 31.7891 28.6125 28.0864 26.2461 24.8565 23.2775 22.7926
 20.8879 20.5353 20.4804 19.1341 18.4064 18.0746 17.6843 17.1173 16.6360 16.5565
 16.2220 16.1498 15.9721 15.5952 15.4869 14.5513 14.5108 14.3497 14.2591 13.7654
 13.1219 12.6143 12.5554 12.4678 12.1549 12.1335 11.9189 11.8919 11.8308 11.8143
 11.7221 11.7171 11.4559 11.4167 11.2855 11.2827 11.1223 11.0329 11.0242 10.8925
 10.7215 10.6407 10.3881 10.3879 10.3433 10.3407 10.2797 10.1706 10.0820  9.9890
  9.9091  9.8650  9.8626  9.7110  9.6318  9.5337  9.4418  9.3996  9.3704  9.3112
  9.2840  9.1973  9.1174  9.1030  9.0703  9.0082  8.9715  8.7530  8.7244  8.7127
  8.6826  8.6617  8.6266  8.6253  8.5941  8.5792  8.5310  8.3829  8.3616  8.2566
  8.1965  8.1044  8.1015  8.0621  8.0486  8.0146  7.9895  7.9409  7.9326  7.8883
  7.8837  7.8557  7.8364  7.8087  7.7272  7.6048  7.4983  7.4945  7.4436  7.3704
  7.3499  7.3137  7.2927  7.2779  7.2732  7.2468  7.1998  7.1707  7.1651  7.1606
  7.0865  7.0619  7.0526  7.0353  7.0314  7.0038  6.9716  6.8894  6.8458  6.8339
  6.8252  6.7620  6.7402  6.7209  6.7059  6.6920  6.6685  6.6637  6.6439  6.6248
  6.6166  6.6149  6.5872  6.5662  6.5555  6.5365  6.5317  6.5163  6.4919  6.4873
  6.4762  6.4742  6.4331  6.4148  6.4059  6.3901  6.3797  6.3537  6.3458  6.3167
  6.3050  6.2883  6.2545  6.2336  6.1985  6.1954  6.1596  6.0794  6.0414  6.0373
  5.9695  5.9606  4.5054  4.5005  4.4975  4.4850  4.4581  4.4559  4.4437  4.4295
  4.4222  4.3855  4.3839  4.3836  4.3832  4.3785  4.3783  4.3733  4.3731  4.3731
  4.3664  4.3661  4.3576  4.3514
 highest evec of mol 1
 -0.0000 -0.0000 -0.0000
  0.0000 -0.0000 -0.0000
 -0.0000 -0.0000 -0.0000
  0.0000  0.0000  0.0000
 -0.0000 -0.0000  0.0000
  0.0000  0.0000 -0.0000
  0.0000  0.0000 -0.0000
 -0.0000 -0.0000  0.0000
 -0.0000  0.0000  0.0000
  0.0000  0.0000  0.0000
 -0.0000  0.0000 -0.0000
 -0.0000 -0.0000  0.0001
 -0.0000  0.0000  0.0000
  0.0000  0.0000 -0.0000
 -0.0000 -0.0000  0.0001
  0.0000 -0.0000 -0.0000
  0.0000  0.0001  0.0000
 -0.0001 -0.0002  0.0006
 -0.0002 -0.0002  0.0010
  0.0000  0.0001 -0.0002
 -0.0000  0.0000  0.0002
 -0.0001 -0.0001  0.0003
 -0.0000 -0.0002  0.0000
  0.0008  0.0067 -0.0008
  0.0020 -0.0459 -0.0508
 -0.0490 -0.2276  0.1719
 -0.0000  0.0017  0.0014
  0.0006  0.0025 -0.0023
  0.0001  0.0001 -0.0004
 -0.0000 -0.0001 -0.0000
  0.0000 -0.0000 -0.0001
 -0.0000 -0.0000  0.0001
 -0.0000 -0.0000  0.0000
  0.0000  0.0000 -0.0000
  0.0000 -0.0000 -0.0000
  0.0000  0.0000 -0.0000
 -0.0000 -0.0000 -0.0000
  0.0000  0.0000 -0.0000
 -0.0000 -0.0000 -0.0000
  0.0000  0.0000 -0.0000
 -0.0000 -0.0000 -0.0000
  0.0000  0.0000  0.0000
  0.0000  0.0000 -0.0000
 -0.0000  0.0000 -0.0000
 -0.0000 -0.0000  0.0000
  0.0000  0.0000 -0.0000
  0.0000  0.0000  0.0000
  0.0000 -0.0000  0.0000
  0.0000 -0.0000 -0.0000
 -0.0000  0.0000  0.0000
 -0.0000 -0.0000  0.0000
  0.0000  0.0000  0.0000
 -0.0000 -0.0000 -0.0000
  0.0000  0.0000 -0.0000
  0.0000 -0.0001 -0.0001
  0.0000  0.0001 -0.0002
  0.0000 -0.0001 -0.0001
  0.0003  0.0004 -0.0020
  0.0005  0.0007 -0.0033
  0.0001  0.0001 -0.0005
  0.0000 -0.0002  0.0003
 -0.0001 -0.0002  0.0002
  0.0005  0.1437  0.1103
  0.1568  0.7604 -0.5253
 -0.0000 -0.0000  0.0001
 -0.0000  0.0001  0.0001
 -0.0000 -0.0000  0.0001
 -0.0000  0.0000  0.0000
 generating redundant internal coords
         300        3600          68
 Adding extra bonds for z output only
           6           6           6           7           6           8
           6           6           6           6           6           6
           6           6           6           8           7           6
           6           6           6           6           6           6
           6           6          16           6           6          16
           6           8           6           6           6           6
           6           6           6           6           6           8
           6           6           6           6           1           1
           1           1           1           1           1           1
           1           1           1           1           1           1
           1           1           1           1           1           1
           1           1
 search for int coords
   1 str   2   1   1.532
   2 str   3   2   1.532
   3 str   4   2   1.498
   4 str   5   4   1.399
   5 str   6   5   1.222
   6 str   7   5   1.479
   7 str   8   7   1.400
   8 str   9   8   1.380
   9 str  10   9   1.422
  10 str  11  10   1.441
  11 str  12  11   1.422
  12 str  13  12   1.379
  13 str  14  13   1.401
  14 str  15  14   1.475
  15 str  16  15   1.221
  16 str  17  15   1.412
  17 str  18  17   1.418
  18 str  19  18   1.348
  19 str  20  19   1.442
  20 str  21  20   1.385
  21 str  22  21   1.409
  22 str  23  22   1.515
  23 str  24  23   1.515
  24 str  25  24   1.417
  25 str  26  25   1.371
  26 str  27  26   1.748
  27 str  28  24   1.385
  28 str  28  27   1.729
  29 str  29  22   1.385
  30 str  29  28   1.439
  31 str  30  20   1.773
  32 str  30  29   1.729
  33 str  31  17   1.430
  34 str  32  31   1.219
  35 str  33  31   1.470
  36 str  34  33   1.402
  37 str  35  34   1.379
  38 str  36  35   1.422
  39 str  37  36   1.441
  40 str  38  37   1.422
  41 str  39  38   1.380
  42 str  40  39   1.400
  43 str  41   4   1.408
  44 str  41  40   1.477
  45 str  42  41   1.221
  46 str  43   7   1.411
  47 str  43  40   1.410
  48 str  44  10   1.427
  49 str  44  37   1.427
  50 str  44  43   1.428
  51 str  45  11   1.427
  52 str  45  36   1.427
  53 str  46  14   1.411
  54 str  46  33   1.410
  55 str  46  45   1.428
  56 str  47   1   1.093
  57 str  48   1   1.089
  58 str  49   1   1.093
  59 str  50   2   1.088
  60 str  51   3   1.089
  61 str  52   3   1.093
  62 str  53   3   1.093
  63 str  54   8   1.082
  64 str  55   9   1.081
  65 str  56  12   1.081
  66 str  57  13   1.082
  67 str  58  18   1.080
  68 str  59  19   1.079
  69 str  60  21   1.083
  70 str  61  23   1.096
  71 str  62  23   1.096
  72 str  63  25   1.082
  73 str  64  26   1.079
  74 str  65  34   1.082
  75 str  66  35   1.081
  76 str  67  38   1.081
  77 str  68  39   1.082
 nber stretches=          77
  78 ben   1   2   3
  79 prop tor   1   2   3  51
  80 prop tor   1   2   3  52
  81 prop tor   1   2   3  53
  82 ben   1   2   4
  83 prop tor   1   2   4   5
  84 prop tor   1   2   4  41
  85 ben   1   2  50
  86 ben   2   1  47
  87 ben   2   1  48
  88 ben   2   1  49
  89 ben   2   3  51
  90 ben   2   3  52
  91 ben   2   3  53
  92 ben   2   4   5
  93 prop tor   2   4   5   6
  94 prop tor   2   4   5   7
  95 ben   2   4  41
  96 prop tor   2   4  41  40
  97 prop tor   2   4  41  42
  98 ben   3   2   4
  99 prop tor   3   2   4   5
 100 prop tor   3   2   4  41
 101 ben   3   2  50
 102 prop tor   4   2   3  51
 103 prop tor   4   2   3  52
 104 prop tor   4   2   3  53
 105 ben   4   2  50
 106 ben   4   5   6
 107 ben   4   5   7
 108 prop tor   4   5   7   8
 109 prop tor   4   5   7  43
 110 ben   4  41  40
 111 ben   4  41  42
 112 ben   5   4  41
 113 prop tor   5   4  41  40
 114 prop tor   5   4  41  42
 115 ben   5   7   8
 116 prop tor   5   7   8   9
 117 prop tor   5   7   8  54
 118 ben   5   7  43
 119 prop tor   5   7  43  40
 120 prop tor   5   7  43  44
 121 ben   6   5   7
 122 prop tor   6   5   7   8
 123 prop tor   6   5   7  43
 124 ben   7   8   9
 125 prop tor   7   8   9  10
 126 prop tor   7   8   9  55
 127 ben   7   8  54
 128 ben   7  43  40
 129 ben   7  43  44
 130 prop tor   7  43  44  10
 131 prop tor   7  43  44  37
 132 ben   8   7  43
 133 prop tor   8   7  43  40
 134 prop tor   8   7  43  44
 135 ben   8   9  10
 136 prop tor   8   9  10  11
 137 prop tor   8   9  10  44
 138 ben   8   9  55
 139 ben   9   8  54
 140 ben   9  10  11
 141 prop tor   9  10  11  12
 142 prop tor   9  10  11  45
 143 ben   9  10  44
 144 prop tor   9  10  44  37
 145 prop tor   9  10  44  43
 146 ben  10   9  55
 147 ben  10  11  12
 148 prop tor  10  11  12  13
 149 prop tor  10  11  12  56
 150 ben  10  11  45
 151 prop tor  10  11  45  36
 152 prop tor  10  11  45  46
 153 ben  10  44  37
 154 ben  10  44  43
 155 ben  11  10  44
 156 prop tor  11  10  44  37
 157 prop tor  11  10  44  43
 158 ben  11  12  13
 159 prop tor  11  12  13  14
 160 prop tor  11  12  13  57
 161 ben  11  12  56
 162 ben  11  45  36
 163 ben  11  45  46
 164 prop tor  11  45  46  14
 165 prop tor  11  45  46  33
 166 ben  12  11  45
 167 prop tor  12  11  45  36
 168 prop tor  12  11  45  46
 169 ben  12  13  14
 170 prop tor  12  13  14  15
 171 prop tor  12  13  14  46
 172 ben  12  13  57
 173 ben  13  12  56
 174 ben  13  14  15
 175 prop tor  13  14  15  16
 176 prop tor  13  14  15  17
 177 ben  13  14  46
 178 prop tor  13  14  46  33
 179 prop tor  13  14  46  45
 180 ben  14  13  57
 181 ben  14  15  16
 182 ben  14  15  17
 183 prop tor  14  15  17  18
 184 prop tor  14  15  17  31
 185 ben  14  46  33
 186 ben  14  46  45
 187 ben  15  14  46
 188 prop tor  15  14  46  33
 189 prop tor  15  14  46  45
 190 ben  15  17  18
 191 prop tor  15  17  18  19
 192 prop tor  15  17  18  58
 193 ben  15  17  31
 194 prop tor  15  17  31  32
 195 prop tor  15  17  31  33
 196 ben  16  15  17
 197 prop tor  16  15  17  18
 198 prop tor  16  15  17  31
 199 ben  17  18  19
 200 prop tor  17  18  19  20
 201 prop tor  17  18  19  59
 202 ben  17  18  58
 203 ben  17  31  32
 204 ben  17  31  33
 205 prop tor  17  31  33  34
 206 prop tor  17  31  33  46
 207 ben  18  17  31
 208 prop tor  18  17  31  32
 209 prop tor  18  17  31  33
 210 ben  18  19  20
 211 prop tor  18  19  20  21
 212 prop tor  18  19  20  30
 213 ben  18  19  59
 214 ben  19  18  58
 215 ben  19  20  21
 216 prop tor  19  20  21  22
 217 prop tor  19  20  21  60
 218 ben  19  20  30
 219 prop tor  19  20  30  29
 220 ben  20  19  59
 221 ben  20  21  22
 222 prop tor  20  21  22  23
 223 prop tor  20  21  22  29
 224 ben  20  21  60
 225 ben  20  30  29
 226 ben  21  20  30
 227 prop tor  21  20  30  29
 228 ben  21  22  23
 229 prop tor  21  22  23  24
 230 prop tor  21  22  23  61
 231 prop tor  21  22  23  62
 232 ben  21  22  29
 233 prop tor  21  22  29  28
 234 prop tor  21  22  29  30
 235 ben  22  21  60
 236 ben  22  23  24
 237 prop tor  22  23  24  25
 238 prop tor  22  23  24  28
 239 ben  22  23  61
 240 ben  22  23  62
 241 ben  22  29  28
 242 ben  22  29  30
 243 prop tor  22  29  30  20
 244 ben  23  22  29
 245 prop tor  23  22  29  28
 246 prop tor  23  22  29  30
 247 ben  23  24  25
 248 prop tor  23  24  25  26
 249 prop tor  23  24  25  63
 250 ben  23  24  28
 251 prop tor  23  24  28  27
 252 prop tor  23  24  28  29
 253 ben  24  23  61
 254 ben  24  23  62
 255 ben  24  25  26
 256 prop tor  24  25  26  27
 257 prop tor  24  25  26  64
 258 ben  24  25  63
 259 ben  24  28  27
 260 ben  24  28  29
 261 prop tor  24  28  29  22
 262 prop tor  24  28  29  30
 263 ben  25  24  28
 264 prop tor  25  24  28  27
 265 prop tor  25  24  28  29
 266 ben  25  26  27
 267 prop tor  25  26  27  28
 268 ben  25  26  64
 269 ben  26  25  63
 270 ben  26  27  28
 271 prop tor  26  27  28  24
 272 prop tor  26  27  28  29
 273 ben  27  26  64
 274 ben  27  28  29
 275 prop tor  27  28  29  22
 276 prop tor  27  28  29  30
 277 prop tor  28  24  25  26
 278 prop tor  28  24  25  63
 279 ben  28  29  30
 280 prop tor  28  29  30  20
 281 prop tor  29  22  23  24
 282 prop tor  29  22  23  61
 283 prop tor  29  22  23  62
 284 prop tor  30  20  21  22
 285 prop tor  30  20  21  60
 286 prop tor  31  17  18  19
 287 prop tor  31  17  18  58
 288 ben  31  33  34
 289 prop tor  31  33  34  35
 290 prop tor  31  33  34  65
 291 ben  31  33  46
 292 prop tor  31  33  46  14
 293 prop tor  31  33  46  45
 294 ben  32  31  33
 295 prop tor  32  31  33  34
 296 prop tor  32  31  33  46
 297 ben  33  34  35
 298 prop tor  33  34  35  36
 299 prop tor  33  34  35  66
 300 ben  33  34  65
 301 ben  33  46  45
 302 ben  34  33  46
 303 prop tor  34  33  46  14
 304 prop tor  34  33  46  45
 305 ben  34  35  36
 306 prop tor  34  35  36  37
 307 prop tor  34  35  36  45
 308 ben  34  35  66
 309 ben  35  34  65
 310 ben  35  36  37
 311 prop tor  35  36  37  38
 312 prop tor  35  36  37  44
 313 ben  35  36  45
 314 prop tor  35  36  45  11
 315 prop tor  35  36  45  46
 316 ben  36  35  66
 317 ben  36  37  38
 318 prop tor  36  37  38  39
 319 prop tor  36  37  38  67
 320 ben  36  37  44
 321 prop tor  36  37  44  10
 322 prop tor  36  37  44  43
 323 ben  36  45  46
 324 prop tor  36  45  46  14
 325 prop tor  36  45  46  33
 326 ben  37  36  45
 327 prop tor  37  36  45  11
 328 prop tor  37  36  45  46
 329 ben  37  38  39
 330 prop tor  37  38  39  40
 331 prop tor  37  38  39  68
 332 ben  37  38  67
 333 ben  37  44  43
 334 ben  38  37  44
 335 prop tor  38  37  44  10
 336 prop tor  38  37  44  43
 337 ben  38  39  40
 338 prop tor  38  39  40  41
 339 prop tor  38  39  40  43
 340 ben  38  39  68
 341 ben  39  38  67
 342 ben  39  40  41
 343 prop tor  39  40  41   4
 344 prop tor  39  40  41  42
 345 ben  39  40  43
 346 prop tor  39  40  43   7
 347 prop tor  39  40  43  44
 348 ben  40  39  68
 349 ben  40  41  42
 350 ben  40  43  44
 351 prop tor  40  43  44  10
 352 prop tor  40  43  44  37
 353 prop tor  41   4   5   6
 354 prop tor  41   4   5   7
 355 ben  41  40  43
 356 prop tor  41  40  43   7
 357 prop tor  41  40  43  44
 358 prop tor  43   7   8   9
 359 prop tor  43   7   8  54
 360 prop tor  43  40  41   4
 361 prop tor  43  40  41  42
 362 prop tor  44  10  11  12
 363 prop tor  44  10  11  45
 364 prop tor  44  37  38  39
 365 prop tor  44  37  38  67
 366 prop tor  45  11  12  13
 367 prop tor  45  11  12  56
 368 prop tor  45  36  37  38
 369 prop tor  45  36  37  44
 370 prop tor  46  14  15  16
 371 prop tor  46  14  15  17
 372 prop tor  46  33  34  35
 373 prop tor  46  33  34  65
 374 prop tor  47   1   2   3
 375 prop tor  47   1   2   4
 376 prop tor  47   1   2  50
 377 ben  47   1  48
 378 ben  47   1  49
 379 prop tor  48   1   2   3
 380 prop tor  48   1   2   4
 381 prop tor  48   1   2  50
 382 ben  48   1  49
 383 prop tor  49   1   2   3
 384 prop tor  49   1   2   4
 385 prop tor  49   1   2  50
 386 prop tor  50   2   3  51
 387 prop tor  50   2   3  52
 388 prop tor  50   2   3  53
 389 prop tor  50   2   4   5
 390 prop tor  50   2   4  41
 391 ben  51   3  52
 392 ben  51   3  53
 393 ben  52   3  53
 394 prop tor  54   8   9  10
 395 prop tor  54   8   9  55
 396 prop tor  55   9  10  11
 397 prop tor  55   9  10  44
 398 prop tor  56  12  13  14
 399 prop tor  56  12  13  57
 400 prop tor  57  13  14  15
 401 prop tor  57  13  14  46
 402 prop tor  58  18  19  20
 403 prop tor  58  18  19  59
 404 prop tor  59  19  20  21
 405 prop tor  59  19  20  30
 406 prop tor  60  21  22  23
 407 prop tor  60  21  22  29
 408 prop tor  61  23  24  25
 409 prop tor  61  23  24  28
 410 ben  61  23  62
 411 prop tor  62  23  24  25
 412 prop tor  62  23  24  28
 413 prop tor  63  25  26  27
 414 prop tor  63  25  26  64
 415 prop tor  64  26  27  28
 416 prop tor  65  34  35  36
 417 prop tor  65  34  35  66
 418 prop tor  66  35  36  37
 419 prop tor  66  35  36  45
 420 prop tor  67  38  39  40
 421 prop tor  67  38  39  68
 422 prop tor  68  39  40  41
 423 prop tor  68  39  40  43
 nber bend=             134
 nber lin bend=           0
 nber prop tor=         212
 nber impr tor=           0
 nber tot redund int=         423
 Reading file: 
 ./CDT-PDI_1_C0S1.log                                                           
                                          
  Entering Gaussian System, Link 0=g16                                          
  
 Gaussian format, type: g94, g98, g03= F F F
  #P Geom=AllCheck Guess=TCheck SCRF=Check GenChk RB3LYP TD(FC,Read)/6-3    
 energy type= TD      
 Original G94 input coords:
  6  5.326334-33.817503-12.038950
  6  4.188936-33.148343-12.818722
  6  2.795560-33.545287-12.318301
  7  4.355644-31.666478-12.882926
  6  4.304416-30.920766-11.695065
  8  4.125543-31.469601-10.614049
  6  4.474328-29.463317-11.810075
  6  4.430867-28.678710-10.657700
  6  4.587326-27.307010-10.731664
  6  4.795828-26.646892-11.962870
  6  4.961379-25.210586-12.053513
  6  4.922317-24.379741-10.906690
  6  5.080864-23.019141-10.999664
  6  5.288576-22.400683-12.243597
  6  5.449603-20.960437-12.276000
  8  5.418286-20.235488-11.297955
  7  5.661569-20.377850-13.585702
  6  5.831568-19.026471-13.762889
  6  5.841037-18.014074-12.846908
  6  6.034533-16.657119-13.219815
  6  6.056739-15.565440-12.329971
  6  6.264069-14.354226-12.967408
  6  6.382964-12.899049-12.571827
  6  6.608200-12.238931-13.913614
  6  6.809376-10.937894-14.400537
  6  6.964890-10.926186-15.770507
 16  6.868619-12.505506-16.494166
  6  6.614009-13.205484-14.931046
  6  6.406968-14.483204-14.367266
 16  6.283424-16.119928-14.899508
  6  5.715929-21.161092-14.836150
  8  5.898530-20.564388-15.881044
  6  5.544065-22.581819-14.690345
  6  5.586345-23.384182-15.845961
  6  5.428951-24.743867-15.765851
  6  5.218191-25.397212-14.523941
  6  5.051842-26.830450-14.433899
  6  5.087170-27.669819-15.570743
  6  4.927525-29.038887-15.471576
  6  4.723864-29.645544-14.231173
  6  4.558433-31.104216-14.162650
  8  4.593171-31.809816-15.162775
  6  4.680121-28.851141-13.064974
  6  4.844056-27.429364-13.154430
  6  5.170459-24.608285-13.332393
  6  5.336480-23.177676-13.422125
  1  5.241194-34.903352-12.141379
  1  5.291017-33.560987-10.981000
  1  6.296850-33.518828-12.444008
  1  4.271416-33.450623-13.860489
  1  2.655106-33.277983-11.271821
  1  2.670569-34.626800-12.425657
  1  2.020127-33.058513-12.915739
  1  4.271826-29.173214 -9.707861
  1  4.546639-26.739047 -9.813051
  1  4.764785-24.814799 -9.930760
  1  5.049057-22.395233-10.115689
  1  5.974714-18.808015-14.816974
  1  5.699490-18.222711-11.798237
  1  5.921637-15.705392-11.266401
  1  7.216126-12.729477-11.882245
  1  5.476532-12.534126-12.078217
  1  6.842567-10.040656-13.798222
  1  7.132813-10.071453-16.407790
  1  5.746606-22.899355-16.800466
  1  5.468548-25.321538-16.677616
  1  5.242403-27.244770-16.552212
  1  4.956873-29.669607-16.350933
 nber atoms=          68
  Total Energy, E(TD-HF/TD-DFT) =  -2668.63634621                               
  
          32          49 "  -2668.63634621"
After scan for Atom:   Atom  AN      X      Y      Z        X      Y      Z        X      Y      Z   
After scan for Atom:   Atom  AN      X      Y      Z        X      Y      Z        X      Y      Z   
After scan for Atom:   Atom  AN      X      Y      Z        X      Y      Z        X      Y      Z   
After scan for Atom:   Atom  AN      X      Y      Z        X      Y      Z        X      Y      Z   
After scan for Atom:   Atom  AN      X      Y      Z        X      Y      Z        X      Y      Z   
After scan for Atom:   Atom  AN      X      Y      Z        X      Y      Z        X      Y      Z   
After scan for Atom:   Atom  AN      X      Y      Z        X      Y      Z        X      Y      Z   
After scan for Atom:   Atom  AN      X      Y      Z        X      Y      Z        X      Y      Z   
After scan for Atom:   Atom  AN      X      Y      Z        X      Y      Z        X      Y      Z   
After scan for Atom:   Atom  AN      X      Y      Z        X      Y      Z        X      Y      Z   
After scan for Atom:   Atom  AN      X      Y      Z        X      Y      Z        X      Y      Z   
After scan for Atom:   Atom  AN      X      Y      Z        X      Y      Z        X      Y      Z   
After scan for Atom:   Atom  AN      X      Y      Z        X      Y      Z        X      Y      Z   
After scan for Atom:   Atom  AN      X      Y      Z        X      Y      Z        X      Y      Z   
After scan for Atom:   Atom  AN      X      Y      Z        X      Y      Z        X      Y      Z   
After scan for Atom:   Atom  AN      X      Y      Z        X      Y      Z        X      Y      Z   
After scan for Atom:   Atom  AN      X      Y      Z        X      Y      Z        X      Y      Z   
After scan for Atom:   Atom  AN      X      Y      Z        X      Y      Z        X      Y      Z   
After scan for Atom:   Atom  AN      X      Y      Z        X      Y      Z        X      Y      Z   
After scan for Atom:   Atom  AN      X      Y      Z        X      Y      Z        X      Y      Z   
After scan for Atom:   Atom  AN      X      Y      Z        X      Y      Z        X      Y      Z   
After scan for Atom:   Atom  AN      X      Y      Z        X      Y      Z        X      Y      Z   
After scan for Atom:   Atom  AN      X      Y      Z        X      Y      Z        X      Y      Z   
After scan for Atom:   Atom  AN      X      Y      Z        X      Y      Z        X      Y      Z   
After scan for Atom:   Atom  AN      X      Y      Z        X      Y      Z        X      Y      Z   
After scan for Atom:   Atom  AN      X      Y      Z        X      Y      Z        X      Y      Z   
After scan for Atom:   Atom  AN      X      Y      Z        X      Y      Z        X      Y      Z   
After scan for Atom:   Atom  AN      X      Y      Z        X      Y      Z        X      Y      Z   
After scan for Atom:   Atom  AN      X      Y      Z        X      Y      Z        X      Y      Z   
After scan for Atom:   Atom  AN      X      Y      Z        X      Y      Z        X      Y      Z   
After scan for Atom:   Atom  AN      X      Y      Z        X      Y      Z        X      Y      Z   
After scan for Atom:   Atom  AN      X      Y      Z        X      Y      Z        X      Y      Z   
After scan for Atom:   Atom  AN      X      Y      Z        X      Y      Z        X      Y      Z   
After scan for Atom:   Atom  AN      X      Y      Z        X      Y      Z        X      Y      Z   
After scan for Atom:   Atom  AN      X      Y      Z        X      Y      Z        X      Y      Z   
After scan for Atom:   Atom  AN      X      Y      Z        X      Y      Z        X      Y      Z   
After scan for Atom:   Atom  AN      X      Y      Z        X      Y      Z        X      Y      Z   
After scan for Atom:   Atom  AN      X      Y      Z        X      Y      Z        X      Y      Z   
After scan for Atom:   Atom  AN      X      Y      Z        X      Y      Z        X      Y      Z   
After scan for Atom:   Atom  AN      X      Y      Z        X      Y      Z        X      Y      Z   
After scan for Atom:   Atom  AN      X      Y      Z        X      Y      Z        X      Y      Z   
After scan for Atom:   Atom  AN      X      Y      Z        X      Y      Z        X      Y      Z   
After scan for Atom:   Atom  AN      X      Y      Z        X      Y      Z        X      Y      Z   
After scan for Atom:   Atom  AN      X      Y      Z        X      Y      Z        X      Y      Z   
After scan for Atom:   Atom  AN      X      Y      Z        X      Y      Z        X      Y      Z   
After scan for Atom:   Atom  AN      X      Y      Z        X      Y      Z        X      Y      Z   
After scan for Atom:   Atom  AN      X      Y      Z        X      Y      Z        X      Y      Z   
After scan for Atom:   Atom  AN      X      Y      Z        X      Y      Z        X      Y      Z   
After scan for Atom:   Atom  AN      X      Y      Z        X      Y      Z        X      Y      Z   
After scan for Atom:   Atom  AN      X      Y      Z        X      Y      Z        X      Y      Z   
After scan for Atom:   Atom  AN      X      Y      Z        X      Y      Z        X      Y      Z   
After scan for Atom:   Atom  AN      X      Y      Z        X      Y      Z        X      Y      Z   
After scan for Atom:   Atom  AN      X      Y      Z        X      Y      Z        X      Y      Z   
After scan for Atom:   Atom  AN      X      Y      Z        X      Y      Z        X      Y      Z   
After scan for Atom:   Atom  AN      X      Y      Z        X      Y      Z        X      Y      Z   
After scan for Atom:   Atom  AN      X      Y      Z        X      Y      Z        X      Y      Z   
After scan for Atom:   Atom  AN      X      Y      Z        X      Y      Z        X      Y      Z   
After scan for Atom:   Atom  AN      X      Y      Z        X      Y      Z        X      Y      Z   
After scan for Atom:   Atom  AN      X      Y      Z        X      Y      Z        X      Y      Z   
After scan for Atom:   Atom  AN      X      Y      Z        X      Y      Z        X      Y      Z   
After scan for Atom:   Atom  AN      X      Y      Z        X      Y      Z        X      Y      Z   
After scan for Atom:   Atom  AN      X      Y      Z        X      Y      Z        X      Y      Z   
After scan for Atom:   Atom  AN      X      Y      Z        X      Y      Z        X      Y      Z   
After scan for Atom:   Atom  AN      X      Y      Z        X      Y      Z        X      Y      Z   
After scan for Atom:   Atom  AN      X      Y      Z        X      Y      Z        X      Y      Z   
After scan for Atom:   Atom  AN      X      Y      Z        X      Y      Z        X      Y      Z   
 g94    frequencies=
     0.0    0.0    0.0    0.0    0.0    0.0    7.6   15.8   23.0   26.1
    26.9   40.7   56.4   61.2   77.7   80.6   89.3   99.3  110.3  122.5
   140.2  148.4  164.0  169.7  195.1  199.7  202.6  214.4  224.8  234.6
   235.7  246.5  247.7  252.5  259.3  293.8  296.8  299.7  321.4  338.2
   360.9  364.4  396.7  398.9  418.1  424.2  435.6  439.0  443.1  450.4
   453.6  459.1  462.2  464.8  483.4  497.5  502.2  512.4  517.0  517.4
   540.5  546.6  569.8  578.2  579.3  588.7  593.5  597.7  620.4  623.9
   626.2  645.2  648.9  661.4  668.8  691.6  713.0  714.8  728.9  730.6
   736.3  748.0  758.8  764.3  772.5  786.3  804.8  809.5  816.2  821.3
   822.8  826.5  829.2  833.0  844.1  846.0  847.8  896.5  904.6  918.7
   919.7  943.9  947.3  950.0  955.8  961.1  973.1  976.2  976.6  985.6
   985.7  988.9  996.7 1011.0 1022.5 1056.1 1068.9 1094.2 1107.2 1125.3
  1151.0 1154.5 1155.3 1161.4 1164.6 1174.8 1189.9 1201.1 1206.5 1213.8
  1217.1 1226.7 1236.5 1250.5 1252.8 1275.3 1282.9 1295.8 1300.5 1306.3
  1325.1 1338.2 1354.2 1361.6 1366.3 1372.2 1377.0 1384.1 1389.5 1393.5
  1396.9 1397.8 1411.9 1426.4 1437.6 1441.0 1448.5 1462.2 1464.3 1470.0
  1475.0 1484.2 1485.0 1488.1 1489.9 1496.4 1506.7 1523.7 1533.6 1553.8
  1560.0 1574.4 1589.0 1604.3 1615.6 1620.8 1628.6 1637.9 1683.3 1719.8
  1779.4 1945.7 3029.5 3034.1 3042.1 3072.2 3086.8 3089.9 3109.3 3131.7
  3141.4 3157.9 3192.6 3193.0 3198.8 3199.0 3208.4 3208.7 3216.6 3218.8
  3223.7 3223.8 3241.1 3248.8
 g94    symmetries=
                                                 A      A      A      A
       A      A      A      A      A      A      A      A      A      A
       A      A      A      A      A      A      A      A      A      A
       A      A      A      A      A      A      A      A      A      A
       A      A      A      A      A      A      A      A      A      A
       A      A      A      A      A      A      A      A      A      A
       A      A      A      A      A      A      A      A      A      A
       A      A      A      A      A      A      A      A      A      A
       A      A      A      A      A      A      A      A      A      A
       A      A      A      A      A      A      A      A      A      A
       A      A      A      A      A      A      A      A      A      A
       A      A      A      A      A      A      A      A      A      A
       A      A      A      A      A      A      A      A      A      A
       A      A      A      A      A      A      A      A      A      A
       A      A      A      A      A      A      A      A      A      A
       A      A      A      A      A      A      A      A      A      A
       A      A      A      A      A      A      A      A      A      A
       A      A      A      A      A      A      A      A      A      A
       A      A      A      A      A      A      A      A      A      A
       A      A      A      A      A      A      A      A      A      A
       A      A      A      A
 atomic masses:
 12.0000 12.0000 12.0000 14.0031 12.0000 15.9949 12.0000 12.0000 12.0000 12.0000
 12.0000 12.0000 12.0000 12.0000 12.0000 15.9949 14.0031 12.0000 12.0000 12.0000
 12.0000 12.0000 12.0000 12.0000 12.0000 12.0000 31.9721 12.0000 12.0000 31.9721
 12.0000 15.9949 12.0000 12.0000 12.0000 12.0000 12.0000 12.0000 12.0000 12.0000
 12.0000 15.9949 12.0000 12.0000 12.0000 12.0000  1.0078  1.0078  1.0078  1.0078
  1.0078  1.0078  1.0078  1.0078  1.0078  1.0078  1.0078  1.0078  1.0078  1.0078
  1.0078  1.0078  1.0078  1.0078  1.0078  1.0078  1.0078  1.0078
 looking for force constants in 
 ./CDT-PDI_1_C0S1.fchk                                                          
  
 Cartesian Force Constants                  R   N=       20910                  
  
 n3=         204       20910
 g94-fc frequencies=
    -0.9   -0.0   -0.0   -0.0    0.8    2.8    7.6   15.8   23.0   26.1
    26.9   40.7   56.4   61.2   77.7   80.6   89.3   99.3  110.3  122.6
   140.2  148.4  164.0  169.8  195.1  199.7  202.6  214.4  224.8  234.6
   235.7  246.5  247.7  252.5  259.3  293.8  296.8  299.8  321.4  338.2
   360.9  364.4  396.7  398.9  418.1  424.2  435.6  439.0  443.1  450.4
   453.6  459.1  462.2  464.9  483.4  497.5  502.2  512.4  517.0  517.4
   540.5  546.6  569.8  578.3  579.3  588.7  593.5  597.7  620.4  623.9
   626.3  645.2  648.9  661.5  668.8  691.7  713.0  714.8  728.9  730.6
   736.3  748.0  758.8  764.3  772.6  786.3  804.9  809.5  816.2  821.3
   822.8  826.5  829.2  833.0  844.2  846.0  847.8  896.5  904.6  918.7
   919.7  943.9  947.4  950.0  955.8  961.1  973.1  976.2  976.6  985.6
   985.7  988.9  996.7 1011.0 1022.6 1056.2 1069.0 1094.2 1107.2 1125.3
  1151.0 1154.6 1155.3 1161.5 1164.6 1174.8 1189.9 1201.1 1206.5 1213.9
  1217.2 1226.7 1236.5 1250.5 1252.8 1275.4 1282.9 1295.9 1300.5 1306.3
  1325.1 1338.2 1354.2 1361.7 1366.3 1372.3 1377.1 1384.1 1389.6 1393.5
  1396.9 1397.9 1411.9 1426.4 1437.6 1441.0 1448.6 1462.2 1464.4 1470.0
  1475.0 1484.2 1485.0 1488.2 1489.9 1496.4 1506.7 1523.7 1533.6 1553.8
  1560.1 1574.4 1589.0 1604.3 1615.7 1620.9 1628.6 1637.9 1683.4 1719.9
  1779.4 1945.7 3029.6 3034.2 3042.2 3072.3 3086.8 3090.0 3109.4 3131.8
  3141.5 3157.9 3192.7 3193.1 3198.9 3199.1 3208.5 3208.7 3216.7 3218.9
  3223.7 3223.9 3241.2 3248.9
 at 99999: n3=         204
 symm operator            1 :  F  nop=           0
 symm operator            2 :  F  nop=           0
 symm operator            3 :  F  nop=           0
 symm operator            4 :  F  nop=           0
 symm operator            5 :  F  nop=           0
 symm operator            6 :  F  nop=           0
 symm operator            7 :  F  nop=           0
 The point group of the molecule is  C1
 Symmetry rotation matrix:
   1.00000   0.00000   0.00000
   0.00000   1.00000   0.00000
   0.00000   0.00000   1.00000

 Projecting out zero-frequency components
 generating redundant internal coords
         300        3600          68
 search for int coords
   1 str   2   1   1.533
   2 str   3   2   1.533
   3 str   4   2   1.493
   4 str   5   4   1.403
   5 str   6   5   1.225
   6 str   7   5   1.472
   7 str   8   7   1.395
   8 str   9   8   1.383
   9 str  10   9   1.412
  10 str  11  10   1.449
  11 str  12  11   1.417
  12 str  13  12   1.373
  13 str  14  13   1.405
  14 str  15  14   1.450
  15 str  16  15   1.218
  16 str  17  15   1.449
  17 str  18  17   1.374
  18 str  19  18   1.365
  19 str  20  19   1.421
  20 str  21  20   1.409
  21 str  22  21   1.384
  22 str  23  22   1.513
  23 str  24  23   1.512
  24 str  25  24   1.404
  25 str  26  25   1.379
  26 str  27  26   1.740
  27 str  28  24   1.403
  28 str  28  27   1.732
  29 str  29  22   1.413
  30 str  29  28   1.412
  31 str  30  20   1.781
  32 str  30  29   1.726
  33 str  31  17   1.476
  34 str  32  31   1.217
  35 str  33  31   1.438
  36 str  34  33   1.407
  37 str  35  34   1.371
  38 str  36  35   1.419
[...]
 p1=
    0.   -0.    0.    0.   -0.    0.   -2.    2. -101.    1.   -1.    0.    0.    0.   -0.   26.   -0.   -0.   -0.   25.
    0.    0.  -12.   -0.    0.    0.   -4.    0.  -11.    0.    1.    1.   -4.   -0.    0.    0.    8.    3.   -0.   -0.
   -2.    0.   -0.   -2.   -1.   -0.   -3.    5.    1.   -1.    0.   -4.    0.    4.    4.   -0.    0.    6.    0.    2.
    0.   -4.   -1.   -0.   -0.   -0.   -0.   -2.    0.   -0.    4.    0.    0.   -0.    1.   -0.   -3.   -0.    0.    2.
    1.    2.    1.   -0.    0.    0.    0.   -1.   -0.   -0.   -0.    1.   -0.    0.    0.    0.    1.    0.    0.   -1.
   -0.   -0.   -0.    0.   -1.   -0.    1.   -0.   -0.    0.    0.   -0.   -1.    1.    1.   -0.    1.   -0.   -0.   -2.
   -0.    0.   -0.    1.   -0.    0.   -0.   -0.   -0.    1.    1.   -0.    3.    0.    0.   -0.   -0.    3.    2.    0.
    0.    4.   -0.    1.    0.    2.    0.   -4.    1.    0.    1.   -0.   -0.    2.    0.   -1.    0.   -0.   -0.   -1.
   -2.   -0.   -0.    0.   -0.   -0.    0.   -0.   -0.    1.   -0.   -1.   -0.   -0.    0.   -0.   -0.   -1.    0.   -0.
    1.    0.    0.   -0.   -0.    0.   -0.    0.    0.   -0.   -0.   -0.    0.    0.    0.    0.    0.   -0.    0.   -0.
   -0.    0.   -0.    0.
 p2=
   -0.    0.   -0.    0.    0.    0.   -2.   -2.  103.    0.   -0.    0.   -0.    0.    0.   27.   -0.    0.    0.   25.
    0.   11.   -0.    0.   -0.    4.   -0.    0.   11.    2.   -1.    4.   -0.    0.   -0.   -8.    0.   -2.    0.   -0.
   -0.    1.    0.   -1.    0.    1.   -3.   -4.   -2.    0.    0.    3.    9.    0.   -3.   -4.    0.    0.    0.    1.
    3.   -0.    1.    1.    0.    0.   -3.   -0.   -3.   -0.   -2.    0.    2.   -0.    0.    3.    1.    1.    0.   -2.
    1.    0.    0.   -0.    0.   -0.   -1.    0.   -0.    1.    0.   -0.    0.    0.    0.   -1.    0.    0.   -1.    0.
    0.    0.    0.    1.    0.   -1.    0.    1.    0.    0.   -1.   -0.   -1.    0.    0.   -2.   -0.    1.    0.   -3.
    0.    2.   -0.    0.   -0.   -0.    0.    0.   -0.   -2.    1.   -1.   -0.   -0.    2.    2.    3.   -1.   -1.    1.
    2.    1.   -1.   -1.    0.    3.   -0.   -0.   -2.   -0.    0.    0.   -0.    1.    0.    1.    2.    0.    2.    1.
    0.   -0.    0.    0.    0.    0.   -0.   -0.    2.   -0.   -1.   -1.    0.   -1.    0.   -0.    0.    1.   -0.    1.
    2.    0.    0.   -0.   -0.    0.   -0.   -0.    0.    0.   -0.   -0.    0.    0.    0.    0.   -0.   -0.   -0.    0.
   -0.    0.   -0.   -0.

 Displacement: in terms of nc of 1 THEN of nc of 2

   1     freq=    -0. Q=  0.000 lam=    -0.0     freq=    -0. Q=  0.000 lam=    -0.0
   2     freq=    -0. Q= -0.000 lam=    -0.0     freq=    -0. Q= -0.000 lam=    -0.0
   3     freq=    -0. Q=  0.000 lam=    -0.0     freq=    -0. Q=  0.000 lam=    -0.0
   4     freq=     0. Q=  0.000 lam=     0.0     freq=     0. Q=  0.000 lam=     0.0
   5     freq=     0. Q= -0.000 lam=     0.0     freq=     0. Q= -0.000 lam=     0.0
   6     freq=     0. Q=  0.000 lam=     0.0     freq=     0. Q=  0.000 lam=     0.0
   7     freq=     8. Q= -0.024 lam=     0.0     freq=     8. Q= -0.022 lam=     0.0
   8     freq=    14. Q=  0.026 lam=     0.0     freq=    16. Q=  0.033 lam=     0.0
   9     freq=    23. Q= -1.936 lam=    42.4     freq=    23. Q= -1.990 lam=    45.6
  10     freq=    26. Q=  0.016 lam=     0.0     freq=    26. Q=  0.004 lam=     0.0
  11     freq=    31. Q= -0.013 lam=     0.0     freq=    27. Q= -0.005 lam=     0.0
  12     freq=    41. Q=  0.009 lam=     0.0     freq=    41. Q=  0.001 lam=     0.0
  13     freq=    56. Q=  0.012 lam=     0.0     freq=    56. Q=  0.006 lam=     0.0
  14     freq=    61. Q=  0.000 lam=     0.0     freq=    61. Q=  0.001 lam=     0.0
  15     freq=    75. Q= -0.000 lam=     0.0     freq=    78. Q= -0.009 lam=     0.0
  16     freq=    78. Q=  0.927 lam=    33.5     freq=    81. Q=  0.985 lam=    39.1
  17     freq=    89. Q= -0.002 lam=     0.0     freq=    89. Q= -0.005 lam=     0.0
  18     freq=    99. Q= -0.002 lam=     0.0     freq=    99. Q= -0.004 lam=     0.0
  19     freq=   113. Q= -0.012 lam=     0.0     freq=   110. Q= -0.001 lam=     0.0
  20     freq=   118. Q=  1.101 lam=    71.7     freq=   123. Q=  1.138 lam=    79.4
  21     freq=   141. Q=  0.003 lam=     0.0     freq=   140. Q=  0.002 lam=     0.0
  22     freq=   146. Q=  0.007 lam=     0.0     freq=   148. Q=  0.534 lam=    21.2
  23     freq=   147. Q= -0.573 lam=    24.1     freq=   164. Q= -0.003 lam=     0.0
  24     freq=   168. Q= -0.000 lam=     0.0     freq=   170. Q= -0.001 lam=     0.0
  25     freq=   181. Q=  0.000 lam=     0.0     freq=   195. Q=  0.004 lam=     0.0
  26     freq=   188. Q=  0.003 lam=     0.0     freq=   200. Q=  0.215 lam=     4.6
  27     freq=   197. Q= -0.207 lam=     4.2     freq=   203. Q= -0.000 lam=     0.0
  28     freq=   210. Q=  0.001 lam=     0.0     freq=   214. Q=  0.000 lam=     0.0
  29     freq=   222. Q= -0.680 lam=    51.3     freq=   225. Q= -0.671 lam=    50.6
  30     freq=   224. Q=  0.023 lam=     0.1     freq=   235. Q=  0.150 lam=     2.6
  31     freq=   234. Q=  0.082 lam=     0.8     freq=   236. Q=  0.073 lam=     0.6
  32     freq=   236. Q=  0.052 lam=     0.3     freq=   247. Q=  0.226 lam=     6.3
  33     freq=   241. Q= -0.228 lam=     6.3     freq=   248. Q= -0.002 lam=     0.0
  34     freq=   253. Q= -0.004 lam=     0.0     freq=   253. Q= -0.004 lam=     0.0
  35     freq=   256. Q=  0.002 lam=     0.0     freq=   259. Q=  0.002 lam=     0.0
  36     freq=   290. Q=  0.001 lam=     0.0     freq=   294. Q=  0.523 lam=    40.2
  37     freq=   292. Q=  0.524 lam=    40.1     freq=   297. Q=  0.001 lam=     0.0
  38     freq=   298. Q=  0.184 lam=     5.0     freq=   300. Q=  0.163 lam=     4.0
  39     freq=   302. Q= -0.000 lam=     0.0     freq=   321. Q= -0.004 lam=     0.0
  40     freq=   324. Q= -0.001 lam=     0.0     freq=   338. Q= -0.000 lam=     0.0
  41     freq=   357. Q= -0.114 lam=     2.3     freq=   361. Q= -0.000 lam=     0.0
  42     freq=   386. Q=  0.002 lam=     0.0     freq=   364. Q=  0.110 lam=     2.2
  43     freq=   390. Q= -0.009 lam=     0.0     freq=   397. Q= -0.007 lam=     0.0
  44     freq=   395. Q= -0.195 lam=     7.5     freq=   399. Q= -0.101 lam=     2.0
  45     freq=   416. Q= -0.085 lam=     1.5     freq=   418. Q= -0.000 lam=     0.0
  46     freq=   417. Q= -0.001 lam=     0.0     freq=   424. Q= -0.050 lam=     0.5
  47     freq=   433. Q= -0.291 lam=    18.4     freq=   436. Q= -0.256 lam=    14.3
  48     freq=   435. Q=  0.403 lam=    35.2     freq=   439. Q=  0.313 lam=    21.5
  49     freq=   439. Q=  0.111 lam=     2.7     freq=   443. Q=  0.161 lam=     5.8
  50     freq=   440. Q= -0.066 lam=     1.0     freq=   450. Q= -0.043 lam=     0.4
  51     freq=   447. Q=  0.005 lam=     0.0     freq=   454. Q=  0.001 lam=     0.0
  52     freq=   448. Q= -0.380 lam=    32.2     freq=   459. Q= -0.253 lam=    14.7
  53     freq=   468. Q=  0.000 lam=     0.0     freq=   462. Q=  0.752 lam=   130.5
  54     freq=   472. Q=  0.390 lam=    35.8     freq=   465. Q=  0.003 lam=     0.0
  55     freq=   483. Q=  0.314 lam=    23.8     freq=   483. Q=  0.231 lam=    12.9
  56     freq=   483. Q= -0.025 lam=     0.2     freq=   497. Q= -0.354 lam=    31.2
  57     freq=   497. Q=  0.002 lam=     0.0     freq=   502. Q=  0.001 lam=     0.0
  58     freq=   505. Q=  0.504 lam=    64.2     freq=   512. Q=  0.001 lam=     0.0
  59     freq=   506. Q=  0.000 lam=     0.0     freq=   517. Q=  0.000 lam=     0.0
  60     freq=   518. Q=  0.209 lam=    11.3     freq=   517. Q=  0.066 lam=     1.1
  61     freq=   535. Q=  0.002 lam=     0.0     freq=   541. Q=  0.271 lam=    19.9
  62     freq=   543. Q= -0.360 lam=    35.3     freq=   547. Q= -0.001 lam=     0.0
  63     freq=   570. Q= -0.059 lam=     1.0     freq=   570. Q= -0.064 lam=     1.2
  64     freq=   570. Q= -0.016 lam=     0.1     freq=   578. Q= -0.088 lam=     2.3
  65     freq=   574. Q= -0.041 lam=     0.5     freq=   579. Q= -0.020 lam=     0.1
  66     freq=   575. Q= -0.044 lam=     0.6     freq=   589. Q= -0.001 lam=     0.0
  67     freq=   582. Q= -0.000 lam=     0.0     freq=   594. Q= -0.247 lam=    18.2
  68     freq=   594. Q= -0.162 lam=     7.8     freq=   598. Q= -0.000 lam=     0.0
  69     freq=   605. Q=  0.000 lam=     0.0     freq=   620. Q=  0.285 lam=    25.2
  70     freq=   616. Q= -0.003 lam=     0.0     freq=   624. Q= -0.001 lam=     0.0
  71     freq=   626. Q=  0.429 lam=    57.5     freq=   626. Q=  0.204 lam=    13.1
  72     freq=   632. Q=  0.002 lam=     0.0     freq=   645. Q=  0.000 lam=     0.0
  73     freq=   632. Q=  0.002 lam=     0.0     freq=   649. Q=  0.235 lam=    18.0
  74     freq=   652. Q= -0.000 lam=     0.0     freq=   661. Q= -0.000 lam=     0.0
  75     freq=   662. Q=  0.106 lam=     3.7     freq=   669. Q=  0.000 lam=     0.0
  76     freq=   676. Q= -0.000 lam=     0.0     freq=   692. Q= -0.313 lam=    33.8
  77     freq=   689. Q= -0.301 lam=    31.2     freq=   713. Q= -0.130 lam=     6.0
  78     freq=   696. Q= -0.000 lam=     0.0     freq=   715. Q= -0.135 lam=     6.5
  79     freq=   700. Q=  0.001 lam=     0.0     freq=   729. Q=  0.001 lam=     0.0
  80     freq=   709. Q=  0.180 lam=    11.5     freq=   731. Q=  0.233 lam=    19.8
  81     freq=   713. Q=  0.143 lam=     7.3     freq=   736. Q=  0.109 lam=     4.4
  82     freq=   727. Q=  0.258 lam=    24.2     freq=   748. Q=  0.000 lam=     0.0
  83     freq=   739. Q=  0.132 lam=     6.5     freq=   759. Q=  0.000 lam=     0.0
  84     freq=   742. Q= -0.002 lam=     0.0     freq=   764. Q= -0.001 lam=     0.0
  85     freq=   747. Q=  0.001 lam=     0.0     freq=   773. Q=  0.000 lam=     0.0
  86     freq=   757. Q=  0.000 lam=     0.0     freq=   786. Q=  0.000 lam=     0.0
  87     freq=   764. Q=  0.000 lam=     0.0     freq=   805. Q=  0.079 lam=     2.5
  88     freq=   802. Q= -0.079 lam=     2.5     freq=   809. Q= -0.047 lam=     0.9
  89     freq=   807. Q= -0.000 lam=     0.0     freq=   816. Q= -0.000 lam=     0.0
  90     freq=   810. Q= -0.050 lam=     1.0     freq=   821. Q= -0.130 lam=     6.9
  91     freq=   815. Q= -0.000 lam=     0.0     freq=   823. Q= -0.000 lam=     0.0
  92     freq=   819. Q=  0.145 lam=     8.6     freq=   827. Q=  0.016 lam=     0.1
  93     freq=   826. Q= -0.031 lam=     0.4     freq=   829. Q= -0.000 lam=     0.0
  94     freq=   826. Q=  0.001 lam=     0.0     freq=   833. Q=  0.000 lam=     0.0
  95     freq=   832. Q=  0.000 lam=     0.0     freq=   844. Q=  0.000 lam=     0.0
  96     freq=   835. Q=  0.000 lam=     0.0     freq=   846. Q=  0.077 lam=     2.5
  97     freq=   844. Q=  0.080 lam=     2.7     freq=   848. Q=  0.000 lam=     0.0
  98     freq=   875. Q=  0.000 lam=     0.0     freq=   897. Q=  0.000 lam=     0.0
  99     freq=   879. Q=  0.000 lam=     0.0     freq=   905. Q=  0.095 lam=     4.1
 100     freq=   902. Q= -0.103 lam=     4.8     freq=   919. Q= -0.001 lam=     0.0
 101     freq=   915. Q= -0.004 lam=     0.0     freq=   920. Q= -0.028 lam=     0.4
 102     freq=   936. Q= -0.036 lam=     0.6     freq=   944. Q= -0.000 lam=     0.0
 103     freq=   936. Q= -0.000 lam=     0.0     freq=   947. Q= -0.001 lam=     0.0
 104     freq=   946. Q=  0.000 lam=     0.0     freq=   950. Q=  0.080 lam=     3.0
 105     freq=   949. Q= -0.078 lam=     2.9     freq=   956. Q= -0.000 lam=     0.0
 106     freq=   957. Q= -0.000 lam=     0.0     freq=   961. Q= -0.110 lam=     5.8
 107     freq=   963. Q=  0.106 lam=     5.4     freq=   973. Q=  0.000 lam=     0.0
 108     freq=   975. Q= -0.000 lam=     0.0     freq=   976. Q= -0.071 lam=     2.4
 109     freq=   977. Q= -0.000 lam=     0.0     freq=   977. Q= -0.001 lam=     0.0
 110     freq=   988. Q=  0.000 lam=     0.0     freq=   986. Q=  0.001 lam=     0.0
 111     freq=   989. Q=  0.000 lam=     0.0     freq=   986. Q=  0.121 lam=     7.2
 112     freq=   996. Q= -0.000 lam=     0.0     freq=   989. Q= -0.000 lam=     0.0
 113     freq=  1001. Q= -0.125 lam=     7.8     freq=   997. Q= -0.117 lam=     6.8
 114     freq=  1008. Q=  0.078 lam=     3.1     freq=  1011. Q=  0.025 lam=     0.3
 115     freq=  1029. Q=  0.098 lam=     4.9     freq=  1023. Q=  0.001 lam=     0.0
 116     freq=  1063. Q= -0.022 lam=     0.2     freq=  1056. Q= -0.213 lam=    24.0
 117     freq=  1093. Q=  0.073 lam=     2.9     freq=  1069. Q=  0.008 lam=     0.0
 118     freq=  1094. Q= -0.026 lam=     0.4     freq=  1094. Q= -0.084 lam=     3.8
 119     freq=  1109. Q= -0.020 lam=     0.2     freq=  1107. Q= -0.008 lam=     0.0
 120     freq=  1131. Q= -0.218 lam=    26.8     freq=  1125. Q= -0.350 lam=    69.0
 121     freq=  1138. Q= -0.049 lam=     1.4     freq=  1151. Q= -0.059 lam=     2.0
 122     freq=  1149. Q=  0.000 lam=     0.0     freq=  1155. Q=  0.222 lam=    28.4
 123     freq=  1156. Q= -0.000 lam=     0.0     freq=  1155. Q= -0.001 lam=     0.0
 124     freq=  1160. Q=  0.124 lam=     8.9     freq=  1161. Q=  0.000 lam=     0.0
 125     freq=  1162. Q= -0.018 lam=     0.2     freq=  1165. Q= -0.030 lam=     0.5
 126     freq=  1170. Q=  0.032 lam=     0.6     freq=  1175. Q=  0.013 lam=     0.1
 127     freq=  1186. Q= -0.022 lam=     0.3     freq=  1190. Q= -0.031 lam=     0.6
 128     freq=  1195. Q= -0.005 lam=     0.0     freq=  1201. Q= -0.005 lam=     0.0
 129     freq=  1197. Q= -0.038 lam=     0.9     freq=  1207. Q= -0.019 lam=     0.2
 130     freq=  1199. Q=  0.077 lam=     3.6     freq=  1214. Q=  0.300 lam=    54.5
 131     freq=  1224. Q=  0.113 lam=     7.8     freq=  1217. Q=  0.162 lam=    16.0
 132     freq=  1232. Q= -0.065 lam=     2.6     freq=  1227. Q= -0.074 lam=     3.4
 133     freq=  1236. Q=  0.385 lam=    91.5     freq=  1236. Q=  0.018 lam=     0.2
 134     freq=  1242. Q=  0.057 lam=     2.0     freq=  1250. Q=  0.046 lam=     1.3
 135     freq=  1243. Q=  0.020 lam=     0.2     freq=  1253. Q=  0.343 lam=    73.6
 136     freq=  1253. Q= -0.012 lam=     0.1     freq=  1275. Q= -0.272 lam=    47.2
 137     freq=  1264. Q= -0.025 lam=     0.4     freq=  1283. Q= -0.401 lam=   103.1
 138     freq=  1295. Q=  0.393 lam=   100.2     freq=  1296. Q=  0.169 lam=    18.4
 139     freq=  1311. Q=  0.339 lam=    75.4     freq=  1300. Q=  0.082 lam=     4.4
 140     freq=  1316. Q=  0.006 lam=     0.0     freq=  1306. Q=  0.153 lam=    15.2
 141     freq=  1319. Q=  0.000 lam=     0.0     freq=  1325. Q=  0.227 lam=    34.0
 142     freq=  1344. Q=  0.550 lam=   203.0     freq=  1338. Q=  0.188 lam=    23.6
 143     freq=  1353. Q= -0.059 lam=     2.4     freq=  1354. Q= -0.085 lam=     4.9
 144     freq=  1361. Q=  0.110 lam=     8.2     freq=  1362. Q=  0.135 lam=    12.4
 145     freq=  1367. Q=  0.008 lam=     0.0     freq=  1366. Q=  0.001 lam=     0.0
 146     freq=  1372. Q=  0.253 lam=    43.9     freq=  1372. Q=  0.383 lam=   100.6
 147     freq=  1382. Q=  0.001 lam=     0.0     freq=  1377. Q=  0.001 lam=     0.0
 148     freq=  1384. Q= -0.541 lam=   202.4     freq=  1384. Q= -0.000 lam=     0.0
 149     freq=  1392. Q=  0.090 lam=     5.6     freq=  1390. Q=  0.301 lam=    62.8
 150     freq=  1400. Q=  0.000 lam=     0.0     freq=  1393. Q=  0.036 lam=     0.9
 151     freq=  1404. Q=  0.205 lam=    29.4     freq=  1397. Q=  0.033 lam=     0.7
 152     freq=  1405. Q= -0.001 lam=     0.0     freq=  1398. Q= -0.001 lam=     0.0
 153     freq=  1416. Q= -0.041 lam=     1.2     freq=  1412. Q= -0.031 lam=     0.7
 154     freq=  1425. Q=  0.287 lam=    58.6     freq=  1426. Q=  0.100 lam=     7.2
 155     freq=  1430. Q=  0.044 lam=     1.4     freq=  1438. Q=  0.062 lam=     2.7
 156     freq=  1438. Q= -0.102 lam=     7.5     freq=  1441. Q= -0.178 lam=    22.7
 157     freq=  1441. Q=  0.000 lam=     0.0     freq=  1449. Q=  0.272 lam=    53.4
 158     freq=  1447. Q= -0.007 lam=     0.0     freq=  1462. Q= -0.033 lam=     0.8
 159     freq=  1458. Q= -0.065 lam=     3.1     freq=  1464. Q= -0.245 lam=    44.1
 160     freq=  1460. Q= -0.151 lam=    16.8     freq=  1470. Q= -0.091 lam=     6.1
 161     freq=  1465. Q= -0.239 lam=    41.9     freq=  1475. Q= -0.055 lam=     2.2
 162     freq=  1466. Q= -0.070 lam=     3.6     freq=  1484. Q= -0.001 lam=     0.0
 163     freq=  1485. Q= -0.000 lam=     0.0     freq=  1485. Q= -0.051 lam=     1.9
 164     freq=  1494. Q=  0.074 lam=     4.1     freq=  1488. Q=  0.018 lam=     0.2
 165     freq=  1498. Q= -0.029 lam=     0.6     freq=  1490. Q= -0.043 lam=     1.4
 166     freq=  1505. Q= -0.000 lam=     0.0     freq=  1496. Q= -0.017 lam=     0.2
 167     freq=  1510. Q=  0.033 lam=     0.8     freq=  1507. Q=  0.000 lam=     0.0
 168     freq=  1522. Q= -0.015 lam=     0.2     freq=  1524. Q= -0.006 lam=     0.0
 169     freq=  1526. Q= -0.041 lam=     1.3     freq=  1534. Q= -0.377 lam=   109.0
 170     freq=  1540. Q=  0.101 lam=     7.9     freq=  1554. Q=  0.073 lam=     4.1
 171     freq=  1546. Q= -0.060 lam=     2.8     freq=  1560. Q= -0.153 lam=    18.3
 172     freq=  1554. Q= -0.156 lam=    19.0     freq=  1574. Q= -0.153 lam=    18.4
 173     freq=  1571. Q= -0.033 lam=     0.8     freq=  1589. Q= -0.002 lam=     0.0
 174     freq=  1582. Q= -0.045 lam=     1.6     freq=  1604. Q= -0.159 lam=    20.4
 175     freq=  1600. Q=  0.011 lam=     0.1     freq=  1616. Q=  0.015 lam=     0.2
 176     freq=  1601. Q= -0.047 lam=     1.8     freq=  1621. Q= -0.003 lam=     0.0
 177     freq=  1620. Q= -0.013 lam=     0.1     freq=  1629. Q= -0.008 lam=     0.1
 178     freq=  1663. Q= -0.224 lam=    41.8     freq=  1638. Q= -0.145 lam=    17.1
 179     freq=  1684. Q=  0.054 lam=     2.5     freq=  1683. Q=  0.004 lam=     0.0
 180     freq=  1686. Q= -0.009 lam=     0.1     freq=  1720. Q= -0.112 lam=    10.8
 181     freq=  1725. Q=  0.109 lam=    10.3     freq=  1779. Q=  0.301 lam=    80.4
 182     freq=  1730. Q=  0.011 lam=     0.1     freq=  1946. Q=  0.001 lam=     0.0
 183     freq=  3028. Q=  0.015 lam=     0.4     freq=  3030. Q=  0.000 lam=     0.0
 184     freq=  3034. Q= -0.000 lam=     0.0     freq=  3034. Q= -0.008 lam=     0.1
 185     freq=  3038. Q= -0.007 lam=     0.1     freq=  3042. Q= -0.018 lam=     0.5
 186     freq=  3055. Q=  0.000 lam=     0.0     freq=  3072. Q=  0.000 lam=     0.0
 187     freq=  3092. Q= -0.000 lam=     0.0     freq=  3087. Q= -0.000 lam=     0.0
 188     freq=  3095. Q=  0.006 lam=     0.1     freq=  3090. Q=  0.006 lam=     0.1
 189     freq=  3112. Q=  0.003 lam=     0.0     freq=  3109. Q=  0.004 lam=     0.0
 190     freq=  3132. Q= -0.000 lam=     0.0     freq=  3132. Q= -0.000 lam=     0.0
 191     freq=  3143. Q= -0.004 lam=     0.0     freq=  3141. Q= -0.004 lam=     0.0
 192     freq=  3196. Q= -0.018 lam=     0.5     freq=  3158. Q= -0.045 lam=     3.1
 193     freq=  3198. Q=  0.003 lam=     0.0     freq=  3193. Q=  0.003 lam=     0.0
 194     freq=  3198. Q=  0.002 lam=     0.0     freq=  3193. Q=  0.000 lam=     0.0
 195     freq=  3199. Q=  0.013 lam=     0.3     freq=  3199. Q=  0.003 lam=     0.0
 196     freq=  3206. Q=  0.002 lam=     0.0     freq=  3199. Q=  0.004 lam=     0.0
 197     freq=  3206. Q=  0.004 lam=     0.0     freq=  3208. Q=  0.003 lam=     0.0
 198     freq=  3213. Q= -0.017 lam=     0.5     freq=  3209. Q= -0.003 lam=     0.0
 199     freq=  3214. Q=  0.015 lam=     0.4     freq=  3217. Q=  0.014 lam=     0.3
 200     freq=  3214. Q= -0.034 lam=     1.9     freq=  3219. Q= -0.017 lam=     0.5
 201     freq=  3223. Q= -0.001 lam=     0.0     freq=  3224. Q= -0.001 lam=     0.0
 202     freq=  3224. Q=  0.002 lam=     0.0     freq=  3224. Q=  0.003 lam=     0.0
 203     freq=  3237. Q= -0.009 lam=     0.1     freq=  3241. Q= -0.000 lam=     0.0
 204     freq=  3246. Q=  0.003 lam=     0.0     freq=  3249. Q=  0.003 lam=     0.0

 total reorg energy (cm**-1, kcal/mol)=     1803.     1876.      5.16      5.36
 Nber of molecules processed=           2
