 Enter ifcurve (0=recti, 1=orth curvi, 2=apprx curvi, -1 = skip
 And atom ordering flag, 0= never changes, 1= use the first order thenceforth,
  2= deduce it (does read on fail), 3= always read it
 Reading file: 
 ./pyrene_0_C0S0.log                                                            
                                          
  Entering Gaussian System, Link 0=g16                                          
  
 Gaussian format, type: g94, g98, g03= F F F
  #P Geom=AllCheck Guess=TCheck SCRF=Check GenChk RB3LYP/6-311G(d,p) Fre    
 energy type= B3LYP   
 Original G94 input coords:
  6  3.518203  0.008329  0.000349
  6  2.829275  1.216936  0.000371
  6  1.427453  1.243240  0.000212
  6  0.679270  2.469093  0.000228
  6 -0.679107  2.469156  0.000072
  6 -1.427403  1.243371 -0.000117
  6 -2.829228  1.217195 -0.000282
  6 -3.518266  0.008651 -0.000462
  6 -2.829338 -1.199956 -0.000482
  6 -1.427516 -1.226260 -0.000322
  6 -0.679333 -2.452113 -0.000336
  6  0.679044 -2.452176 -0.000179
  6  1.427340 -1.226390  0.000008
  6  2.829164 -1.200215  0.000170
  6  0.712360  0.008457  0.000028
  6 -0.712423  0.008523 -0.000136
  1  4.602488  0.008279  0.000473
  1  3.375051  2.154529  0.000511
  1  1.226528  3.406081  0.000370
  1 -1.226280  3.406194  0.000087
  1 -3.374917  2.154839 -0.000267
  1 -4.602551  0.008701 -0.000588
  1 -3.375114 -2.137549 -0.000623
  1 -1.226591 -3.389101 -0.000476
  1  1.226217 -3.389214 -0.000193
  1  3.374854 -2.137859  0.000155
 nber atoms=          26
  SCF Done:  E(RB3LYP) =  -615.910461610     A.U. after    1 cycles             
  
          23          40 "  -615.910461610"
After scan for Atom:   Atom  AN      X      Y      Z        X      Y      Z        X      Y      Z   
After scan for Atom:   Atom  AN      X      Y      Z        X      Y      Z        X      Y      Z   
After scan for Atom:   Atom  AN      X      Y      Z        X      Y      Z        X      Y      Z   
After scan for Atom:   Atom  AN      X      Y      Z        X      Y      Z        X      Y      Z   
After scan for Atom:   Atom  AN      X      Y      Z        X      Y      Z        X      Y      Z   
After scan for Atom:   Atom  AN      X      Y      Z        X      Y      Z        X      Y      Z   
After scan for Atom:   Atom  AN      X      Y      Z        X      Y      Z        X      Y      Z   
After scan for Atom:   Atom  AN      X      Y      Z        X      Y      Z        X      Y      Z   
After scan for Atom:   Atom  AN      X      Y      Z        X      Y      Z        X      Y      Z   
After scan for Atom:   Atom  AN      X      Y      Z        X      Y      Z        X      Y      Z   
After scan for Atom:   Atom  AN      X      Y      Z        X      Y      Z        X      Y      Z   
After scan for Atom:   Atom  AN      X      Y      Z        X      Y      Z        X      Y      Z   
After scan for Atom:   Atom  AN      X      Y      Z        X      Y      Z        X      Y      Z   
After scan for Atom:   Atom  AN      X      Y      Z        X      Y      Z        X      Y      Z   
After scan for Atom:   Atom  AN      X      Y      Z        X      Y      Z        X      Y      Z   
After scan for Atom:   Atom  AN      X      Y      Z        X      Y      Z        X      Y      Z   
After scan for Atom:   Atom  AN      X      Y      Z        X      Y      Z        X      Y      Z   
After scan for Atom:   Atom  AN      X      Y      Z        X      Y      Z        X      Y      Z   
After scan for Atom:   Atom  AN      X      Y      Z        X      Y      Z        X      Y      Z   
After scan for Atom:   Atom  AN      X      Y      Z        X      Y      Z        X      Y      Z   
After scan for Atom:   Atom  AN      X      Y      Z        X      Y      Z        X      Y      Z   
After scan for Atom:   Atom  AN      X      Y      Z        X      Y      Z        X      Y      Z   
After scan for Atom:   Atom  AN      X      Y      Z        X      Y      Z        X      Y      Z   
After scan for Atom:   Atom  AN      X      Y      Z        X      Y      Z        X      Y      Z   
 g94    frequencies=
     0.0    0.0    0.0    0.0    0.0    0.0   98.5  151.6  213.3  249.0
   262.6  359.0  402.6  412.1  462.3  500.0  507.6  508.4  513.9  539.5
   554.5  586.1  595.2  688.1  704.1  726.9  749.8  757.6  783.8  815.0
   815.9  834.2  847.1  859.8  903.6  917.3  973.7  980.6  980.8  981.7
   991.2 1014.7 1091.1 1113.9 1127.0 1165.7 1168.8 1198.6 1204.7 1232.7
  1262.9 1264.3 1268.6 1342.3 1351.6 1399.3 1426.9 1434.7 1457.2 1459.1
  1483.7 1515.4 1536.1 1596.2 1625.3 1635.7 1645.9 1670.8 3155.1 3155.4
  3158.4 3158.9 3166.3 3167.1 3174.4 3174.4 3183.0 3183.5
 g94    symmetries=
                                                 A      A      A      A
       A      A      A      A      A      A      A      A      A      A
       A      A      A      A      A      A      A      A      A      A
       A      A      A      A      A      A      A      A      A      A
       A      A      A      A      A      A      A      A      A      A
       A      A      A      A      A      A      A      A      A      A
       A      A      A      A      A      A      A      A      A      A
       A      A      A      A      A      A      A      A
 atomic masses:
 12.0000 12.0000 12.0000 12.0000 12.0000 12.0000 12.0000 12.0000 12.0000 12.0000
 12.0000 12.0000 12.0000 12.0000 12.0000 12.0000  1.0078  1.0078  1.0078  1.0078
  1.0078  1.0078  1.0078  1.0078  1.0078  1.0078
 looking for force constants in 
 ./pyrene_0_C0S0.fchk                                                           
  
 Cartesian Force Constants                  R   N=        3081                  
  
 n3=          78        3081
 g94-fc frequencies=
    -4.4   -4.0   -3.9   -0.0   -0.0    0.0   98.5  151.7  213.3  249.0
   262.6  359.0  402.6  412.1  462.4  500.0  507.7  508.4  513.9  539.5
   554.5  586.1  595.2  688.1  704.1  726.9  749.8  757.6  783.8  815.1
   816.0  834.2  847.1  859.8  903.6  917.3  973.8  980.7  980.8  981.7
   991.3 1014.7 1091.2 1113.9 1127.0 1165.7 1168.8 1198.6 1204.7 1232.7
  1263.0 1264.4 1268.7 1342.3 1351.6 1399.3 1427.0 1434.7 1457.3 1459.1
  1483.7 1515.4 1536.2 1596.2 1625.3 1635.7 1645.9 1670.8 3155.2 3155.4
  3158.5 3158.9 3166.4 3167.2 3174.5 3174.5 3183.1 3183.6
 at 99999: n3=          78
 symm operator            1 :  F  nop=           0
 symm operator            2 :  F  nop=           0
 symm operator            3 :  F  nop=           0
 symm operator            4 :  F  nop=           0
 symm operator            5 :  F  nop=           0
 symm operator            6 :  F  nop=           0
 symm operator            7 :  F  nop=           0
 The point group of the molecule is  C1
 Symmetry rotation matrix:
   1.00000   0.00000   0.00000
   0.00000   1.00000   0.00000
   0.00000   0.00000   1.00000

 Projecting out zero-frequency components
 generating redundant internal coords
         300        3600          26
 search for int coords
   1 str   2   1   1.391
   2 str   3   2   1.402
   3 str   4   3   1.436
   4 str   5   4   1.358
   5 str   6   5   1.436
   6 str   7   6   1.402
   7 str   8   7   1.391
   8 str   9   8   1.391
   9 str  10   9   1.402
  10 str  11  10   1.436
  11 str  12  11   1.358
  12 str  13  12   1.436
  13 str  14   1   1.391
  14 str  14  13   1.402
  15 str  15   3   1.427
  16 str  15  13   1.427
  17 str  16   6   1.427
  18 str  16  10   1.427
  19 str  16  15   1.425
  20 str  17   1   1.084
  21 str  18   2   1.085
  22 str  19   4   1.085
  23 str  20   5   1.085
  24 str  21   7   1.085
  25 str  22   8   1.084
  26 str  23   9   1.085
  27 str  24  11   1.085
  28 str  25  12   1.085
  29 str  26  14   1.085
 nber stretches=          29
  30 ben   1   2   3
  31 prop tor   1   2   3   4
  32 prop tor   1   2   3  15
  33 ben   1   2  18
  34 ben   1  14  13
  35 ben   1  14  26
  36 ben   2   1  14
  37 prop tor   2   1  14  13
  38 prop tor   2   1  14  26
  39 ben   2   1  17
  40 ben   2   3   4
  41 prop tor   2   3   4   5
  42 prop tor   2   3   4  19
  43 ben   2   3  15
  44 prop tor   2   3  15  13
  45 prop tor   2   3  15  16
  46 ben   3   2  18
  47 ben   3   4   5
  48 prop tor   3   4   5   6
  49 prop tor   3   4   5  20
  50 ben   3   4  19
  51 ben   3  15  13
  52 ben   3  15  16
  53 prop tor   3  15  16   6
  54 prop tor   3  15  16  10
  55 ben   4   3  15
  56 prop tor   4   3  15  13
  57 prop tor   4   3  15  16
  58 ben   4   5   6
  59 prop tor   4   5   6   7
  60 prop tor   4   5   6  16
  61 ben   4   5  20
  62 ben   5   4  19
  63 ben   5   6   7
  64 prop tor   5   6   7   8
  65 prop tor   5   6   7  21
  66 ben   5   6  16
  67 prop tor   5   6  16  10
  68 prop tor   5   6  16  15
  69 ben   6   5  20
  70 ben   6   7   8
  71 prop tor   6   7   8   9
  72 prop tor   6   7   8  22
  73 ben   6   7  21
  74 ben   6  16  10
  75 ben   6  16  15
  76 ben   7   6  16
  77 prop tor   7   6  16  10
  78 prop tor   7   6  16  15
  79 ben   7   8   9
  80 prop tor   7   8   9  10
  81 prop tor   7   8   9  23
  82 ben   7   8  22
  83 ben   8   7  21
  84 ben   8   9  10
  85 prop tor   8   9  10  11
  86 prop tor   8   9  10  16
  87 ben   8   9  23
  88 ben   9   8  22
  89 ben   9  10  11
  90 prop tor   9  10  11  12
  91 prop tor   9  10  11  24
  92 ben   9  10  16
  93 prop tor   9  10  16   6
  94 prop tor   9  10  16  15
  95 ben  10   9  23
  96 ben  10  11  12
  97 prop tor  10  11  12  13
  98 prop tor  10  11  12  25
  99 ben  10  11  24
 100 ben  10  16  15
 101 ben  11  10  16
 102 prop tor  11  10  16   6
 103 prop tor  11  10  16  15
 104 ben  11  12  13
 105 prop tor  11  12  13  14
 106 prop tor  11  12  13  15
 107 ben  11  12  25
 108 ben  12  11  24
 109 ben  12  13  14
 110 prop tor  12  13  14   1
 111 prop tor  12  13  14  26
 112 ben  12  13  15
 113 prop tor  12  13  15   3
 114 prop tor  12  13  15  16
 115 ben  13  12  25
 116 ben  13  14  26
 117 ben  13  15  16
 118 prop tor  13  15  16   6
 119 prop tor  13  15  16  10
 120 prop tor  14   1   2   3
 121 prop tor  14   1   2  18
 122 ben  14   1  17
 123 ben  14  13  15
 124 prop tor  14  13  15   3
 125 prop tor  14  13  15  16
 126 prop tor  15   3   4   5
 127 prop tor  15   3   4  19
 128 prop tor  15  13  14   1
 129 prop tor  15  13  14  26
 130 prop tor  16   6   7   8
 131 prop tor  16   6   7  21
 132 prop tor  16  10  11  12
 133 prop tor  16  10  11  24
 134 prop tor  17   1   2   3
 135 prop tor  17   1   2  18
 136 prop tor  17   1  14  13
 137 prop tor  17   1  14  26
 138 prop tor  18   2   3   4
 139 prop tor  18   2   3  15
 140 prop tor  19   4   5   6
 141 prop tor  19   4   5  20
 142 prop tor  20   5   6   7
 143 prop tor  20   5   6  16
 144 prop tor  21   7   8   9
 145 prop tor  21   7   8  22
 146 prop tor  22   8   9  10
 147 prop tor  22   8   9  23
 148 prop tor  23   9  10  11
 149 prop tor  23   9  10  16
 150 prop tor  24  11  12  13
 151 prop tor  24  11  12  25
 152 prop tor  25  12  13  14
 153 prop tor  25  12  13  15
 nber bend=              48
 nber lin bend=           0
 nber prop tor=          76
 nber impr tor=           0
 nber tot redund int=         153
 Eigenvalues of G in red int coords
    Gval -0.00000000 -0.00000000 -0.00000000 -0.00000000 -0.00000000 -0.00000000 -0.00000000 -0.00000000
    Gval -0.00000000 -0.00000000 -0.00000000 -0.00000000 -0.00000000 -0.00000000 -0.00000000 -0.00000000
    Gval -0.00000000 -0.00000000 -0.00000000 -0.00000000 -0.00000000 -0.00000000 -0.00000000 -0.00000000
    Gval -0.00000000 -0.00000000 -0.00000000 -0.00000000 -0.00000000 -0.00000000 -0.00000000 -0.00000000
    Gval -0.00000000 -0.00000000 -0.00000000 -0.00000000 -0.00000000 -0.00000000 -0.00000000 -0.00000000
    Gval  0.00000000  0.00000000  0.00000000  0.00000000  0.00000000  0.00000000  0.00000000  0.00000000
    Gval  0.00000000  0.00000000  0.00000000  0.00000000  0.00000000  0.00000000  0.00000000  0.00000000
    Gval  0.00000000  0.00000000  0.00000000  0.00000000  0.00000000  0.00000000  0.00000000  0.00000000
    Gval  0.00000000  0.00000000  0.00000000  0.00000000  0.00000000  0.00000000  0.00000000  0.00000000
    Gval  0.00000000  0.00000000  0.00000000  0.00000000  0.00000000  0.00000000  0.00000000  0.00000000
    Gval  0.00000000  0.00001371  0.00001523  0.00002290  0.00002426  0.00002671  0.00004406  0.00005080
    Gval  0.00005547  0.00005979  0.00006731  0.00006890  0.00007255  0.00008255  0.00009074  0.00010224
    Gval  0.00010425  0.00012291  0.00013254  0.00013943  0.00014038  0.00017713  0.00019344  0.00020958
    Gval  0.00024945  0.00025003  0.00026045  0.00028479  0.00033365  0.00036471  0.00037685  0.00039193
    Gval  0.00041926  0.00044424  0.00045900  0.00059053  0.00059379  0.00059397  0.00059690  0.00059886
    Gval  0.00060677  0.00060973  0.00063361  0.00064346  0.00065078  0.00066086  0.00075998  0.00078260
    Gval  0.00097474  0.00102758  0.00106265  0.00106750  0.00108454  0.00108811  0.00113856  0.00113948
    Gval  0.00116096  0.00116164  0.00116768  0.00116779  0.00145687  0.00168791  0.00191484  0.00194496
    Gval  0.00229543  0.00249109  0.00259052  0.00306494  0.00315174  0.00365077  0.00371970  0.00390881
    Gval  0.00393555
  1.370563105418932E-005  1.370563105418932E-005
  1.522780150682687E-005  1.370563105418932E-005
  2.289857769906446E-005  1.370563105418932E-005
  2.425589285841867E-005  1.370563105418932E-005
  2.670526667779929E-005  1.370563105418932E-005
  4.406151525535487E-005  1.370563105418932E-005
  5.079976204954627E-005  1.370563105418932E-005
  5.547063974142951E-005  1.370563105418932E-005
  5.978910929419522E-005  1.370563105418932E-005
  6.730878182977202E-005  1.370563105418932E-005
  6.890423610500962E-005  1.370563105418932E-005
  7.254879963492815E-005  1.370563105418932E-005
  8.255287490733208E-005  1.370563105418932E-005
  9.074065181618427E-005  1.370563105418932E-005
  1.022421678383325E-004  1.370563105418932E-005
  1.042509025649676E-004  1.370563105418932E-005
  1.229055324790672E-004  1.370563105418932E-005
  1.325369777277299E-004  1.370563105418932E-005
  1.394292556192901E-004  1.370563105418932E-005
  1.403832571377535E-004  1.370563105418932E-005
  1.771321284078936E-004  1.370563105418932E-005
  1.934414259822097E-004  1.370563105418932E-005
  2.095818392863908E-004  1.370563105418932E-005
  2.494462770659138E-004  1.370563105418932E-005
  2.500286352031292E-004  1.370563105418932E-005
  2.604454438196682E-004  1.370563105418932E-005
  2.847895925838188E-004  1.370563105418932E-005
  3.336510971890739E-004  1.370563105418932E-005
  3.647087704012216E-004  1.370563105418932E-005
  3.768486312139473E-004  1.370563105418932E-005
  3.919263135836757E-004  1.370563105418932E-005
  4.192578051225073E-004  1.370563105418932E-005
  4.442375787481929E-004  1.370563105418932E-005
  4.590010764506207E-004  1.370563105418932E-005
  5.905287059470621E-004  1.370563105418932E-005
  5.937892419816803E-004  1.370563105418932E-005
  5.939671709234603E-004  1.370563105418932E-005
  5.969035926627935E-004  1.370563105418932E-005
  5.988649624894778E-004  1.370563105418932E-005
  6.067688640879952E-004  1.370563105418932E-005
  6.097311065362488E-004  1.370563105418932E-005
  6.336142309452704E-004  1.370563105418932E-005
  6.434604211619134E-004  1.370563105418932E-005
  6.507777011733159E-004  1.370563105418932E-005
  6.608587254981494E-004  1.370563105418932E-005
  7.599830607084983E-004  1.370563105418932E-005
  7.826030877431707E-004  1.370563105418932E-005
  9.747387856739875E-004  1.370563105418932E-005
  1.027584206430917E-003  1.370563105418932E-005
  1.062650384910314E-003  1.370563105418932E-005
  1.067502063521320E-003  1.370563105418932E-005
  1.084536757702824E-003  1.370563105418932E-005
  1.088109610773666E-003  1.370563105418932E-005
  1.138556295562232E-003  1.370563105418932E-005
  1.139477027706833E-003  1.370563105418932E-005
  1.160962139672981E-003  1.370563105418932E-005
  1.161635902529572E-003  1.370563105418932E-005
  1.167676863161636E-003  1.370563105418932E-005
  1.167789178966294E-003  1.370563105418932E-005
  1.456871129901936E-003  1.370563105418932E-005
  1.687908801242515E-003  1.370563105418932E-005
  1.914836757114952E-003  1.370563105418932E-005
  1.944962047726648E-003  1.370563105418932E-005
  2.295432705323908E-003  1.370563105418932E-005
  2.491090296102749E-003  1.370563105418932E-005
  2.590517452059294E-003  1.370563105418932E-005
  3.064936004434639E-003  1.370563105418932E-005
  3.151737078690631E-003  1.370563105418932E-005
  3.650773276419093E-003  1.370563105418932E-005
  3.719696607133508E-003  1.370563105418932E-005
  3.908809314531297E-003  1.370563105418932E-005
  3.935552200333110E-003  1.370563105418932E-005
 cut=1d-8, nber non-redundant internal coords=          72
 Check on Eigenvals of non-red overlap matrix:
  0.00001371  0.00001523  0.00002290  0.00002426  0.00002671  0.00004406  0.00005080  0.00005547
  0.00005979  0.00006731  0.00006890  0.00007255  0.00008255  0.00009074  0.00010224  0.00010425
  0.00012291  0.00013254  0.00013943  0.00014038  0.00017713  0.00019344  0.00020958  0.00024945
  0.00025003  0.00026045  0.00028479  0.00033365  0.00036471  0.00037685  0.00039193  0.00041926
  0.00044424  0.00045900  0.00059053  0.00059379  0.00059397  0.00059690  0.00059886  0.00060677
  0.00060973  0.00063361  0.00064346  0.00065078  0.00066086  0.00075998  0.00078260  0.00097474
  0.00102758  0.00106265  0.00106750  0.00108454  0.00108811  0.00113856  0.00113948  0.00116096
  0.00116164  0.00116768  0.00116779  0.00145687  0.00168791  0.00191484  0.00194496  0.00229543
  0.00249109  0.00259052  0.00306494  0.00315174  0.00365077  0.00371970  0.00390881  0.00393555
 Checking for correct frequencies
 recalc frequencies=
    -0.0   -0.0    0.0    0.0    0.0    0.0   98.5  151.7  213.3  249.0
   262.6  359.0  402.6  412.1  462.4  500.0  507.7  508.4  513.9  539.5
   554.5  586.1  595.2  688.1  704.1  726.9  749.8  757.6  783.8  815.1
   816.0  834.2  847.1  859.8  903.6  917.3  973.8  980.7  980.8  981.7
   991.3 1014.7 1091.2 1113.9 1127.0 1165.7 1168.8 1198.6 1204.7 1232.7
  1263.0 1264.4 1268.7 1342.3 1351.6 1399.3 1427.0 1434.7 1457.3 1459.1
  1483.7 1515.4 1536.2 1596.2 1625.3 1635.7 1645.9 1670.8 3155.2 3155.4
  3158.5 3158.9 3166.4 3167.2 3174.5 3174.5 3183.1 3183.6
 recalc symmetries=
                                                                       
                                                                       
                                                                       
                                                                       
                                                                       
                                                                       
                                                                       
                                                         
 recalc freqs check OK
 Zero-point lengths:
 10.0000 10.0000 10.0000 10.0000 10.0000 10.0000 24.9746 20.1314 16.9729 15.7114
 15.2994 13.0840 12.3551 12.2116 11.5294 11.0870 11.0030 10.9945 10.9360 10.6736
 10.5275 10.2403 10.1617  9.4507  9.3429  9.1951  9.0537  9.0068  8.8550  8.6836
  8.6788  8.5832  8.5176  8.4546  8.2473  8.1853  7.9445  7.9166  7.9158  7.9125
  7.8742  7.7826  7.5050  7.4279  7.3846  7.2611  7.2514  7.1607  7.1426  7.0609
  6.9759  6.9720  6.9602  6.7665  6.7432  6.6273  6.5628  6.5451  6.4942  6.4902
  6.4360  6.3684  6.3253  6.2051  6.1493  6.1297  6.1107  6.0651  4.4135  4.4133
  4.4112  4.4109  4.4057  4.4051  4.4001  4.4001  4.3941  4.3938
 highest evec of mol 1
  0.1624 -0.0000  0.0000
  0.0406  0.0814  0.0000
 -0.0034  0.0002 -0.0000
  0.0129  0.0198  0.0000
 -0.0129  0.0198  0.0000
  0.0034  0.0002  0.0000
 -0.0405  0.0813  0.0000
 -0.1622  0.0000 -0.0000
 -0.0405 -0.0813 -0.0000
  0.0034 -0.0002  0.0000
 -0.0129 -0.0198 -0.0000
  0.0129 -0.0198 -0.0000
 -0.0034 -0.0002 -0.0000
  0.0406 -0.0814 -0.0000
 -0.0007  0.0000 -0.0000
  0.0007 -0.0000  0.0000
 -0.5259  0.0000 -0.0001
 -0.1445 -0.2513 -0.0000
 -0.0385 -0.0667 -0.0000
  0.0385 -0.0667 -0.0000
  0.1444 -0.2510 -0.0000
  0.5253 -0.0000  0.0001
  0.1444  0.2510  0.0000
  0.0385  0.0667  0.0000
 -0.0385  0.0667  0.0000
 -0.1445  0.2513  0.0000
 generating redundant internal coords
         300        3600          26
 Adding extra bonds for z output only
           6           6           6           6           6           6
           6           6           6           6           6           6
           6           6           6           6           1           1
           1           1           1           1           1           1
           1           1
 search for int coords
   1 str   2   1   1.391
   2 str   3   2   1.402
   3 str   4   3   1.436
   4 str   5   4   1.358
   5 str   6   5   1.436
   6 str   7   6   1.402
   7 str   8   7   1.391
   8 str   9   8   1.391
   9 str  10   9   1.402
  10 str  11  10   1.436
  11 str  12  11   1.358
  12 str  13  12   1.436
  13 str  14   1   1.391
  14 str  14  13   1.402
  15 str  15   3   1.427
  16 str  15  13   1.427
  17 str  16   6   1.427
  18 str  16  10   1.427
  19 str  16  15   1.425
  20 str  17   1   1.084
  21 str  18   2   1.085
  22 str  19   4   1.085
  23 str  20   5   1.085
  24 str  21   7   1.085
  25 str  22   8   1.084
  26 str  23   9   1.085
  27 str  24  11   1.085
  28 str  25  12   1.085
  29 str  26  14   1.085
 nber stretches=          29
  30 ben   1   2   3
  31 prop tor   1   2   3   4
  32 prop tor   1   2   3  15
  33 ben   1   2  18
  34 ben   1  14  13
  35 ben   1  14  26
  36 ben   2   1  14
  37 prop tor   2   1  14  13
  38 prop tor   2   1  14  26
  39 ben   2   1  17
  40 ben   2   3   4
  41 prop tor   2   3   4   5
  42 prop tor   2   3   4  19
  43 ben   2   3  15
  44 prop tor   2   3  15  13
  45 prop tor   2   3  15  16
  46 ben   3   2  18
  47 ben   3   4   5
  48 prop tor   3   4   5   6
  49 prop tor   3   4   5  20
  50 ben   3   4  19
  51 ben   3  15  13
  52 ben   3  15  16
  53 prop tor   3  15  16   6
  54 prop tor   3  15  16  10
  55 ben   4   3  15
  56 prop tor   4   3  15  13
  57 prop tor   4   3  15  16
  58 ben   4   5   6
  59 prop tor   4   5   6   7
  60 prop tor   4   5   6  16
  61 ben   4   5  20
  62 ben   5   4  19
  63 ben   5   6   7
  64 prop tor   5   6   7   8
  65 prop tor   5   6   7  21
  66 ben   5   6  16
  67 prop tor   5   6  16  10
  68 prop tor   5   6  16  15
  69 ben   6   5  20
  70 ben   6   7   8
  71 prop tor   6   7   8   9
  72 prop tor   6   7   8  22
  73 ben   6   7  21
  74 ben   6  16  10
  75 ben   6  16  15
  76 ben   7   6  16
  77 prop tor   7   6  16  10
  78 prop tor   7   6  16  15
  79 ben   7   8   9
  80 prop tor   7   8   9  10
  81 prop tor   7   8   9  23
  82 ben   7   8  22
  83 ben   8   7  21
  84 ben   8   9  10
  85 prop tor   8   9  10  11
  86 prop tor   8   9  10  16
  87 ben   8   9  23
  88 ben   9   8  22
  89 ben   9  10  11
  90 prop tor   9  10  11  12
  91 prop tor   9  10  11  24
  92 ben   9  10  16
  93 prop tor   9  10  16   6
  94 prop tor   9  10  16  15
  95 ben  10   9  23
  96 ben  10  11  12
  97 prop tor  10  11  12  13
  98 prop tor  10  11  12  25
  99 ben  10  11  24
 100 ben  10  16  15
 101 ben  11  10  16
 102 prop tor  11  10  16   6
 103 prop tor  11  10  16  15
 104 ben  11  12  13
 105 prop tor  11  12  13  14
 106 prop tor  11  12  13  15
 107 ben  11  12  25
 108 ben  12  11  24
 109 ben  12  13  14
 110 prop tor  12  13  14   1
 111 prop tor  12  13  14  26
 112 ben  12  13  15
 113 prop tor  12  13  15   3
 114 prop tor  12  13  15  16
 115 ben  13  12  25
 116 ben  13  14  26
 117 ben  13  15  16
 118 prop tor  13  15  16   6
 119 prop tor  13  15  16  10
 120 prop tor  14   1   2   3
 121 prop tor  14   1   2  18
 122 ben  14   1  17
 123 ben  14  13  15
 124 prop tor  14  13  15   3
 125 prop tor  14  13  15  16
 126 prop tor  15   3   4   5
 127 prop tor  15   3   4  19
 128 prop tor  15  13  14   1
 129 prop tor  15  13  14  26
 130 prop tor  16   6   7   8
 131 prop tor  16   6   7  21
 132 prop tor  16  10  11  12
 133 prop tor  16  10  11  24
 134 prop tor  17   1   2   3
 135 prop tor  17   1   2  18
 136 prop tor  17   1  14  13
 137 prop tor  17   1  14  26
 138 prop tor  18   2   3   4
 139 prop tor  18   2   3  15
 140 prop tor  19   4   5   6
 141 prop tor  19   4   5  20
 142 prop tor  20   5   6   7
 143 prop tor  20   5   6  16
 144 prop tor  21   7   8   9
 145 prop tor  21   7   8  22
 146 prop tor  22   8   9  10
 147 prop tor  22   8   9  23
 148 prop tor  23   9  10  11
 149 prop tor  23   9  10  16
 150 prop tor  24  11  12  13
 151 prop tor  24  11  12  25
 152 prop tor  25  12  13  14
 153 prop tor  25  12  13  15
 nber bend=              48
 nber lin bend=           0
 nber prop tor=          76
 nber impr tor=           0
 nber tot redund int=         153
 Reading file: 
 ./pyrene_0_C-1S0.log                                                           
                                          
  Entering Gaussian System, Link 0=g16                                          
  
 Gaussian format, type: g94, g98, g03= F F F
  #P Geom=AllCheck Guess=TCheck SCRF=Check GenChk UB3LYP/6-311G(d,p) Fre    
 energy type= B3LYP   
 Original G94 input coords:
  6  3.539359  0.008328  0.000352
  6  2.861638  1.221906  0.000374
  6  1.435699  1.252555  0.000214
  6  0.692002  2.455992  0.000228
  6 -0.691841  2.456056  0.000069
  6 -1.435648  1.252687 -0.000117
  6 -2.861590  1.222168 -0.000285
  6 -3.539422  0.008652 -0.000464
  6 -2.861701 -1.204926 -0.000487
  6 -1.435762 -1.235575 -0.000324
  6 -0.692065 -2.439012 -0.000337
  6  0.691777 -2.439076 -0.000177
  6  1.435585 -1.235707  0.000008
  6  2.861527 -1.205189  0.000174
  6  0.716119  0.008457  0.000028
  6 -0.716182  0.008523 -0.000137
  1  4.627823  0.008278  0.000477
  1  3.408271  2.160535  0.000514
  1  1.233637  3.399102  0.000370
  1 -1.233389  3.399216  0.000086
  1 -3.408137  2.160847 -0.000269
  1 -4.627886  0.008702 -0.000590
  1 -3.408334 -2.143555 -0.000629
  1 -1.233700 -3.382122 -0.000477
  1  1.233326 -3.382235 -0.000191
  1  3.408074 -2.143867  0.000160
 nber atoms=          26
  SCF Done:  E(UB3LYP) =  -615.921765918     A.U. after    1 cycles             
  
          23          40 "  -615.921765918"
After scan for Atom:   Atom  AN      X      Y      Z        X      Y      Z        X      Y      Z   
After scan for Atom:   Atom  AN      X      Y      Z        X      Y      Z        X      Y      Z   
After scan for Atom:   Atom  AN      X      Y      Z        X      Y      Z        X      Y      Z   
After scan for Atom:   Atom  AN      X      Y      Z        X      Y      Z        X      Y      Z   
After scan for Atom:   Atom  AN      X      Y      Z        X      Y      Z        X      Y      Z   
After scan for Atom:   Atom  AN      X      Y      Z        X      Y      Z        X      Y      Z   
After scan for Atom:   Atom  AN      X      Y      Z        X      Y      Z        X      Y      Z   
After scan for Atom:   Atom  AN      X      Y      Z        X      Y      Z        X      Y      Z   
After scan for Atom:   Atom  AN      X      Y      Z        X      Y      Z        X      Y      Z   
After scan for Atom:   Atom  AN      X      Y      Z        X      Y      Z        X      Y      Z   
After scan for Atom:   Atom  AN      X      Y      Z        X      Y      Z        X      Y      Z   
After scan for Atom:   Atom  AN      X      Y      Z        X      Y      Z        X      Y      Z   
After scan for Atom:   Atom  AN      X      Y      Z        X      Y      Z        X      Y      Z   
After scan for Atom:   Atom  AN      X      Y      Z        X      Y      Z        X      Y      Z   
After scan for Atom:   Atom  AN      X      Y      Z        X      Y      Z        X      Y      Z   
After scan for Atom:   Atom  AN      X      Y      Z        X      Y      Z        X      Y      Z   
After scan for Atom:   Atom  AN      X      Y      Z        X      Y      Z        X      Y      Z   
After scan for Atom:   Atom  AN      X      Y      Z        X      Y      Z        X      Y      Z   
After scan for Atom:   Atom  AN      X      Y      Z        X      Y      Z        X      Y      Z   
After scan for Atom:   Atom  AN      X      Y      Z        X      Y      Z        X      Y      Z   
After scan for Atom:   Atom  AN      X      Y      Z        X      Y      Z        X      Y      Z   
After scan for Atom:   Atom  AN      X      Y      Z        X      Y      Z        X      Y      Z   
After scan for Atom:   Atom  AN      X      Y      Z        X      Y      Z        X      Y      Z   
After scan for Atom:   Atom  AN      X      Y      Z        X      Y      Z        X      Y      Z   
 g94    frequencies=
     0.0    0.0    0.0    0.0    0.0    0.0  102.0  141.9  212.1  216.0
   266.4  351.0  380.0  408.5  455.2  487.3  494.8  503.2  512.3  531.0
   544.2  571.8  592.3  657.3  684.1  690.2  698.7  715.3  719.4  734.0
   740.5  785.3  796.4  811.8  822.0  849.7  870.0  880.1  916.7  917.5
   970.5  986.0 1080.7 1101.8 1117.2 1143.8 1149.9 1176.1 1182.6 1217.7
  1229.6 1243.4 1256.9 1307.8 1340.0 1348.7 1375.6 1398.5 1423.5 1429.4
  1455.8 1494.7 1515.5 1545.1 1546.8 1563.6 1588.9 1643.5 3106.9 3107.7
  3112.4 3112.6 3132.4 3135.0 3136.2 3138.5 3147.1 3149.3
 g94    symmetries=
                                                 A      A      A      A
       A      A      A      A      A      A      A      A      A      A
       A      A      A      A      A      A      A      A      A      A
       A      A      A      A      A      A      A      A      A      A
       A      A      A      A      A      A      A      A      A      A
       A      A      A      A      A      A      A      A      A      A
       A      A      A      A      A      A      A      A      A      A
       A      A      A      A      A      A      A      A
 atomic masses:
 12.0000 12.0000 12.0000 12.0000 12.0000 12.0000 12.0000 12.0000 12.0000 12.0000
 12.0000 12.0000 12.0000 12.0000 12.0000 12.0000  1.0078  1.0078  1.0078  1.0078
  1.0078  1.0078  1.0078  1.0078  1.0078  1.0078
 looking for force constants in 
 ./pyrene_0_C-1S0.fchk                                                          
  
 Cartesian Force Constants                  R   N=        3081                  
  
 n3=          78        3081
 g94-fc frequencies=
    -5.8   -5.2   -2.6   -0.0    0.0    0.0  102.0  141.9  212.1  216.0
   266.4  351.0  380.0  408.6  455.2  487.3  494.8  503.2  512.3  531.1
   544.2  571.8  592.3  657.3  684.1  690.3  698.7  715.3  719.4  734.0
   740.5  785.4  796.4  811.8  822.1  849.7  870.0  880.2  916.7  917.5
   970.6  986.1 1080.7 1101.8 1117.3 1143.9 1149.9 1176.1 1182.6 1217.7
  1229.6 1243.5 1256.9 1307.8 1340.0 1348.7 1375.6 1398.5 1423.6 1429.4
  1455.8 1494.7 1515.5 1545.1 1546.9 1563.6 1589.0 1643.5 3107.0 3107.8
  3112.4 3112.6 3132.5 3135.1 3136.3 3138.6 3147.2 3149.3
 at 99999: n3=          78
 symm operator            1 :  F  nop=           0
 symm operator            2 :  F  nop=           0
 symm operator            3 :  F  nop=           0
 symm operator            4 :  F  nop=           0
 symm operator            5 :  F  nop=           0
 symm operator            6 :  F  nop=           0
 symm operator            7 :  F  nop=           0
 The point group of the molecule is  C1
 Symmetry rotation matrix:
   1.00000   0.00000   0.00000
   0.00000   1.00000   0.00000
   0.00000   0.00000   1.00000

 Projecting out zero-frequency components
 generating redundant internal coords
         300        3600          26
 search for int coords
   1 str   2   1   1.390
   2 str   3   2   1.426
   3 str   4   3   1.415
   4 str   5   4   1.384
   5 str   6   5   1.415
   6 str   7   6   1.426
   7 str   8   7   1.390
   8 str   9   8   1.390
   9 str  10   9   1.426
  10 str  11  10   1.415
  11 str  12  11   1.384
  12 str  13  12   1.415
  13 str  14   1   1.390
  14 str  14  13   1.426
  15 str  15   3   1.437
  16 str  15  13   1.437
  17 str  16   6   1.437
  18 str  16  10   1.437
  19 str  16  15   1.432
  20 str  17   1   1.088
  21 str  18   2   1.086
  22 str  19   4   1.088
  23 str  20   5   1.088
  24 str  21   7   1.086
  25 str  22   8   1.088
  26 str  23   9   1.086
  27 str  24  11   1.088
  28 str  25  12   1.088
  29 str  26  14   1.086
 nber stretches=          29
  30 ben   1   2   3
  31 prop tor   1   2   3   4
  32 prop tor   1   2   3  15
  33 ben   1   2  18
  34 ben   1  14  13
  35 ben   1  14  26
  36 ben   2   1  14
  37 prop tor   2   1  14  13
  38 prop tor   2   1  14  26
  39 ben   2   1  17
  40 ben   2   3   4
  41 prop tor   2   3   4   5
  42 prop tor   2   3   4  19
  43 ben   2   3  15
  44 prop tor   2   3  15  13
  45 prop tor   2   3  15  16
  46 ben   3   2  18
  47 ben   3   4   5
  48 prop tor   3   4   5   6
  49 prop tor   3   4   5  20
  50 ben   3   4  19
  51 ben   3  15  13
  52 ben   3  15  16
  53 prop tor   3  15  16   6
  54 prop tor   3  15  16  10
  55 ben   4   3  15
  56 prop tor   4   3  15  13
  57 prop tor   4   3  15  16
  58 ben   4   5   6
  59 prop tor   4   5   6   7
  60 prop tor   4   5   6  16
  61 ben   4   5  20
  62 ben   5   4  19
  63 ben   5   6   7
  64 prop tor   5   6   7   8
  65 prop tor   5   6   7  21
  66 ben   5   6  16
  67 prop tor   5   6  16  10
  68 prop tor   5   6  16  15
  69 ben   6   5  20
  70 ben   6   7   8
  71 prop tor   6   7   8   9
  72 prop tor   6   7   8  22
  73 ben   6   7  21
  74 ben   6  16  10
  75 ben   6  16  15
  76 ben   7   6  16
  77 prop tor   7   6  16  10
  78 prop tor   7   6  16  15
  79 ben   7   8   9
  80 prop tor   7   8   9  10
  81 prop tor   7   8   9  23
  82 ben   7   8  22
  83 ben   8   7  21
  84 ben   8   9  10
  85 prop tor   8   9  10  11
  86 prop tor   8   9  10  16
  87 ben   8   9  23
  88 ben   9   8  22
  89 ben   9  10  11
  90 prop tor   9  10  11  12
  91 prop tor   9  10  11  24
  92 ben   9  10  16
  93 prop tor   9  10  16   6
  94 prop tor   9  10  16  15
  95 ben  10   9  23
  96 ben  10  11  12
  97 prop tor  10  11  12  13
  98 prop tor  10  11  12  25
  99 ben  10  11  24
 100 ben  10  16  15
 101 ben  11  10  16
 102 prop tor  11  10  16   6
 103 prop tor  11  10  16  15
 104 ben  11  12  13
 105 prop tor  11  12  13  14
 106 prop tor  11  12  13  15
 107 ben  11  12  25
 108 ben  12  11  24
 109 ben  12  13  14
 110 prop tor  12  13  14   1
 111 prop tor  12  13  14  26
 112 ben  12  13  15
 113 prop tor  12  13  15   3
 114 prop tor  12  13  15  16
 115 ben  13  12  25
 116 ben  13  14  26
 117 ben  13  15  16
 118 prop tor  13  15  16   6
 119 prop tor  13  15  16  10
 120 prop tor  14   1   2   3
 121 prop tor  14   1   2  18
 122 ben  14   1  17
 123 ben  14  13  15
 124 prop tor  14  13  15   3
 125 prop tor  14  13  15  16
 126 prop tor  15   3   4   5
 127 prop tor  15   3   4  19
 128 prop tor  15  13  14   1
 129 prop tor  15  13  14  26
 130 prop tor  16   6   7   8
 131 prop tor  16   6   7  21
 132 prop tor  16  10  11  12
 133 prop tor  16  10  11  24
 134 prop tor  17   1   2   3
 135 prop tor  17   1   2  18
 136 prop tor  17   1  14  13
 137 prop tor  17   1  14  26
 138 prop tor  18   2   3   4
 139 prop tor  18   2   3  15
 140 prop tor  19   4   5   6
 141 prop tor  19   4   5  20
 142 prop tor  20   5   6   7
 143 prop tor  20   5   6  16
 144 prop tor  21   7   8   9
 145 prop tor  21   7   8  22
 146 prop tor  22   8   9  10
 147 prop tor  22   8   9  23
 148 prop tor  23   9  10  11
 149 prop tor  23   9  10  16
 150 prop tor  24  11  12  13
 151 prop tor  24  11  12  25
 152 prop tor  25  12  13  14
 153 prop tor  25  12  13  15
 nber bend=              48
 nber lin bend=           0
 nber prop tor=          76
 nber impr tor=           0
 nber tot redund int=         153
 Eigenvalues of G in red int coords
    Gval -0.00000000 -0.00000000 -0.00000000 -0.00000000 -0.00000000 -0.00000000 -0.00000000 -0.00000000
    Gval -0.00000000 -0.00000000 -0.00000000 -0.00000000 -0.00000000 -0.00000000 -0.00000000 -0.00000000
    Gval -0.00000000 -0.00000000 -0.00000000 -0.00000000 -0.00000000 -0.00000000 -0.00000000 -0.00000000
    Gval -0.00000000 -0.00000000 -0.00000000 -0.00000000 -0.00000000 -0.00000000 -0.00000000 -0.00000000
    Gval -0.00000000 -0.00000000 -0.00000000 -0.00000000 -0.00000000 -0.00000000 -0.00000000 -0.00000000
    Gval -0.00000000  0.00000000  0.00000000  0.00000000  0.00000000  0.00000000  0.00000000  0.00000000
    Gval  0.00000000  0.00000000  0.00000000  0.00000000  0.00000000  0.00000000  0.00000000  0.00000000
    Gval  0.00000000  0.00000000  0.00000000  0.00000000  0.00000000  0.00000000  0.00000000  0.00000000
    Gval  0.00000000  0.00000000  0.00000000  0.00000000  0.00000000  0.00000000  0.00000000  0.00000000
    Gval  0.00000000  0.00000000  0.00000000  0.00000000  0.00000000  0.00000000  0.00000000  0.00000000
    Gval  0.00000000  0.00001372  0.00001504  0.00002285  0.00002429  0.00002688  0.00004398  0.00005033
    Gval  0.00005507  0.00005980  0.00006701  0.00006915  0.00007284  0.00008243  0.00009065  0.00010228
    Gval  0.00010237  0.00012095  0.00013236  0.00013957  0.00013965  0.00018062  0.00019491  0.00020616
    Gval  0.00024725  0.00024951  0.00026138  0.00028301  0.00032977  0.00036308  0.00037752  0.00038752
    Gval  0.00041841  0.00043999  0.00045378  0.00057671  0.00059374  0.00059392  0.00059693  0.00059897
    Gval  0.00060604  0.00060909  0.00063335  0.00064375  0.00064935  0.00066018  0.00076530  0.00078856
    Gval  0.00096265  0.00102464  0.00105661  0.00106080  0.00108221  0.00108515  0.00113561  0.00113671
    Gval  0.00115239  0.00115324  0.00116114  0.00116126  0.00146196  0.00166907  0.00189257  0.00192469
    Gval  0.00229598  0.00248299  0.00255961  0.00306119  0.00315203  0.00361176  0.00368457  0.00388111
    Gval  0.00390765
  1.371743376184300E-005  1.371743376184300E-005
  1.503619251099278E-005  1.371743376184300E-005
  2.284755623172588E-005  1.371743376184300E-005
  2.428684065035926E-005  1.371743376184300E-005
  2.687533077435982E-005  1.371743376184300E-005
  4.398099457338433E-005  1.371743376184300E-005
  5.033243250015108E-005  1.371743376184300E-005
  5.507136120301277E-005  1.371743376184300E-005
  5.979707631255091E-005  1.371743376184300E-005
  6.700623314260101E-005  1.371743376184300E-005
  6.914768885530055E-005  1.371743376184300E-005
  7.283557112212864E-005  1.371743376184300E-005
  8.242761700139632E-005  1.371743376184300E-005
  9.064985537418033E-005  1.371743376184300E-005
  1.022822314409984E-004  1.371743376184300E-005
  1.023677124011344E-004  1.371743376184300E-005
  1.209484704229871E-004  1.371743376184300E-005
  1.323576397492007E-004  1.371743376184300E-005
  1.395705015747945E-004  1.371743376184300E-005
  1.396537375746124E-004  1.371743376184300E-005
  1.806235385326961E-004  1.371743376184300E-005
  1.949096364517119E-004  1.371743376184300E-005
  2.061637198259317E-004  1.371743376184300E-005
  2.472478788152508E-004  1.371743376184300E-005
  2.495125279819756E-004  1.371743376184300E-005
  2.613759460182270E-004  1.371743376184300E-005
  2.830071180058763E-004  1.371743376184300E-005
  3.297718045934828E-004  1.371743376184300E-005
  3.630818206549360E-004  1.371743376184300E-005
  3.775190634628802E-004  1.371743376184300E-005
  3.875199594021611E-004  1.371743376184300E-005
  4.184057242175962E-004  1.371743376184300E-005
  4.399897757860770E-004  1.371743376184300E-005
  4.537780482164644E-004  1.371743376184300E-005
  5.767079497474762E-004  1.371743376184300E-005
  5.937402522256604E-004  1.371743376184300E-005
  5.939175947937856E-004  1.371743376184300E-005
  5.969300410871411E-004  1.371743376184300E-005
  5.989712309988343E-004  1.371743376184300E-005
  6.060423102091164E-004  1.371743376184300E-005
  6.090889697066526E-004  1.371743376184300E-005
  6.333526348221591E-004  1.371743376184300E-005
  6.437535491305026E-004  1.371743376184300E-005
  6.493512377098430E-004  1.371743376184300E-005
  6.601767957118055E-004  1.371743376184300E-005
  7.653000891557899E-004  1.371743376184300E-005
  7.885560067814110E-004  1.371743376184300E-005
  9.626549052996725E-004  1.371743376184300E-005
  1.024643652621158E-003  1.371743376184300E-005
  1.056605915045044E-003  1.371743376184300E-005
  1.060798219902155E-003  1.371743376184300E-005
  1.082207232039661E-003  1.371743376184300E-005
  1.085148112860876E-003  1.371743376184300E-005
  1.135607060461798E-003  1.371743376184300E-005
  1.136708306481870E-003  1.371743376184300E-005
  1.152389201813400E-003  1.371743376184300E-005
  1.153243837579595E-003  1.371743376184300E-005
  1.161139987678107E-003  1.371743376184300E-005
  1.161257646207168E-003  1.371743376184300E-005
  1.461961863770043E-003  1.371743376184300E-005
  1.669066519089020E-003  1.371743376184300E-005
  1.892570997160896E-003  1.371743376184300E-005
  1.924692790263342E-003  1.371743376184300E-005
  2.295980421866946E-003  1.371743376184300E-005
  2.482992868085080E-003  1.371743376184300E-005
  2.559608329283650E-003  1.371743376184300E-005
  3.061190806383709E-003  1.371743376184300E-005
  3.152033650999280E-003  1.371743376184300E-005
  3.611759810242635E-003  1.371743376184300E-005
  3.684571341915049E-003  1.371743376184300E-005
  3.881108896817370E-003  1.371743376184300E-005
  3.907654584422265E-003  1.371743376184300E-005
 cut=1d-8, nber non-redundant internal coords=          72
 Check on Eigenvals of non-red overlap matrix:
  0.00001372  0.00001504  0.00002285  0.00002429  0.00002688  0.00004398  0.00005033  0.00005507
  0.00005980  0.00006701  0.00006915  0.00007284  0.00008243  0.00009065  0.00010228  0.00010237
  0.00012095  0.00013236  0.00013957  0.00013965  0.00018062  0.00019491  0.00020616  0.00024725
  0.00024951  0.00026138  0.00028301  0.00032977  0.00036308  0.00037752  0.00038752  0.00041841
  0.00043999  0.00045378  0.00057671  0.00059374  0.00059392  0.00059693  0.00059897  0.00060604
  0.00060909  0.00063335  0.00064375  0.00064935  0.00066018  0.00076530  0.00078856  0.00096265
  0.00102464  0.00105661  0.00106080  0.00108221  0.00108515  0.00113561  0.00113671  0.00115239
  0.00115324  0.00116114  0.00116126  0.00146196  0.00166907  0.00189257  0.00192469  0.00229598
  0.00248299  0.00255961  0.00306119  0.00315203  0.00361176  0.00368457  0.00388111  0.00390765
 Checking for correct frequencies
 recalc frequencies=
    -0.0   -0.0   -0.0    0.0    0.0    0.0  102.0  141.9  212.1  216.0
   266.4  351.0  380.0  408.6  455.2  487.3  494.8  503.2  512.3  531.1
   544.2  571.8  592.3  657.3  684.1  690.3  698.7  715.3  719.4  734.0
   740.5  785.4  796.4  811.8  822.1  849.7  870.0  880.2  916.7  917.5
   970.6  986.1 1080.7 1101.8 1117.3 1143.9 1149.9 1176.1 1182.6 1217.7
  1229.6 1243.5 1256.9 1307.8 1340.0 1348.7 1375.6 1398.5 1423.6 1429.4
  1455.8 1494.7 1515.5 1545.1 1546.9 1563.6 1589.0 1643.5 3107.0 3107.8
  3112.4 3112.6 3132.5 3135.1 3136.3 3138.6 3147.2 3149.3
 recalc symmetries=
                                                                       
                                                                       
                                                                       
                                                                       
                                                                       
                                                                       
                                                                       
                                                         
 recalc freqs check OK
 Zero-point lengths:
 10.0000 10.0000 10.0000 10.0000 10.0000 10.0000 24.5486 20.8105 17.0240 16.8672
 15.1891 13.2319 12.7180 12.2651 11.6192 11.2299 11.1445 11.0517 10.9528 10.7579
 10.6270 10.3672 10.1864  9.6698  9.4782  9.4360  9.3791  9.2696  9.2429  9.1506
  9.1100  8.8463  8.7847  8.7010  8.6466  8.5047  8.4051  8.3563  8.1882  8.1846
  7.9576  7.8948  7.5411  7.4688  7.4169  7.3301  7.3108  7.2289  7.2090  7.1044
  7.0700  7.0304  6.9926  6.8552  6.7724  6.7505  6.6841  6.6292  6.5706  6.5571
  6.4974  6.4124  6.3682  6.3069  6.3033  6.2695  6.2192  6.1152  4.4476  4.4470
  4.4437  4.4436  4.4295  4.4276  4.4268  4.4252  4.4191  4.4176
 highest evec of mol 2
  0.0930 -0.0000  0.0000
  0.0581  0.1093  0.0000
 -0.0026  0.0008 -0.0000
  0.0224  0.0364  0.0000
 -0.0224  0.0364  0.0000
  0.0026  0.0008  0.0000
 -0.0581  0.1093  0.0000
 -0.0930  0.0000 -0.0000
 -0.0581 -0.1093 -0.0000
  0.0026 -0.0008  0.0000
 -0.0224 -0.0364 -0.0000
  0.0224 -0.0364 -0.0000
 -0.0026 -0.0008 -0.0000
  0.0581 -0.1093 -0.0000
 -0.0006  0.0000 -0.0000
  0.0006  0.0000  0.0000
 -0.2911  0.0000 -0.0000
 -0.2046 -0.3526 -0.0001
 -0.0699 -0.1232 -0.0000
  0.0699 -0.1232 -0.0000
  0.2045 -0.3524 -0.0000
  0.2909 -0.0000  0.0000
  0.2045  0.3524  0.0001
  0.0699  0.1232  0.0000
 -0.0699  0.1232  0.0000
 -0.2046  0.3526  0.0000
 Enter nber and list of atoms to keep of mol #2
 keep list:          26           1           2           3           4
           5           6           7           8           9          10
          11          12          13          14          15          16
          17          18          19          20          21          22
          23          24          25          26
 reordering atoms
           1  -3.53939058961234     
           2  -2.86161393957859     
           3  -1.43567352646709     
           4 -0.691921341111052     
           5  0.691921669503007     
           6   1.43567349564534     
           7   2.86161410435849     
           8   3.53939046483429     
           9   2.86161381491586     
          10   1.43567340145841     
          11  0.691921215987057     
          12 -0.691920794742325     
          13  -1.43567362076933     
          14  -2.86161422929771     
          15 -0.716150568074260     
          16  0.716150442950265     
          17  -4.62785459793817     
          18  -3.40820390358794     
          19  -1.23351309987940     
          20   1.23351291910115     
          21   3.40820414852334     
          22   4.62785447327543     
          23   3.40820377915583     
          24   1.23351297452477     
          25  -1.23351304464055     
          26  -3.40820427364733     
           1           1
           2           2
           3           3
           4           4
           5           5
           6           6
           7           7
           8           8
           9           9
          10          10
          11          11
          12          12
          13          13
          14          14
          15          15
          16          16
          17          17
          18          18
          19          19
          20          20
          21          21
          22          22
          23          23
          24          24
          25          25
          26          26
 initial cartes coords mol 1
   6  -0.00000   0.00000  -3.51823
   6  -0.00000  -1.20858  -2.82925
   6   0.00000  -1.23482  -1.42743
   6   0.00000  -2.46063  -0.67919
   6   0.00000  -2.46063   0.67919
   6   0.00000  -1.23482   1.42743
   6  -0.00000  -1.20858   2.82925
   6  -0.00000  -0.00000   3.51823
   6  -0.00000   1.20858   2.82925
   6  -0.00000   1.23482   1.42743
   6   0.00000   2.46063   0.67919
   6   0.00000   2.46064  -0.67919
   6   0.00000   1.23481  -1.42743
   6  -0.00000   1.20858  -2.82925
   6   0.00000   0.00000  -0.71239
   6   0.00000  -0.00000   0.71239
   1  -0.00000   0.00000  -4.60252
   1  -0.00000  -2.14619  -3.37498
   1   0.00000  -3.39765  -1.22640
   1   0.00000  -3.39765   1.22640
   1  -0.00000  -2.14619   3.37498
   1  -0.00000  -0.00000   4.60252
   1  -0.00000   2.14619   3.37498
   1   0.00000   3.39765   1.22640
   1   0.00000   3.39765  -1.22640
   1  -0.00000   2.14619  -3.37498
 initial cartes coords mol 2
   6  -0.00000  -0.00000  -3.53939
   6  -0.00000  -1.21355  -2.86161
   6   0.00000  -1.24413  -1.43567
   6   0.00000  -2.44753  -0.69192
   6   0.00000  -2.44753   0.69192
   6   0.00000  -1.24413   1.43567
   6  -0.00000  -1.21355   2.86161
   6  -0.00000   0.00000   3.53939
   6  -0.00000   1.21355   2.86161
   6  -0.00000   1.24413   1.43567
   6   0.00000   2.44753   0.69192
   6   0.00000   2.44753  -0.69192
   6   0.00000   1.24413  -1.43567
   6  -0.00000   1.21355  -2.86161
   6   0.00000   0.00000  -0.71615
   6   0.00000  -0.00000   0.71615
   1  -0.00000  -0.00000  -4.62785
   1  -0.00000  -2.15220  -3.40820
   1   0.00000  -3.39067  -1.23351
   1   0.00000  -3.39067   1.23351
   1   0.00000  -2.15220   3.40820
   1  -0.00000   0.00000   4.62785
   1  -0.00000   2.15220   3.40820
   1   0.00000   3.39067   1.23351
   1   0.00000   3.39067  -1.23351
   1   0.00000   2.15220  -3.40820
 loop 1 0
 mod cartes coords mol 2
   6  -0.00000  -0.00000  -3.53939
   6  -0.00000  -1.21355  -2.86161
   6   0.00000  -1.24413  -1.43567
   6   0.00000  -2.44753  -0.69192
   6   0.00000  -2.44753   0.69192
   6   0.00000  -1.24413   1.43567
   6  -0.00000  -1.21355   2.86161
   6  -0.00000   0.00000   3.53939
   6  -0.00000   1.21355   2.86161
   6  -0.00000   1.24413   1.43567
   6   0.00000   2.44753   0.69192
   6   0.00000   2.44753  -0.69192
   6   0.00000   1.24413  -1.43567
   6  -0.00000   1.21355  -2.86161
   6   0.00000   0.00000  -0.71615
   6   0.00000  -0.00000   0.71615
   1  -0.00000  -0.00000  -4.62785
   1  -0.00000  -2.15220  -3.40820
   1   0.00000  -3.39067  -1.23351
   1   0.00000  -3.39067   1.23351
   1   0.00000  -2.15220   3.40820
   1  -0.00000   0.00000   4.62785
   1  -0.00000   2.15220   3.40820
   1   0.00000   3.39067   1.23351
   1   0.00000   3.39067  -1.23351
   1   0.00000   2.15220  -3.40820
 read in order, maxerr=  0.03 for atom  21
 final axis swaps:           1           1           1
 final xyz swap pattern=           1
 reorder list:
   1   2   3   4   5   6   7   8   9  10  11  12  13  14  15  16  17  18  19  20
  21  22  23  24  25  26
 axis signs=           1           1           1
  6    -0.000001 -0.000000 -3.539391    -0.000002  0.000000 -3.518235
  6    -0.000001 -1.213547 -2.861614    -0.000000 -1.208575 -2.829251
  6     0.000000 -1.244131 -1.435674     0.000000 -1.234815 -1.427428
  6     0.000000 -2.447534 -0.691921     0.000001 -2.460634 -0.679189
  6     0.000001 -2.447534  0.691922     0.000001 -2.460635  0.679188
  6     0.000001 -1.244131  1.435673     0.000000 -1.234816  1.427428
  6    -0.000001 -1.213547  2.861614    -0.000001 -1.208576  2.829252
  6    -0.000001  0.000000  3.539390    -0.000001 -0.000000  3.518234
  6    -0.000001  1.213547  2.861614    -0.000001  1.208575  2.829251
  6    -0.000000  1.244131  1.435673    -0.000000  1.234815  1.427428
  6     0.000001  2.447534  0.691921     0.000001  2.460634  0.679189
  6     0.000001  2.447534 -0.691921     0.000001  2.460635 -0.679188
  6     0.000001  1.244131 -1.435674     0.000001  1.234815 -1.427428
  6    -0.000000  1.213548 -2.861614    -0.000001  1.208576 -2.829251
  6     0.000000  0.000000 -0.716151     0.000001  0.000000 -0.712392
  6     0.000001 -0.000000  0.716150     0.000001 -0.000000  0.712391
  1    -0.000002 -0.000000 -4.627855    -0.000003  0.000001 -4.602520
  1    -0.000002 -2.152201 -3.408204    -0.000001 -2.146193 -3.374984
  1     0.000002 -3.390669 -1.233513     0.000002 -3.397647 -1.226404
  1     0.000002 -3.390670  1.233513     0.000002 -3.397648  1.226404
  1     0.000001 -2.152201  3.408204    -0.000001 -2.146195  3.374984
  1    -0.000001  0.000000  4.627854    -0.000002 -0.000001  4.602519
  1    -0.000003  2.152201  3.408204    -0.000001  2.146193  3.374984
  1     0.000001  3.390669  1.233513     0.000002  3.397647  1.226404
  1     0.000003  3.390668 -1.233513     0.000002  3.397648 -1.226404
  1     0.000000  2.152201 -3.408204    -0.000001  2.146195 -3.374984
 generating redundant internal coords
         300        3600          26
 Adding extra bonds for z output only
           6           6           6           6           6           6
           6           6           6           6           6           6
           6           6           6           6           1           1
           1           1           1           1           1           1
           1           1
 search for int coords
   1 str   2   1   1.390
   2 str   3   2   1.426
   3 str   4   3   1.415
   4 str   5   4   1.384
   5 str   6   5   1.415
   6 str   7   6   1.426
   7 str   8   7   1.390
   8 str   9   8   1.390
   9 str  10   9   1.426
  10 str  11  10   1.415
  11 str  12  11   1.384
  12 str  13  12   1.415
  13 str  14   1   1.390
  14 str  14  13   1.426
  15 str  15   3   1.437
  16 str  15  13   1.437
  17 str  16   6   1.437
  18 str  16  10   1.437
  19 str  16  15   1.432
  20 str  17   1   1.088
  21 str  18   2   1.086
  22 str  19   4   1.088
  23 str  20   5   1.088
  24 str  21   7   1.086
  25 str  22   8   1.088
  26 str  23   9   1.086
  27 str  24  11   1.088
  28 str  25  12   1.088
  29 str  26  14   1.086
 nber stretches=          29
  30 ben   1   2   3
  31 prop tor   1   2   3   4
  32 prop tor   1   2   3  15
  33 ben   1   2  18
  34 ben   1  14  13
  35 ben   1  14  26
  36 ben   2   1  14
  37 prop tor   2   1  14  13
  38 prop tor   2   1  14  26
  39 ben   2   1  17
  40 ben   2   3   4
  41 prop tor   2   3   4   5
  42 prop tor   2   3   4  19
  43 ben   2   3  15
  44 prop tor   2   3  15  13
  45 prop tor   2   3  15  16
  46 ben   3   2  18
  47 ben   3   4   5
  48 prop tor   3   4   5   6
  49 prop tor   3   4   5  20
  50 ben   3   4  19
  51 ben   3  15  13
  52 ben   3  15  16
  53 prop tor   3  15  16   6
  54 prop tor   3  15  16  10
  55 ben   4   3  15
  56 prop tor   4   3  15  13
  57 prop tor   4   3  15  16
  58 ben   4   5   6
  59 prop tor   4   5   6   7
  60 prop tor   4   5   6  16
  61 ben   4   5  20
  62 ben   5   4  19
  63 ben   5   6   7
  64 prop tor   5   6   7   8
  65 prop tor   5   6   7  21
  66 ben   5   6  16
  67 prop tor   5   6  16  10
  68 prop tor   5   6  16  15
  69 ben   6   5  20
  70 ben   6   7   8
  71 prop tor   6   7   8   9
  72 prop tor   6   7   8  22
  73 ben   6   7  21
  74 ben   6  16  10
  75 ben   6  16  15
  76 ben   7   6  16
  77 prop tor   7   6  16  10
  78 prop tor   7   6  16  15
  79 ben   7   8   9
  80 prop tor   7   8   9  10
  81 prop tor   7   8   9  23
  82 ben   7   8  22
  83 ben   8   7  21
  84 ben   8   9  10
  85 prop tor   8   9  10  11
  86 prop tor   8   9  10  16
  87 ben   8   9  23
  88 ben   9   8  22
  89 ben   9  10  11
  90 prop tor   9  10  11  12
  91 prop tor   9  10  11  24
  92 ben   9  10  16
  93 prop tor   9  10  16   6
  94 prop tor   9  10  16  15
  95 ben  10   9  23
  96 ben  10  11  12
  97 prop tor  10  11  12  13
  98 prop tor  10  11  12  25
  99 ben  10  11  24
 100 ben  10  16  15
 101 ben  11  10  16
 102 prop tor  11  10  16   6
 103 prop tor  11  10  16  15
 104 ben  11  12  13
 105 prop tor  11  12  13  14
 106 prop tor  11  12  13  15
 107 ben  11  12  25
 108 ben  12  11  24
 109 ben  12  13  14
 110 prop tor  12  13  14   1
 111 prop tor  12  13  14  26
 112 ben  12  13  15
 113 prop tor  12  13  15   3
 114 prop tor  12  13  15  16
 115 ben  13  12  25
 116 ben  13  14  26
 117 ben  13  15  16
 118 prop tor  13  15  16   6
 119 prop tor  13  15  16  10
 120 prop tor  14   1   2   3
 121 prop tor  14   1   2  18
 122 ben  14   1  17
 123 ben  14  13  15
 124 prop tor  14  13  15   3
 125 prop tor  14  13  15  16
 126 prop tor  15   3   4   5
 127 prop tor  15   3   4  19
 128 prop tor  15  13  14   1
 129 prop tor  15  13  14  26
 130 prop tor  16   6   7   8
 131 prop tor  16   6   7  21
 132 prop tor  16  10  11  12
 133 prop tor  16  10  11  24
 134 prop tor  17   1   2   3
 135 prop tor  17   1   2  18
 136 prop tor  17   1  14  13
 137 prop tor  17   1  14  26
 138 prop tor  18   2   3   4
 139 prop tor  18   2   3  15
 140 prop tor  19   4   5   6
 141 prop tor  19   4   5  20
 142 prop tor  20   5   6   7
 143 prop tor  20   5   6  16
 144 prop tor  21   7   8   9
 145 prop tor  21   7   8  22
 146 prop tor  22   8   9  10
 147 prop tor  22   8   9  23
 148 prop tor  23   9  10  11
 149 prop tor  23   9  10  16
 150 prop tor  24  11  12  13
 151 prop tor  24  11  12  25
 152 prop tor  25  12  13  14
 153 prop tor  25  12  13  15
 nber bend=              48
 nber lin bend=           0
 nber prop tor=          76
 nber impr tor=           0
 nber tot redund int=         153
 generating redundant internal coords
         300        3600          26
 search for int coords
   1 str   2   1   1.391
   2 str   3   2   1.402
   3 str   4   3   1.436
   4 str   5   4   1.358
   5 str   6   5   1.436
   6 str   7   6   1.402
   7 str   8   7   1.391
   8 str   9   8   1.391
   9 str  10   9   1.402
  10 str  11  10   1.436
  11 str  12  11   1.358
  12 str  13  12   1.436
  13 str  14   1   1.391
  14 str  14  13   1.402
  15 str  15   3   1.427
  16 str  15  13   1.427
  17 str  16   6   1.427
  18 str  16  10   1.427
  19 str  16  15   1.425
  20 str  17   1   1.084
  21 str  18   2   1.085
  22 str  19   4   1.085
  23 str  20   5   1.085
  24 str  21   7   1.085
  25 str  22   8   1.084
  26 str  23   9   1.085
  27 str  24  11   1.085
  28 str  25  12   1.085
  29 str  26  14   1.085
 nber stretches=          29
  30 ben   1   2   3
  31 prop tor   1   2   3   4
  32 prop tor   1   2   3  15
  33 ben   1   2  18
  34 ben   1  14  13
  35 ben   1  14  26
  36 ben   2   1  14
  37 prop tor   2   1  14  13
  38 prop tor   2   1  14  26
  39 ben   2   1  17
  40 ben   2   3   4
  41 prop tor   2   3   4   5
  42 prop tor   2   3   4  19
  43 ben   2   3  15
  44 prop tor   2   3  15  13
  45 prop tor   2   3  15  16
  46 ben   3   2  18
  47 ben   3   4   5
  48 prop tor   3   4   5   6
  49 prop tor   3   4   5  20
  50 ben   3   4  19
  51 ben   3  15  13
  52 ben   3  15  16
  53 prop tor   3  15  16   6
  54 prop tor   3  15  16  10
  55 ben   4   3  15
  56 prop tor   4   3  15  13
  57 prop tor   4   3  15  16
  58 ben   4   5   6
  59 prop tor   4   5   6   7
  60 prop tor   4   5   6  16
  61 ben   4   5  20
  62 ben   5   4  19
  63 ben   5   6   7
  64 prop tor   5   6   7   8
  65 prop tor   5   6   7  21
  66 ben   5   6  16
  67 prop tor   5   6  16  10
  68 prop tor   5   6  16  15
  69 ben   6   5  20
  70 ben   6   7   8
  71 prop tor   6   7   8   9
  72 prop tor   6   7   8  22
  73 ben   6   7  21
  74 ben   6  16  10
  75 ben   6  16  15
  76 ben   7   6  16
  77 prop tor   7   6  16  10
  78 prop tor   7   6  16  15
  79 ben   7   8   9
  80 prop tor   7   8   9  10
  81 prop tor   7   8   9  23
  82 ben   7   8  22
  83 ben   8   7  21
  84 ben   8   9  10
  85 prop tor   8   9  10  11
  86 prop tor   8   9  10  16
  87 ben   8   9  23
  88 ben   9   8  22
  89 ben   9  10  11
  90 prop tor   9  10  11  12
  91 prop tor   9  10  11  24
  92 ben   9  10  16
  93 prop tor   9  10  16   6
  94 prop tor   9  10  16  15
  95 ben  10   9  23
  96 ben  10  11  12
  97 prop tor  10  11  12  13
  98 prop tor  10  11  12  25
  99 ben  10  11  24
 100 ben  10  16  15
 101 ben  11  10  16
 102 prop tor  11  10  16   6
 103 prop tor  11  10  16  15
 104 ben  11  12  13
 105 prop tor  11  12  13  14
 106 prop tor  11  12  13  15
 107 ben  11  12  25
 108 ben  12  11  24
 109 ben  12  13  14
 110 prop tor  12  13  14   1
 111 prop tor  12  13  14  26
 112 ben  12  13  15
 113 prop tor  12  13  15   3
 114 prop tor  12  13  15  16
 115 ben  13  12  25
 116 ben  13  14  26
 117 ben  13  15  16
 118 prop tor  13  15  16   6
 119 prop tor  13  15  16  10
 120 prop tor  14   1   2   3
 121 prop tor  14   1   2  18
 122 ben  14   1  17
 123 ben  14  13  15
 124 prop tor  14  13  15   3
 125 prop tor  14  13  15  16
 126 prop tor  15   3   4   5
 127 prop tor  15   3   4  19
 128 prop tor  15  13  14   1
 129 prop tor  15  13  14  26
 130 prop tor  16   6   7   8
 131 prop tor  16   6   7  21
 132 prop tor  16  10  11  12
 133 prop tor  16  10  11  24
 134 prop tor  17   1   2   3
 135 prop tor  17   1   2  18
 136 prop tor  17   1  14  13
 137 prop tor  17   1  14  26
 138 prop tor  18   2   3   4
 139 prop tor  18   2   3  15
 140 prop tor  19   4   5   6
 141 prop tor  19   4   5  20
 142 prop tor  20   5   6   7
 143 prop tor  20   5   6  16
 144 prop tor  21   7   8   9
 145 prop tor  21   7   8  22
 146 prop tor  22   8   9  10
 147 prop tor  22   8   9  23
 148 prop tor  23   9  10  11
 149 prop tor  23   9  10  16
 150 prop tor  24  11  12  13
 151 prop tor  24  11  12  25
 152 prop tor  25  12  13  14
 153 prop tor  25  12  13  15
 nber bend=              48
 nber lin bend=           0
 nber prop tor=          76
 nber impr tor=           0
 nber tot redund int=         153
 Eigenvalues of G in red int coords
    Gval -0.00000000 -0.00000000 -0.00000000 -0.00000000 -0.00000000 -0.00000000 -0.00000000 -0.00000000
    Gval -0.00000000 -0.00000000 -0.00000000 -0.00000000 -0.00000000 -0.00000000 -0.00000000 -0.00000000
    Gval -0.00000000 -0.00000000 -0.00000000 -0.00000000 -0.00000000 -0.00000000 -0.00000000 -0.00000000
    Gval -0.00000000 -0.00000000 -0.00000000 -0.00000000 -0.00000000 -0.00000000 -0.00000000 -0.00000000
    Gval -0.00000000 -0.00000000 -0.00000000 -0.00000000 -0.00000000 -0.00000000 -0.00000000 -0.00000000
    Gval -0.00000000  0.00000000  0.00000000  0.00000000  0.00000000  0.00000000  0.00000000  0.00000000
    Gval  0.00000000  0.00000000  0.00000000  0.00000000  0.00000000  0.00000000  0.00000000  0.00000000
    Gval  0.00000000  0.00000000  0.00000000  0.00000000  0.00000000  0.00000000  0.00000000  0.00000000
    Gval  0.00000000  0.00000000  0.00000000  0.00000000  0.00000000  0.00000000  0.00000000  0.00000000
    Gval  0.00000000  0.00000000  0.00000000  0.00000000  0.00000000  0.00000000  0.00000000  0.00000000
    Gval  0.00000000  0.00001371  0.00001523  0.00002290  0.00002426  0.00002671  0.00004406  0.00005080
    Gval  0.00005547  0.00005979  0.00006731  0.00006890  0.00007255  0.00008255  0.00009074  0.00010224
    Gval  0.00010425  0.00012291  0.00013254  0.00013943  0.00014038  0.00017713  0.00019344  0.00020958
    Gval  0.00024945  0.00025003  0.00026045  0.00028479  0.00033365  0.00036471  0.00037685  0.00039193
    Gval  0.00041926  0.00044424  0.00045900  0.00059053  0.00059379  0.00059397  0.00059690  0.00059886
    Gval  0.00060677  0.00060973  0.00063361  0.00064346  0.00065078  0.00066086  0.00075998  0.00078260
    Gval  0.00097474  0.00102758  0.00106265  0.00106750  0.00108454  0.00108811  0.00113856  0.00113948
    Gval  0.00116096  0.00116164  0.00116768  0.00116779  0.00145687  0.00168791  0.00191484  0.00194496
    Gval  0.00229543  0.00249109  0.00259052  0.00306494  0.00315174  0.00365077  0.00371970  0.00390881
    Gval  0.00393555
  1.370563105418928E-005  1.370563105418928E-005
  1.522780150682688E-005  1.370563105418928E-005
  2.289857769906441E-005  1.370563105418928E-005
  2.425589285841877E-005  1.370563105418928E-005
  2.670526667779925E-005  1.370563105418928E-005
  4.406151525535476E-005  1.370563105418928E-005
  5.079976204954621E-005  1.370563105418928E-005
  5.547063974142948E-005  1.370563105418928E-005
  5.978910929419511E-005  1.370563105418928E-005
  6.730878182977202E-005  1.370563105418928E-005
  6.890423610500961E-005  1.370563105418928E-005
  7.254879963492809E-005  1.370563105418928E-005
  8.255287490733207E-005  1.370563105418928E-005
  9.074065181618427E-005  1.370563105418928E-005
  1.022421678383325E-004  1.370563105418928E-005
  1.042509025649678E-004  1.370563105418928E-005
  1.229055324790670E-004  1.370563105418928E-005
  1.325369777277296E-004  1.370563105418928E-005
  1.394292556192899E-004  1.370563105418928E-005
  1.403832571377534E-004  1.370563105418928E-005
  1.771321284078942E-004  1.370563105418928E-005
  1.934414259822094E-004  1.370563105418928E-005
  2.095818392863910E-004  1.370563105418928E-005
  2.494462770659140E-004  1.370563105418928E-005
  2.500286352031293E-004  1.370563105418928E-005
  2.604454438196681E-004  1.370563105418928E-005
  2.847895925838188E-004  1.370563105418928E-005
  3.336510971890740E-004  1.370563105418928E-005
  3.647087704012217E-004  1.370563105418928E-005
  3.768486312139476E-004  1.370563105418928E-005
  3.919263135836754E-004  1.370563105418928E-005
  4.192578051225066E-004  1.370563105418928E-005
  4.442375787481924E-004  1.370563105418928E-005
  4.590010764506207E-004  1.370563105418928E-005
  5.905287059470613E-004  1.370563105418928E-005
  5.937892419816803E-004  1.370563105418928E-005
  5.939671709234603E-004  1.370563105418928E-005
  5.969035926627934E-004  1.370563105418928E-005
  5.988649624894774E-004  1.370563105418928E-005
  6.067688640879946E-004  1.370563105418928E-005
  6.097311065362470E-004  1.370563105418928E-005
  6.336142309452707E-004  1.370563105418928E-005
  6.434604211619128E-004  1.370563105418928E-005
  6.507777011733158E-004  1.370563105418928E-005
  6.608587254981491E-004  1.370563105418928E-005
  7.599830607084990E-004  1.370563105418928E-005
  7.826030877431714E-004  1.370563105418928E-005
  9.747387856739883E-004  1.370563105418928E-005
  1.027584206430918E-003  1.370563105418928E-005
  1.062650384910315E-003  1.370563105418928E-005
  1.067502063521320E-003  1.370563105418928E-005
  1.084536757702824E-003  1.370563105418928E-005
  1.088109610773664E-003  1.370563105418928E-005
  1.138556295562231E-003  1.370563105418928E-005
  1.139477027706833E-003  1.370563105418928E-005
  1.160962139672980E-003  1.370563105418928E-005
  1.161635902529571E-003  1.370563105418928E-005
  1.167676863161635E-003  1.370563105418928E-005
  1.167789178966292E-003  1.370563105418928E-005
  1.456871129901936E-003  1.370563105418928E-005
  1.687908801242519E-003  1.370563105418928E-005
  1.914836757114950E-003  1.370563105418928E-005
  1.944962047726644E-003  1.370563105418928E-005
  2.295432705323905E-003  1.370563105418928E-005
  2.491090296102745E-003  1.370563105418928E-005
  2.590517452059284E-003  1.370563105418928E-005
  3.064936004434634E-003  1.370563105418928E-005
  3.151737078690631E-003  1.370563105418928E-005
  3.650773276419100E-003  1.370563105418928E-005
  3.719696607133517E-003  1.370563105418928E-005
  3.908809314531286E-003  1.370563105418928E-005
  3.935552200333111E-003  1.370563105418928E-005
 cut=1d-8, nber non-redundant internal coords=          72
 Check on Eigenvals of non-red overlap matrix:
  0.00001371  0.00001523  0.00002290  0.00002426  0.00002671  0.00004406  0.00005080  0.00005547
  0.00005979  0.00006731  0.00006890  0.00007255  0.00008255  0.00009074  0.00010224  0.00010425
  0.00012291  0.00013254  0.00013943  0.00014038  0.00017713  0.00019344  0.00020958  0.00024945
  0.00025003  0.00026045  0.00028479  0.00033365  0.00036471  0.00037685  0.00039193  0.00041926
  0.00044424  0.00045900  0.00059053  0.00059379  0.00059397  0.00059690  0.00059886  0.00060677
  0.00060973  0.00063361  0.00064346  0.00065078  0.00066086  0.00075998  0.00078260  0.00097474
  0.00102758  0.00106265  0.00106750  0.00108454  0.00108811  0.00113856  0.00113948  0.00116096
  0.00116164  0.00116768  0.00116779  0.00145687  0.00168791  0.00191484  0.00194496  0.00229543
  0.00249109  0.00259052  0.00306494  0.00315174  0.00365077  0.00371970  0.00390881  0.00393555
 generating redundant internal coords
         300        3600          26
 search for int coords
   1 str   2   1   1.390
   2 str   3   2   1.426
   3 str   4   3   1.415
   4 str   5   4   1.384
   5 str   6   5   1.415
   6 str   7   6   1.426
   7 str   8   7   1.390
   8 str   9   8   1.390
   9 str  10   9   1.426
  10 str  11  10   1.415
  11 str  12  11   1.384
  12 str  13  12   1.415
  13 str  14   1   1.390
  14 str  14  13   1.426
  15 str  15   3   1.437
  16 str  15  13   1.437
  17 str  16   6   1.437
  18 str  16  10   1.437
  19 str  16  15   1.432
  20 str  17   1   1.088
  21 str  18   2   1.086
  22 str  19   4   1.088
  23 str  20   5   1.088
  24 str  21   7   1.086
  25 str  22   8   1.088
  26 str  23   9   1.086
  27 str  24  11   1.088
  28 str  25  12   1.088
  29 str  26  14   1.086
 nber stretches=          29
  30 ben   1   2   3
  31 prop tor   1   2   3   4
  32 prop tor   1   2   3  15
  33 ben   1   2  18
  34 ben   1  14  13
  35 ben   1  14  26
  36 ben   2   1  14
  37 prop tor   2   1  14  13
  38 prop tor   2   1  14  26
  39 ben   2   1  17
  40 ben   2   3   4
  41 prop tor   2   3   4   5
  42 prop tor   2   3   4  19
  43 ben   2   3  15
  44 prop tor   2   3  15  13
  45 prop tor   2   3  15  16
  46 ben   3   2  18
  47 ben   3   4   5
  48 prop tor   3   4   5   6
  49 prop tor   3   4   5  20
  50 ben   3   4  19
  51 ben   3  15  13
  52 ben   3  15  16
  53 prop tor   3  15  16   6
  54 prop tor   3  15  16  10
  55 ben   4   3  15
  56 prop tor   4   3  15  13
  57 prop tor   4   3  15  16
  58 ben   4   5   6
  59 prop tor   4   5   6   7
  60 prop tor   4   5   6  16
  61 ben   4   5  20
  62 ben   5   4  19
  63 ben   5   6   7
  64 prop tor   5   6   7   8
  65 prop tor   5   6   7  21
  66 ben   5   6  16
  67 prop tor   5   6  16  10
  68 prop tor   5   6  16  15
  69 ben   6   5  20
  70 ben   6   7   8
  71 prop tor   6   7   8   9
  72 prop tor   6   7   8  22
  73 ben   6   7  21
  74 ben   6  16  10
  75 ben   6  16  15
  76 ben   7   6  16
  77 prop tor   7   6  16  10
  78 prop tor   7   6  16  15
  79 ben   7   8   9
  80 prop tor   7   8   9  10
  81 prop tor   7   8   9  23
  82 ben   7   8  22
  83 ben   8   7  21
  84 ben   8   9  10
  85 prop tor   8   9  10  11
  86 prop tor   8   9  10  16
  87 ben   8   9  23
  88 ben   9   8  22
  89 ben   9  10  11
  90 prop tor   9  10  11  12
  91 prop tor   9  10  11  24
  92 ben   9  10  16
  93 prop tor   9  10  16   6
  94 prop tor   9  10  16  15
  95 ben  10   9  23
  96 ben  10  11  12
  97 prop tor  10  11  12  13
  98 prop tor  10  11  12  25
  99 ben  10  11  24
 100 ben  10  16  15
 101 ben  11  10  16
 102 prop tor  11  10  16   6
 103 prop tor  11  10  16  15
 104 ben  11  12  13
 105 prop tor  11  12  13  14
 106 prop tor  11  12  13  15
 107 ben  11  12  25
 108 ben  12  11  24
 109 ben  12  13  14
 110 prop tor  12  13  14   1
 111 prop tor  12  13  14  26
 112 ben  12  13  15
 113 prop tor  12  13  15   3
 114 prop tor  12  13  15  16
 115 ben  13  12  25
 116 ben  13  14  26
 117 ben  13  15  16
 118 prop tor  13  15  16   6
 119 prop tor  13  15  16  10
 120 prop tor  14   1   2   3
 121 prop tor  14   1   2  18
 122 ben  14   1  17
 123 ben  14  13  15
 124 prop tor  14  13  15   3
 125 prop tor  14  13  15  16
 126 prop tor  15   3   4   5
 127 prop tor  15   3   4  19
 128 prop tor  15  13  14   1
 129 prop tor  15  13  14  26
 130 prop tor  16   6   7   8
 131 prop tor  16   6   7  21
 132 prop tor  16  10  11  12
 133 prop tor  16  10  11  24
 134 prop tor  17   1   2   3
 135 prop tor  17   1   2  18
 136 prop tor  17   1  14  13
 137 prop tor  17   1  14  26
 138 prop tor  18   2   3   4
 139 prop tor  18   2   3  15
 140 prop tor  19   4   5   6
 141 prop tor  19   4   5  20
 142 prop tor  20   5   6   7
 143 prop tor  20   5   6  16
 144 prop tor  21   7   8   9
 145 prop tor  21   7   8  22
 146 prop tor  22   8   9  10
 147 prop tor  22   8   9  23
 148 prop tor  23   9  10  11
 149 prop tor  23   9  10  16
 150 prop tor  24  11  12  13
 151 prop tor  24  11  12  25
 152 prop tor  25  12  13  14
 153 prop tor  25  12  13  15
 nber bend=              48
 nber lin bend=           0
 nber prop tor=          76
 nber impr tor=           0
 nber tot redund int=         153
 Eigenvalues of G in red int coords
    Gval -0.00000000 -0.00000000 -0.00000000 -0.00000000 -0.00000000 -0.00000000 -0.00000000 -0.00000000
    Gval -0.00000000 -0.00000000 -0.00000000 -0.00000000 -0.00000000 -0.00000000 -0.00000000 -0.00000000
    Gval -0.00000000 -0.00000000 -0.00000000 -0.00000000 -0.00000000 -0.00000000 -0.00000000 -0.00000000
    Gval -0.00000000 -0.00000000 -0.00000000 -0.00000000 -0.00000000 -0.00000000 -0.00000000 -0.00000000
    Gval -0.00000000 -0.00000000 -0.00000000 -0.00000000 -0.00000000 -0.00000000 -0.00000000 -0.00000000
    Gval  0.00000000  0.00000000  0.00000000  0.00000000  0.00000000  0.00000000  0.00000000  0.00000000
    Gval  0.00000000  0.00000000  0.00000000  0.00000000  0.00000000  0.00000000  0.00000000  0.00000000
    Gval  0.00000000  0.00000000  0.00000000  0.00000000  0.00000000  0.00000000  0.00000000  0.00000000
    Gval  0.00000000  0.00000000  0.00000000  0.00000000  0.00000000  0.00000000  0.00000000  0.00000000
    Gval  0.00000000  0.00000000  0.00000000  0.00000000  0.00000000  0.00000000  0.00000000  0.00000000
    Gval  0.00000000  0.00001372  0.00001504  0.00002285  0.00002429  0.00002688  0.00004398  0.00005033
    Gval  0.00005507  0.00005980  0.00006701  0.00006915  0.00007284  0.00008243  0.00009065  0.00010228
    Gval  0.00010237  0.00012095  0.00013236  0.00013957  0.00013965  0.00018062  0.00019491  0.00020616
    Gval  0.00024725  0.00024951  0.00026138  0.00028301  0.00032977  0.00036308  0.00037752  0.00038752
    Gval  0.00041841  0.00043999  0.00045378  0.00057671  0.00059374  0.00059392  0.00059693  0.00059897
    Gval  0.00060604  0.00060909  0.00063335  0.00064375  0.00064935  0.00066018  0.00076530  0.00078856
    Gval  0.00096265  0.00102464  0.00105661  0.00106080  0.00108221  0.00108515  0.00113561  0.00113671
    Gval  0.00115239  0.00115324  0.00116114  0.00116126  0.00146196  0.00166907  0.00189257  0.00192469
    Gval  0.00229598  0.00248299  0.00255961  0.00306119  0.00315203  0.00361176  0.00368457  0.00388111
    Gval  0.00390765
  1.371743376184290E-005  1.371743376184290E-005
  1.503619251099263E-005  1.371743376184290E-005
  2.284755623172605E-005  1.371743376184290E-005
  2.428684065035920E-005  1.371743376184290E-005
  2.687533077435961E-005  1.371743376184290E-005
  4.398099457338426E-005  1.371743376184290E-005
  5.033243250015160E-005  1.371743376184290E-005
  5.507136120301264E-005  1.371743376184290E-005
  5.979707631255088E-005  1.371743376184290E-005
  6.700623314260086E-005  1.371743376184290E-005
  6.914768885530045E-005  1.371743376184290E-005
  7.283557112212854E-005  1.371743376184290E-005
  8.242761700139617E-005  1.371743376184290E-005
  9.064985537418018E-005  1.371743376184290E-005
  1.022822314409985E-004  1.371743376184290E-005
  1.023677124011352E-004  1.371743376184290E-005
  1.209484704229869E-004  1.371743376184290E-005
  1.323576397492006E-004  1.371743376184290E-005
  1.395705015747945E-004  1.371743376184290E-005
  1.396537375746124E-004  1.371743376184290E-005
  1.806235385326959E-004  1.371743376184290E-005
  1.949096364517116E-004  1.371743376184290E-005
  2.061637198259316E-004  1.371743376184290E-005
  2.472478788152505E-004  1.371743376184290E-005
  2.495125279819757E-004  1.371743376184290E-005
  2.613759460182272E-004  1.371743376184290E-005
  2.830071180058759E-004  1.371743376184290E-005
  3.297718045934832E-004  1.371743376184290E-005
  3.630818206549359E-004  1.371743376184290E-005
  3.775190634628806E-004  1.371743376184290E-005
  3.875199594021612E-004  1.371743376184290E-005
  4.184057242175974E-004  1.371743376184290E-005
  4.399897757860771E-004  1.371743376184290E-005
  4.537780482164648E-004  1.371743376184290E-005
  5.767079497474770E-004  1.371743376184290E-005
  5.937402522256599E-004  1.371743376184290E-005
  5.939175947937856E-004  1.371743376184290E-005
  5.969300410871409E-004  1.371743376184290E-005
  5.989712309988339E-004  1.371743376184290E-005
  6.060423102091161E-004  1.371743376184290E-005
  6.090889697066531E-004  1.371743376184290E-005
  6.333526348221593E-004  1.371743376184290E-005
  6.437535491305023E-004  1.371743376184290E-005
  6.493512377098426E-004  1.371743376184290E-005
  6.601767957118051E-004  1.371743376184290E-005
  7.653000891557896E-004  1.371743376184290E-005
  7.885560067814108E-004  1.371743376184290E-005
  9.626549052996703E-004  1.371743376184290E-005
  1.024643652621157E-003  1.371743376184290E-005
  1.056605915045044E-003  1.371743376184290E-005
  1.060798219902155E-003  1.371743376184290E-005
  1.082207232039660E-003  1.371743376184290E-005
  1.085148112860877E-003  1.371743376184290E-005
  1.135607060461798E-003  1.371743376184290E-005
  1.136708306481869E-003  1.371743376184290E-005
  1.152389201813400E-003  1.371743376184290E-005
  1.153243837579595E-003  1.371743376184290E-005
  1.161139987678107E-003  1.371743376184290E-005
  1.161257646207168E-003  1.371743376184290E-005
  1.461961863770042E-003  1.371743376184290E-005
  1.669066519089018E-003  1.371743376184290E-005
  1.892570997160894E-003  1.371743376184290E-005
  1.924692790263337E-003  1.371743376184290E-005
  2.295980421866944E-003  1.371743376184290E-005
  2.482992868085079E-003  1.371743376184290E-005
  2.559608329283651E-003  1.371743376184290E-005
  3.061190806383710E-003  1.371743376184290E-005
  3.152033650999281E-003  1.371743376184290E-005
  3.611759810242634E-003  1.371743376184290E-005
  3.684571341915049E-003  1.371743376184290E-005
  3.881108896817365E-003  1.371743376184290E-005
  3.907654584422265E-003  1.371743376184290E-005
 cut=1d-8, nber non-redundant internal coords=          72
 Check on Eigenvals of non-red overlap matrix:
  0.00001372  0.00001504  0.00002285  0.00002429  0.00002688  0.00004398  0.00005033  0.00005507
  0.00005980  0.00006701  0.00006915  0.00007284  0.00008243  0.00009065  0.00010228  0.00010237
  0.00012095  0.00013236  0.00013957  0.00013965  0.00018062  0.00019491  0.00020616  0.00024725
  0.00024951  0.00026138  0.00028301  0.00032977  0.00036308  0.00037752  0.00038752  0.00041841
  0.00043999  0.00045378  0.00057671  0.00059374  0.00059392  0.00059693  0.00059897  0.00060604
  0.00060909  0.00063335  0.00064375  0.00064935  0.00066018  0.00076530  0.00078856  0.00096265
  0.00102464  0.00105661  0.00106080  0.00108221  0.00108515  0.00113561  0.00113671  0.00115239
  0.00115324  0.00116114  0.00116126  0.00146196  0.00166907  0.00189257  0.00192469  0.00229598
  0.00248299  0.00255961  0.00306119  0.00315203  0.00361176  0.00368457  0.00388111  0.00390765
 d1=
  10.5   0.0   0.0   4.9   0.0   0.0  -0.0   0.0  -0.0  -1.7   0.0  -0.0  -1.8   0.0   0.0   0.0  -0.0   0.0  -4.2   0.0
   0.0  -3.1  -0.0  -0.0  -0.0  -0.0   0.0  -0.0   0.4   0.0  -0.0   0.0   0.5   0.0   0.0   0.2  -0.0  -0.0  -0.4  -0.0
  -0.0  -0.0   0.0   0.3   0.0   0.0  -0.0   0.0  -0.0   0.0  -0.0  -0.6  -0.0  -0.0   0.7  -0.0  -0.0   0.0   0.0  -0.0
   0.0  -0.0  -0.0   0.0  -0.0   0.0  -0.0   0.0   0.0  -0.0   0.0   0.0
 d2=
 -10.4   0.0   0.0  -4.9   0.0  -0.0  -0.0   0.0  -0.0  -1.7  -0.0  -0.0  -1.8   0.0   0.0   0.0  -0.0  -0.0   0.0   4.2
   0.0   3.1  -0.0  -0.0   0.0  -0.0   0.0  -0.0  -0.4   0.0  -0.0  -0.0  -0.5   0.0   0.0  -0.2  -0.0   0.0   0.4  -0.0
  -0.0   0.0  -0.0   0.3  -0.0  -0.0   0.0  -0.0   0.0  -0.0   0.0  -0.6  -0.0   0.0  -0.7   0.0  -0.0   0.0  -0.0   0.0
   0.0   0.0   0.0  -0.0   0.0  -0.0   0.0  -0.0  -0.0   0.0  -0.0  -0.0
 curvilinear- renormalizn of Dush matrix done
  mol 1 sym            1  -> mol 2 sym            1

 Dushinsky matrix, ncs 2 in terms of ncs 1

   mode   freq    coeff     %      %tot     of    at

   1        -0.  0.0000     0.0     0.0  10       249.
   2        -0. -0.0000     0.0     0.0   8       152.
   3        -0.  0.0000     0.0     0.0   7        99.
   4         0.  0.0000     0.0     0.0   7        99.
   5         0.  0.0000     0.0     0.0   8       152.
   6         0. -0.0000     0.0     0.0   7        99.
   7       102. -0.9977    99.5    99.3   7        99.
   8       142.  0.9971    99.4    98.2   8       152.
   9       212. -0.9977    99.5    99.1  10       249.
  10       216. -0.9970    99.4   101.7   9       213.
  11       266. -0.9967    99.3    99.1  11       263.
[...]
 nber times 1st assigned=          22           0
 nber times 1st assigned=          23           0
 nber times 1st assigned=          24           0
 nber times 1st assigned=          25           0
 nber times 1st assigned=          26           0
 nber times 1st assigned=          27           0
 nber times 1st assigned=          28           0
 nber times 1st assigned=          29           0
 nber times 1st assigned=          30           0
 nber times 1st assigned=          31           0
 nber times 1st assigned=          32           0
 nber times 1st assigned=          33           0
 nber times 1st assigned=          34           0
 nber times 1st assigned=          35           0
 nber times 1st assigned=          36           0
 nber times 1st assigned=          37           0
 nber times 1st assigned=          38           0
 nber times 1st assigned=          39           0
 nber times 1st assigned=          40           0
 nber times 1st assigned=          41           0
 nber times 1st assigned=          42           0
 nber times 1st assigned=          43           0
 nber times 1st assigned=          44           0
 nber times 1st assigned=          45           0
 nber times 1st assigned=          46           0
 nber times 1st assigned=          47           0
 nber times 1st assigned=          48           0
 nber times 1st assigned=          49           0
 nber times 1st assigned=          50           0
 nber times 1st assigned=          51           0
 nber times 1st assigned=          52           0
 nber times 1st assigned=          53           0
 nber times 1st assigned=          54           0
 nber times 1st assigned=          55           0
 nber times 1st assigned=          56           0
 nber times 1st assigned=          57           0
 nber times 1st assigned=          58           0
 nber times 1st assigned=          59           0
 nber times 1st assigned=          60           0
 nber times 1st assigned=          61           0
 nber times 1st assigned=          62           0
 nber times 1st assigned=          63           0
 nber times 1st assigned=          64           0
 nber times 1st assigned=          65           0
 nber times 1st assigned=          66           0
 nber times 1st assigned=          67           0
 nber times 1st assigned=          68           0
 nber times 1st assigned=          69           0
 nber times 1st assigned=          70           0
 nber times 1st assigned=          71           0
 nber times 1st assigned=          72           0
 nber times 1st assigned=          73           0
 nber times 1st assigned=          74           0
 nber times 1st assigned=          75           0
 nber times 1st assigned=          76           0
 nber times 1st assigned=          77           0
 nber times 1st assigned=          78           0
 Dushinsky matrix written to .out file
 modes represented=   71.7363963684835     

 Dushinsky matrix, ncs 1 in terms of ncs 2

   mode   freq    coeff     %      %tot     of    at

   7        99. -0.9977    99.5    99.2   7       102.
   8       152.  0.9971    99.4    98.4   8       142.
   9       213. -0.9970    99.4   101.9  10       216.
  10       249. -0.9977    99.5    99.5   9       212.
  11       263. -0.9967    99.3    99.2  11       266.
  12       359.  0.9990    99.8    99.1  12       351.
  13       403.  0.9961    99.2    97.7  13       380.
  14       412. -0.9998   100.0   100.7  14       409.
  15       462. -0.9935    98.7    98.5  15       455.
  16       500.  0.9801    96.1   100.6  17       495.
  17       508.  0.9996    99.9   101.0  19       512.
  18       508. -0.9942    98.8    98.7  18       503.
  19       514. -0.9645    93.0   100.7  16       487.
  20       539.  0.9954    99.1    98.4  20       531.
  21       555.  0.9969    99.4    99.2  21       544.
  22       586.  0.9533    90.9   100.0  22       572.
  23       595.  0.9992    99.8    99.8  23       592.
  24       688.  0.9911    98.2   100.4  24       657.
  25       704. -0.9950    99.0   100.1  26       690.
  26       727. -0.9722    94.5    98.7  28       715.
  27       750. -0.9975    99.5   100.2  31       741.
  28       758. -0.9263    85.8    99.3  25       684.
  29       784. -0.9242    85.4    99.1  27       699.
  30       815.  0.9994    99.9   100.4  34       812.
  31       816.  0.7098    50.4   100.2  29       719.
                 0.7053    49.7          32       785.
  32       834.  0.9983    99.7    98.3  35       822.
  33       847.  0.9298    86.5    98.9  36       850.
  34       860. -0.9487    90.0    99.6  33       796.
  35       904.  0.9892    97.8    99.8  30       734.
  36       917.  0.7037    49.5    99.9  29       719.
                -0.7083    50.2          32       785.
  37       974. -0.7789    60.7    99.0  38       880.
                -0.5877    34.5          40       917.
  38       981. -0.9975    99.5    98.9  37       870.
  39       981. -0.9828    96.6    99.6  41       971.
  40       982.  0.9515    90.5    99.2  39       917.
  41       991.  0.6197    38.4    99.1  38       880.
                -0.7513    56.4          40       917.
  42      1015.  0.9903    98.1    99.3  42       986.
  43      1091. -0.9984    99.7    99.2  43      1081.
  44      1114.  0.9947    98.9    99.3  44      1102.
  45      1127.  0.9382    88.0    99.4  45      1117.
                 0.3350    11.2          49      1183.
  46      1166. -0.9282    86.2    99.8  47      1150.
  47      1169. -0.9967    99.3    99.4  46      1144.
  48      1199. -0.3326    11.1    99.6  45      1117.
                 0.9327    87.0          49      1183.
  49      1205.  0.9557    91.3    99.7  48      1176.
  50      1233. -0.9083    82.5    99.6  50      1218.
  51      1263.  0.9041    81.7   100.0  52      1243.
                -0.4114    16.9          55      1340.
  52      1264.  0.9745    95.0    99.6  51      1230.
  53      1269.  0.9900    98.0    99.7  53      1257.
  54      1342. -0.7055    49.8   100.1  54      1308.
                -0.5953    35.4          58      1399.
                -0.3211    10.3          61      1456.
  55      1352.  0.4045    16.4    99.5  52      1243.
                 0.9023    81.4          55      1340.
  56      1399.  0.9406    88.5   100.0  56      1349.
  57      1427.  0.9877    97.6    99.6  57      1376.
  58      1435.  0.9907    98.2    99.2  59      1424.
  59      1457.  0.3988    15.9    99.5  54      1308.
                -0.7583    57.5          58      1399.
                 0.5017    25.2          61      1456.
  60      1459.  0.9790    95.8    99.6  60      1429.
  61      1484. -0.9633    92.8    99.0  62      1495.
  62      1515.  0.5250    27.6    99.8  54      1308.
                -0.7771    60.4          61      1456.
  63      1536.  0.8721    76.1    99.7  63      1515.
                -0.4503    20.3          65      1547.
  64      1596. -0.9853    97.1    99.7  64      1545.
  65      1625. -0.4706    22.1    99.6  63      1515.
                -0.8416    70.8          65      1547.
  66      1636.  0.9633    92.8    99.8  66      1564.
  67      1646.  0.9745    95.0   100.4  67      1589.
  68      1671. -0.9931    98.6   100.3  68      1643.
  69      3155. -0.5669    32.1   100.0  69      3107.
                 0.8134    66.2          72      3113.
  70      3155. -0.9983    99.7   100.0  71      3112.
  71      3158. -0.9019    81.3   100.0  70      3108.
                -0.3881    15.1          78      3149.
  72      3159.  0.7159    51.3   100.0  69      3107.
                 0.5648    31.9          72      3113.
                 0.4104    16.8          77      3147.
  73      3166.  0.8018    64.3   100.0  73      3132.
                -0.5975    35.7          76      3139.
  74      3167. -0.9983    99.7   100.0  75      3136.
  75      3174. -0.9735    94.8   100.0  74      3135.
  76      3174. -0.5974    35.7   100.0  73      3132.
                -0.8017    64.3          76      3139.
  77      3183.  0.4075    16.6   100.0  69      3107.
                -0.9025    81.5          77      3147.
  78      3183. -0.4145    17.2   100.0  70      3108.
                 0.9011    81.2          78      3149.
 nber times 1st assigned=           1           0
 nber times 1st assigned=           2           0
 nber times 1st assigned=           3           0
 nber times 1st assigned=           4           0
 nber times 1st assigned=           5           0
 nber times 1st assigned=           6           0
 nber times 1st assigned=           7           0
 nber times 1st assigned=           8           0
 nber times 1st assigned=           9           0
 nber times 1st assigned=          10           0
 nber times 1st assigned=          11           0
 nber times 1st assigned=          12           0
 nber times 1st assigned=          13           0
 nber times 1st assigned=          14           0
 nber times 1st assigned=          15           0
 nber times 1st assigned=          16           0
 nber times 1st assigned=          17           0
 nber times 1st assigned=          18           0
 nber times 1st assigned=          19           0
 nber times 1st assigned=          20           0
 nber times 1st assigned=          21           0
 nber times 1st assigned=          22           0
 nber times 1st assigned=          23           0
 nber times 1st assigned=          24           0
 nber times 1st assigned=          25           0
 nber times 1st assigned=          26           0
 nber times 1st assigned=          27           0
 nber times 1st assigned=          28           0
 nber times 1st assigned=          29           0
 nber times 1st assigned=          30           0
 nber times 1st assigned=          31           0
 nber times 1st assigned=          32           0
 nber times 1st assigned=          33           0
 nber times 1st assigned=          34           0
 nber times 1st assigned=          35           0
 nber times 1st assigned=          36           0
 nber times 1st assigned=          37           0
 nber times 1st assigned=          38           0
 nber times 1st assigned=          39           0
 nber times 1st assigned=          40           0
 nber times 1st assigned=          41           0
 nber times 1st assigned=          42           0
 nber times 1st assigned=          43           0
 nber times 1st assigned=          44           0
 nber times 1st assigned=          45           0
 nber times 1st assigned=          46           0
 nber times 1st assigned=          47           0
 nber times 1st assigned=          48           0
 nber times 1st assigned=          49           0
 nber times 1st assigned=          50           0
 nber times 1st assigned=          51           0
 nber times 1st assigned=          52           0
 nber times 1st assigned=          53           0
 nber times 1st assigned=          54           0
 nber times 1st assigned=          55           0
 nber times 1st assigned=          56           0
 nber times 1st assigned=          57           0
 nber times 1st assigned=          58           0
 nber times 1st assigned=          59           0
 nber times 1st assigned=          60           0
 nber times 1st assigned=          61           0
 nber times 1st assigned=          62           0
 nber times 1st assigned=          63           0
 nber times 1st assigned=          64           0
 nber times 1st assigned=          65           0
 nber times 1st assigned=          66           0
 nber times 1st assigned=          67           0
 nber times 1st assigned=          68           0
 nber times 1st assigned=          69           0
 nber times 1st assigned=          70           0
 nber times 1st assigned=          71           0
 nber times 1st assigned=          72           0
 nber times 1st assigned=          73           0
 nber times 1st assigned=          74           0
 nber times 1st assigned=          75           0
 nber times 1st assigned=          76           0
 nber times 1st assigned=          77           0
 nber times 1st assigned=          78           0
 modes represented=   71.7363963684835     
 p1=
   -0.   -0.    0.    0.    0.   -0.   -0.    0.   -0.   -0.    0.   -0.   -0.  -10.    0.    0.    0.    0.   -0.   -0.
    0.    0.   -4.    0.   -0.    0.    0.   -0.   -0.    3.   -0.    0.   -0.    0.   -0.   -0.   -0.    0.    0.    0.
    0.   -0.   -1.   -0.    0.    0.    2.    0.   -0.    0.   -4.   -0.    0.    0.    1.   -0.    2.   -0.    0.    0.
    0.   -0.    0.    1.    0.    0.   -0.   -4.    0.   -0.   -0.   -0.    0.    0.   -0.   -0.    0.   -0.
 p2=
   -0.    0.   -0.   -0.    0.    0.   -0.   -0.   -0.   -0.    0.    0.    0.  -10.    0.   -0.   -0.    0.   -0.    0.
   -0.   -0.    4.   -0.   -0.   -0.   -0.    0.    0.    0.    0.   -0.    0.   -3.   -0.    0.    0.   -0.    0.    0.
    0.    0.   -1.    0.   -0.    2.   -0.    0.   -0.    0.    0.    3.   -0.    0.   -2.    0.   -2.    0.    0.   -0.
   -0.    0.   -0.    1.    0.   -0.    0.   -4.   -0.   -0.   -0.    0.   -0.   -0.    0.    0.    0.    0.

 Displacement: in terms of nc of 1 THEN of nc of 2

   1     freq=    -0. Q= -0.000 lam=    -0.0     freq=    -0. Q= -0.000 lam=    -0.0
   2     freq=    -0. Q= -0.000 lam=    -0.0     freq=    -0. Q= -0.000 lam=    -0.0
   3     freq=     0. Q=  0.000 lam=     0.0     freq=    -0. Q=  0.000 lam=    -0.0
   4     freq=     0. Q=  0.000 lam=     0.0     freq=     0. Q=  0.000 lam=     0.0
   5     freq=     0. Q=  0.000 lam=     0.0     freq=     0. Q=  0.000 lam=     0.0
   6     freq=     0. Q= -0.000 lam=     0.0     freq=     0. Q= -0.000 lam=     0.0
   7     freq=    99. Q= -0.000 lam=     0.0     freq=   102. Q= -0.000 lam=     0.0
   8     freq=   152. Q=  0.000 lam=     0.0     freq=   142. Q=  0.000 lam=     0.0
   9     freq=   213. Q= -0.000 lam=     0.0     freq=   212. Q= -0.000 lam=     0.0
  10     freq=   249. Q= -0.000 lam=     0.0     freq=   216. Q= -0.000 lam=     0.0
  11     freq=   263. Q=  0.000 lam=     0.0     freq=   266. Q=  0.000 lam=     0.0
  12     freq=   359. Q= -0.000 lam=     0.0     freq=   351. Q= -0.000 lam=     0.0
  13     freq=   403. Q= -0.000 lam=     0.0     freq=   380. Q= -0.000 lam=     0.0
  14     freq=   412. Q= -0.840 lam=   145.3     freq=   409. Q= -0.837 lam=   143.1
  15     freq=   462. Q=  0.000 lam=     0.0     freq=   455. Q=  0.000 lam=     0.0
  16     freq=   500. Q=  0.000 lam=     0.0     freq=   487. Q=  0.000 lam=     0.0
  17     freq=   508. Q=  0.000 lam=     0.0     freq=   495. Q=  0.000 lam=     0.0
  18     freq=   508. Q=  0.000 lam=     0.0     freq=   503. Q=  0.000 lam=     0.0
  19     freq=   514. Q= -0.000 lam=     0.0     freq=   512. Q= -0.000 lam=     0.0
  20     freq=   539. Q= -0.000 lam=     0.0     freq=   531. Q= -0.000 lam=     0.0
  21     freq=   555. Q=  0.000 lam=     0.0     freq=   544. Q=  0.000 lam=     0.0
  22     freq=   586. Q=  0.000 lam=     0.0     freq=   572. Q=  0.000 lam=     0.0
  23     freq=   595. Q= -0.406 lam=    49.1     freq=   592. Q= -0.416 lam=    51.1
  24     freq=   688. Q=  0.000 lam=     0.0     freq=   657. Q=  0.000 lam=     0.0
  25     freq=   704. Q= -0.000 lam=     0.0     freq=   684. Q= -0.000 lam=     0.0
  26     freq=   727. Q=  0.000 lam=     0.0     freq=   690. Q=  0.000 lam=     0.0
  27     freq=   750. Q=  0.000 lam=     0.0     freq=   699. Q=  0.000 lam=     0.0
  28     freq=   758. Q= -0.000 lam=     0.0     freq=   715. Q= -0.000 lam=     0.0
  29     freq=   784. Q= -0.000 lam=     0.0     freq=   719. Q= -0.000 lam=     0.0
  30     freq=   815. Q=  0.349 lam=    49.7     freq=   734. Q=  0.000 lam=     0.0
  31     freq=   816. Q= -0.000 lam=     0.0     freq=   741. Q= -0.000 lam=     0.0
  32     freq=   834. Q=  0.000 lam=     0.0     freq=   785. Q=  0.000 lam=     0.0
  33     freq=   847. Q= -0.000 lam=     0.0     freq=   796. Q= -0.000 lam=     0.0
  34     freq=   860. Q=  0.000 lam=     0.0     freq=   812. Q=  0.320 lam=    41.5
  35     freq=   904. Q= -0.000 lam=     0.0     freq=   822. Q= -0.000 lam=     0.0
  36     freq=   917. Q= -0.000 lam=     0.0     freq=   850. Q= -0.000 lam=     0.0
  37     freq=   974. Q= -0.000 lam=     0.0     freq=   870. Q= -0.000 lam=     0.0
  38     freq=   981. Q=  0.000 lam=     0.0     freq=   880. Q=  0.000 lam=     0.0
  39     freq=   981. Q=  0.000 lam=     0.0     freq=   917. Q=  0.000 lam=     0.0
  40     freq=   982. Q=  0.000 lam=     0.0     freq=   917. Q=  0.000 lam=     0.0
  41     freq=   991. Q=  0.000 lam=     0.0     freq=   971. Q=  0.000 lam=     0.0
  42     freq=  1015. Q= -0.000 lam=     0.0     freq=   986. Q= -0.000 lam=     0.0
  43     freq=  1091. Q= -0.071 lam=     2.8     freq=  1081. Q= -0.084 lam=     3.8
  44     freq=  1114. Q= -0.000 lam=     0.0     freq=  1102. Q= -0.000 lam=     0.0
  45     freq=  1127. Q=  0.000 lam=     0.0     freq=  1117. Q=  0.000 lam=     0.0
  46     freq=  1166. Q=  0.000 lam=     0.0     freq=  1144. Q=  0.273 lam=    42.7
  47     freq=  1169. Q=  0.228 lam=    30.3     freq=  1150. Q=  0.000 lam=     0.0
  48     freq=  1199. Q=  0.000 lam=     0.0     freq=  1176. Q=  0.000 lam=     0.0
  49     freq=  1205. Q= -0.000 lam=     0.0     freq=  1183. Q= -0.000 lam=     0.0
  50     freq=  1233. Q=  0.000 lam=     0.0     freq=  1218. Q=  0.000 lam=     0.0
  51     freq=  1263. Q= -0.544 lam=   186.8     freq=  1230. Q= -0.000 lam=     0.0
  52     freq=  1264. Q= -0.000 lam=     0.0     freq=  1243. Q= -0.390 lam=    94.7
  53     freq=  1269. Q=  0.000 lam=     0.0     freq=  1257. Q=  0.000 lam=     0.0
  54     freq=  1342. Q=  0.000 lam=     0.0     freq=  1308. Q=  0.000 lam=     0.0
  55     freq=  1352. Q=  0.120 lam=     9.7     freq=  1340. Q=  0.290 lam=    56.4
  56     freq=  1399. Q= -0.000 lam=     0.0     freq=  1349. Q= -0.000 lam=     0.0
  57     freq=  1427. Q=  0.351 lam=    87.8     freq=  1376. Q=  0.342 lam=    80.4
  58     freq=  1435. Q= -0.000 lam=     0.0     freq=  1399. Q= -0.000 lam=     0.0
  59     freq=  1457. Q=  0.000 lam=     0.0     freq=  1424. Q=  0.000 lam=     0.0
  60     freq=  1459. Q=  0.000 lam=     0.0     freq=  1429. Q=  0.000 lam=     0.0
  61     freq=  1484. Q=  0.000 lam=     0.0     freq=  1456. Q=  0.000 lam=     0.0
  62     freq=  1515. Q= -0.000 lam=     0.0     freq=  1495. Q= -0.000 lam=     0.0
  63     freq=  1536. Q=  0.000 lam=     0.0     freq=  1515. Q=  0.000 lam=     0.0
  64     freq=  1596. Q=  0.155 lam=    19.1     freq=  1545. Q=  0.135 lam=    14.0
  65     freq=  1625. Q=  0.000 lam=     0.0     freq=  1547. Q=  0.000 lam=     0.0
  66     freq=  1636. Q=  0.000 lam=     0.0     freq=  1564. Q=  0.000 lam=     0.0
  67     freq=  1646. Q= -0.000 lam=     0.0     freq=  1589. Q= -0.000 lam=     0.0
  68     freq=  1671. Q= -0.602 lam=   302.8     freq=  1643. Q= -0.622 lam=   318.3
  69     freq=  3155. Q=  0.000 lam=     0.0     freq=  3107. Q=  0.000 lam=     0.0
  70     freq=  3155. Q= -0.000 lam=     0.0     freq=  3108. Q= -0.038 lam=     2.3
  71     freq=  3158. Q= -0.026 lam=     1.1     freq=  3112. Q= -0.000 lam=     0.0
  72     freq=  3159. Q= -0.000 lam=     0.0     freq=  3113. Q= -0.000 lam=     0.0
  73     freq=  3166. Q=  0.000 lam=     0.0     freq=  3132. Q=  0.000 lam=     0.0
  74     freq=  3167. Q=  0.000 lam=     0.0     freq=  3135. Q=  0.027 lam=     1.2
  75     freq=  3174. Q= -0.027 lam=     1.1     freq=  3136. Q= -0.000 lam=     0.0
  76     freq=  3174. Q= -0.000 lam=     0.0     freq=  3139. Q= -0.000 lam=     0.0
  77     freq=  3183. Q=  0.000 lam=     0.0     freq=  3147. Q=  0.000 lam=     0.0
  78     freq=  3183. Q= -0.053 lam=     4.4     freq=  3149. Q= -0.046 lam=     3.3

 total reorg energy (cm**-1, kcal/mol)=      890.      853.      2.54      2.44
 Nber of molecules processed=           2
