 Enter ifcurve (0=recti, 1=orth curvi, 2=apprx curvi, -1 = skip
 And atom ordering flag, 0= never changes, 1= use the first order thenceforth,
  2= deduce it (does read on fail), 3= always read it
 Reading file: 
 ./PDI_2_C0S0.log                                                               
                                          
  Entering Gaussian System, Link 0=g16                                          
  
 Gaussian format, type: g94, g98, g03= F F F
  #P Geom=AllCheck Guess=TCheck SCRF=Check GenChk RB3LYP/6-311G(d,p) Fre    
 energy type= B3LYP   
 Original G94 input coords:
  6  1.072418  0.400210 -0.040511
  6  2.574685  0.104449  0.015645
  6  3.153909  0.150000  1.433308
  7  2.914164 -1.177739 -0.681044
  6  2.411067 -2.384009 -0.176998
  8  1.704121 -2.411303  0.815126
  6  2.773618 -3.630054 -0.900070
  6  2.297987 -4.841707 -0.437094
  6  2.623189 -6.029240 -1.096802
  6  3.429550 -6.044710 -2.233574
  6  3.777800 -7.288096 -2.934907
  6  3.324029 -8.535564 -2.510282
  6  3.660546 -9.712290 -3.182981
  6  4.464930 -9.673038 -4.305440
  6  4.804076-10.941640 -4.997119
  8  4.396301-12.020287 -4.607891
  7  5.624005-10.835827 -6.130232
  6  5.989315-12.061836 -6.851485
  6  6.134261 -9.637091 -6.642414
  8  6.840178 -9.642782 -7.634086
  6  5.772977 -8.391981 -5.923686
  6  6.248703 -7.180309 -6.385451
  6  5.922028 -5.993593 -5.725425
  6  5.114355 -5.980293 -4.589653
  6  4.765133 -4.736929 -3.888620
  6  5.217054 -3.488373 -4.312624
  6  4.879773 -2.312111 -3.639126
  6  4.076149 -2.353452 -2.515813
  6  3.735083 -1.086647 -1.821222
  8  4.149300 -0.014131 -2.222479
  6  3.594027 -3.595317 -2.048416
  6  3.932614 -4.803127 -2.729704
  6  4.611095 -7.222777 -4.094020
  6  4.950032 -8.431002 -4.775237
  1  0.894821  1.409041  0.341855
  1  0.499431 -0.305097  0.559904
  1  0.709799  0.366407 -1.071122
  1  3.088784  0.852606 -0.583480
  1  2.665092 -0.566400  2.092196
  1  3.012043  1.153890  1.842634
  1  4.227499 -0.054924  1.419243
  1  1.670234 -4.850107  0.444941
  1  2.227772 -6.952991 -0.697703
  1  2.692090 -8.616200 -1.636769
  1  3.298169-10.672316 -2.837569
  1  5.520850-12.897751 -6.341973
  1  7.073669-12.176126 -6.859322
  1  5.644192-11.998994 -7.883844
  1  6.877727 -7.171253 -7.266761
  1  6.317168 -5.069058 -6.122857
  1  5.848307 -3.406187 -5.186517
  1  5.240964 -1.351765 -3.984507
 nber atoms=          52
  SCF Done:  E(RB3LYP) =  -1488.72539299     A.U. after    1 cycles             
  
          23          40 "  -1488.72539299"
After scan for Atom:   Atom  AN      X      Y      Z        X      Y      Z        X      Y      Z   
After scan for Atom:   Atom  AN      X      Y      Z        X      Y      Z        X      Y      Z   
After scan for Atom:   Atom  AN      X      Y      Z        X      Y      Z        X      Y      Z   
After scan for Atom:   Atom  AN      X      Y      Z        X      Y      Z        X      Y      Z   
After scan for Atom:   Atom  AN      X      Y      Z        X      Y      Z        X      Y      Z   
After scan for Atom:   Atom  AN      X      Y      Z        X      Y      Z        X      Y      Z   
After scan for Atom:   Atom  AN      X      Y      Z        X      Y      Z        X      Y      Z   
After scan for Atom:   Atom  AN      X      Y      Z        X      Y      Z        X      Y      Z   
After scan for Atom:   Atom  AN      X      Y      Z        X      Y      Z        X      Y      Z   
After scan for Atom:   Atom  AN      X      Y      Z        X      Y      Z        X      Y      Z   
After scan for Atom:   Atom  AN      X      Y      Z        X      Y      Z        X      Y      Z   
After scan for Atom:   Atom  AN      X      Y      Z        X      Y      Z        X      Y      Z   
After scan for Atom:   Atom  AN      X      Y      Z        X      Y      Z        X      Y      Z   
After scan for Atom:   Atom  AN      X      Y      Z        X      Y      Z        X      Y      Z   
After scan for Atom:   Atom  AN      X      Y      Z        X      Y      Z        X      Y      Z   
After scan for Atom:   Atom  AN      X      Y      Z        X      Y      Z        X      Y      Z   
After scan for Atom:   Atom  AN      X      Y      Z        X      Y      Z        X      Y      Z   
After scan for Atom:   Atom  AN      X      Y      Z        X      Y      Z        X      Y      Z   
After scan for Atom:   Atom  AN      X      Y      Z        X      Y      Z        X      Y      Z   
After scan for Atom:   Atom  AN      X      Y      Z        X      Y      Z        X      Y      Z   
After scan for Atom:   Atom  AN      X      Y      Z        X      Y      Z        X      Y      Z   
After scan for Atom:   Atom  AN      X      Y      Z        X      Y      Z        X      Y      Z   
After scan for Atom:   Atom  AN      X      Y      Z        X      Y      Z        X      Y      Z   
After scan for Atom:   Atom  AN      X      Y      Z        X      Y      Z        X      Y      Z   
After scan for Atom:   Atom  AN      X      Y      Z        X      Y      Z        X      Y      Z   
After scan for Atom:   Atom  AN      X      Y      Z        X      Y      Z        X      Y      Z   
After scan for Atom:   Atom  AN      X      Y      Z        X      Y      Z        X      Y      Z   
After scan for Atom:   Atom  AN      X      Y      Z        X      Y      Z        X      Y      Z   
After scan for Atom:   Atom  AN      X      Y      Z        X      Y      Z        X      Y      Z   
After scan for Atom:   Atom  AN      X      Y      Z        X      Y      Z        X      Y      Z   
After scan for Atom:   Atom  AN      X      Y      Z        X      Y      Z        X      Y      Z   
After scan for Atom:   Atom  AN      X      Y      Z        X      Y      Z        X      Y      Z   
After scan for Atom:   Atom  AN      X      Y      Z        X      Y      Z        X      Y      Z   
After scan for Atom:   Atom  AN      X      Y      Z        X      Y      Z        X      Y      Z   
After scan for Atom:   Atom  AN      X      Y      Z        X      Y      Z        X      Y      Z   
After scan for Atom:   Atom  AN      X      Y      Z        X      Y      Z        X      Y      Z   
After scan for Atom:   Atom  AN      X      Y      Z        X      Y      Z        X      Y      Z   
After scan for Atom:   Atom  AN      X      Y      Z        X      Y      Z        X      Y      Z   
After scan for Atom:   Atom  AN      X      Y      Z        X      Y      Z        X      Y      Z   
After scan for Atom:   Atom  AN      X      Y      Z        X      Y      Z        X      Y      Z   
After scan for Atom:   Atom  AN      X      Y      Z        X      Y      Z        X      Y      Z   
After scan for Atom:   Atom  AN      X      Y      Z        X      Y      Z        X      Y      Z   
After scan for Atom:   Atom  AN      X      Y      Z        X      Y      Z        X      Y      Z   
After scan for Atom:   Atom  AN      X      Y      Z        X      Y      Z        X      Y      Z   
After scan for Atom:   Atom  AN      X      Y      Z        X      Y      Z        X      Y      Z   
After scan for Atom:   Atom  AN      X      Y      Z        X      Y      Z        X      Y      Z   
After scan for Atom:   Atom  AN      X      Y      Z        X      Y      Z        X      Y      Z   
After scan for Atom:   Atom  AN      X      Y      Z        X      Y      Z        X      Y      Z   
After scan for Atom:   Atom  AN      X      Y      Z        X      Y      Z        X      Y      Z   
After scan for Atom:   Atom  AN      X      Y      Z        X      Y      Z        X      Y      Z   
 g94    frequencies=
     0.0    0.0    0.0    0.0    0.0    0.0   22.6   25.5   50.7   54.9
    64.1   77.0   85.3   92.1  108.5  118.1  159.9  168.9  186.5  187.5
   202.8  208.2  234.6  235.2  271.8  271.9  274.0  288.6  315.6  341.2
   356.4  374.4  392.8  398.8  414.8  432.7  437.4  441.1  447.0  448.4
   474.1  476.7  480.6  485.6  517.1  535.2  542.4  570.5  577.9  591.8
   602.9  622.4  631.7  653.4  666.5  714.6  716.5  725.0  740.1  746.6
   762.8  771.5  782.2  787.2  803.0  808.6  824.5  844.5  863.9  864.9
   869.7  871.1  895.4  918.4  945.4  951.8  956.9  969.2  992.0  996.2
  1000.9 1005.3 1016.7 1052.6 1076.2 1093.4 1102.3 1153.2 1153.3 1155.6
  1169.7 1180.4 1194.5 1206.1 1213.2 1218.2 1240.2 1241.0 1251.0 1267.3
  1303.7 1309.0 1317.0 1326.2 1338.4 1358.2 1369.7 1375.2 1382.2 1387.5
  1400.6 1406.6 1417.0 1428.9 1435.6 1444.5 1462.3 1478.6 1485.2 1491.4
  1496.5 1498.0 1505.4 1505.6 1507.6 1522.7 1542.8 1560.7 1604.2 1614.9
  1620.2 1631.5 1631.9 1648.9 1713.1 1722.0 1750.8 1759.4 3034.7 3038.8
  3062.1 3092.5 3095.7 3113.1 3121.3 3133.2 3143.5 3183.2 3193.6 3193.8
  3200.9 3201.1 3208.3 3208.3 3218.0 3218.1
 g94    symmetries=
                                                 A      A      A      A
       A      A      A      A      A      A      A      A      A      A
       A      A      A      A      A      A      A      A      A      A
       A      A      A      A      A      A      A      A      A      A
       A      A      A      A      A      A      A      A      A      A
       A      A      A      A      A      A      A      A      A      A
       A      A      A      A      A      A      A      A      A      A
       A      A      A      A      A      A      A      A      A      A
       A      A      A      A      A      A      A      A      A      A
       A      A      A      A      A      A      A      A      A      A
       A      A      A      A      A      A      A      A      A      A
       A      A      A      A      A      A      A      A      A      A
       A      A      A      A      A      A      A      A      A      A
       A      A      A      A      A      A      A      A      A      A
       A      A      A      A      A      A      A      A      A      A
       A      A      A      A      A      A
 atomic masses:
 12.0000 12.0000 12.0000 14.0031 12.0000 15.9949 12.0000 12.0000 12.0000 12.0000
 12.0000 12.0000 12.0000 12.0000 12.0000 15.9949 14.0031 12.0000 12.0000 15.9949
 12.0000 12.0000 12.0000 12.0000 12.0000 12.0000 12.0000 12.0000 12.0000 15.9949
 12.0000 12.0000 12.0000 12.0000  1.0078  1.0078  1.0078  1.0078  1.0078  1.0078
  1.0078  1.0078  1.0078  1.0078  1.0078  1.0078  1.0078  1.0078  1.0078  1.0078
  1.0078  1.0078
 looking for force constants in 
 ./PDI_2_C0S0.fchk                                                              
  
 Cartesian Force Constants                  R   N=       12246                  
  
 n3=         156       12246
 g94-fc frequencies=
    -1.8   -0.0    0.0    0.0    1.3    3.5   22.6   25.5   50.7   54.9
    64.1   77.0   85.3   92.1  108.5  118.1  159.9  168.9  186.5  187.5
   202.8  208.2  234.7  235.2  271.8  271.9  274.0  288.6  315.6  341.3
   356.4  374.4  392.8  398.8  414.8  432.7  437.4  441.1  447.0  448.4
   474.1  476.7  480.6  485.7  517.1  535.2  542.5  570.5  578.0  591.8
   602.9  622.4  631.7  653.4  666.5  714.6  716.6  725.0  740.1  746.6
   762.8  771.6  782.2  787.2  803.1  808.6  824.5  844.5  864.0  864.9
   869.7  871.2  895.5  918.4  945.5  951.8  956.9  969.3  992.1  996.2
  1000.9 1005.3 1016.7 1052.6 1076.2 1093.4 1102.3 1153.2 1153.4 1155.6
  1169.7 1180.4 1194.6 1206.1 1213.2 1218.2 1240.2 1241.0 1251.0 1267.3
  1303.7 1309.0 1317.1 1326.2 1338.5 1358.2 1369.8 1375.3 1382.2 1387.6
  1400.6 1406.7 1417.1 1429.0 1435.6 1444.5 1462.4 1478.6 1485.2 1491.5
  1496.6 1498.1 1505.5 1505.6 1507.6 1522.8 1542.9 1560.7 1604.2 1614.9
  1620.2 1631.6 1631.9 1648.9 1713.2 1722.0 1750.9 1759.4 3034.7 3038.8
  3062.2 3092.5 3095.8 3113.2 3121.4 3133.2 3143.6 3183.3 3193.7 3193.8
  3201.0 3201.2 3208.3 3208.4 3218.1 3218.2
 at 99999: n3=         156
 symm operator            1 :  F  nop=           0
 symm operator            2 :  F  nop=           0
 symm operator            3 :  F  nop=           0
 symm operator            4 :  F  nop=           0
 symm operator            5 :  F  nop=           0
 symm operator            6 :  F  nop=           0
 symm operator            7 :  F  nop=           0
 The point group of the molecule is  C1
 Symmetry rotation matrix:
   1.00000   0.00000   0.00000
   0.00000   1.00000   0.00000
   0.00000   0.00000   1.00000

 Projecting out zero-frequency components
 generating redundant internal coords
         300        3600          52
 search for int coords
   1 str   2   1   1.532
   2 str   3   2   1.532
   3 str   4   2   1.498
   4 str   5   4   1.401
   5 str   6   5   1.219
   6 str   7   5   1.486
   7 str   8   7   1.382
   8 str   9   8   1.397
   9 str  10   9   1.394
  10 str  11  10   1.469
  11 str  12  11   1.394
  12 str  13  12   1.397
  13 str  14  13   1.381
  14 str  15  14   1.484
  15 str  16  15   1.217
  16 str  17  15   1.403
  17 str  18  17   1.469
  18 str  19  17   1.400
  19 str  20  19   1.217
  20 str  21  19   1.482
  21 str  22  21   1.381
  22 str  23  22   1.397
  23 str  24  23   1.394
  24 str  25  24   1.469
  25 str  26  25   1.394
  26 str  27  26   1.397
  27 str  28  27   1.382
  28 str  29   4   1.408
  29 str  29  28   1.484
  30 str  30  29   1.218
  31 str  31   7   1.412
  32 str  31  28   1.412
  33 str  32  10   1.429
  34 str  32  25   1.428
  35 str  32  31   1.427
  36 str  33  11   1.429
  37 str  33  24   1.429
  38 str  34  14   1.414
  39 str  34  21   1.413
  40 str  34  33   1.428
  41 str  35   1   1.093
  42 str  36   1   1.089
  43 str  37   1   1.093
  44 str  38   2   1.088
  45 str  39   3   1.089
  46 str  40   3   1.093
  47 str  41   3   1.093
  48 str  42   8   1.083
  49 str  43   9   1.081
  50 str  44  12   1.081
  51 str  45  13   1.083
  52 str  46  18   1.085
  53 str  47  18   1.090
  54 str  48  18   1.090
  55 str  49  22   1.083
  56 str  50  23   1.081
  57 str  51  26   1.081
  58 str  52  27   1.083
 nber stretches=          58
  59 ben   1   2   3
  60 prop tor   1   2   3  39
  61 prop tor   1   2   3  40
  62 prop tor   1   2   3  41
  63 ben   1   2   4
  64 prop tor   1   2   4   5
  65 prop tor   1   2   4  29
  66 ben   1   2  38
  67 ben   2   1  35
  68 ben   2   1  36
  69 ben   2   1  37
  70 ben   2   3  39
  71 ben   2   3  40
  72 ben   2   3  41
  73 ben   2   4   5
  74 prop tor   2   4   5   6
  75 prop tor   2   4   5   7
  76 ben   2   4  29
  77 prop tor   2   4  29  28
  78 prop tor   2   4  29  30
  79 ben   3   2   4
  80 prop tor   3   2   4   5
  81 prop tor   3   2   4  29
  82 ben   3   2  38
  83 prop tor   4   2   3  39
  84 prop tor   4   2   3  40
  85 prop tor   4   2   3  41
  86 ben   4   2  38
  87 ben   4   5   6
  88 ben   4   5   7
  89 prop tor   4   5   7   8
  90 prop tor   4   5   7  31
  91 ben   4  29  28
  92 ben   4  29  30
  93 ben   5   4  29
  94 prop tor   5   4  29  28
  95 prop tor   5   4  29  30
  96 ben   5   7   8
  97 prop tor   5   7   8   9
  98 prop tor   5   7   8  42
  99 ben   5   7  31
 100 prop tor   5   7  31  28
 101 prop tor   5   7  31  32
 102 ben   6   5   7
 103 prop tor   6   5   7   8
 104 prop tor   6   5   7  31
 105 ben   7   8   9
 106 prop tor   7   8   9  10
 107 prop tor   7   8   9  43
 108 ben   7   8  42
 109 ben   7  31  28
 110 ben   7  31  32
 111 prop tor   7  31  32  10
 112 prop tor   7  31  32  25
 113 ben   8   7  31
 114 prop tor   8   7  31  28
 115 prop tor   8   7  31  32
 116 ben   8   9  10
 117 prop tor   8   9  10  11
 118 prop tor   8   9  10  32
 119 ben   8   9  43
 120 ben   9   8  42
 121 ben   9  10  11
 122 prop tor   9  10  11  12
 123 prop tor   9  10  11  33
 124 ben   9  10  32
 125 prop tor   9  10  32  25
 126 prop tor   9  10  32  31
 127 ben  10   9  43
 128 ben  10  11  12
 129 prop tor  10  11  12  13
 130 prop tor  10  11  12  44
 131 ben  10  11  33
 132 prop tor  10  11  33  24
 133 prop tor  10  11  33  34
 134 ben  10  32  25
 135 ben  10  32  31
 136 ben  11  10  32
 137 prop tor  11  10  32  25
 138 prop tor  11  10  32  31
 139 ben  11  12  13
 140 prop tor  11  12  13  14
 141 prop tor  11  12  13  45
 142 ben  11  12  44
 143 ben  11  33  24
 144 ben  11  33  34
 145 prop tor  11  33  34  14
 146 prop tor  11  33  34  21
 147 ben  12  11  33
 148 prop tor  12  11  33  24
 149 prop tor  12  11  33  34
 150 ben  12  13  14
 151 prop tor  12  13  14  15
 152 prop tor  12  13  14  34
 153 ben  12  13  45
 154 ben  13  12  44
 155 ben  13  14  15
 156 prop tor  13  14  15  16
 157 prop tor  13  14  15  17
 158 ben  13  14  34
 159 prop tor  13  14  34  21
 160 prop tor  13  14  34  33
 161 ben  14  13  45
 162 ben  14  15  16
 163 ben  14  15  17
 164 prop tor  14  15  17  18
 165 prop tor  14  15  17  19
 166 ben  14  34  21
 167 ben  14  34  33
 168 ben  15  14  34
 169 prop tor  15  14  34  21
 170 prop tor  15  14  34  33
 171 ben  15  17  18
 172 prop tor  15  17  18  46
 173 prop tor  15  17  18  47
 174 prop tor  15  17  18  48
 175 ben  15  17  19
 176 prop tor  15  17  19  20
 177 prop tor  15  17  19  21
 178 ben  16  15  17
 179 prop tor  16  15  17  18
 180 prop tor  16  15  17  19
 181 ben  17  18  46
 182 ben  17  18  47
 183 ben  17  18  48
 184 ben  17  19  20
 185 ben  17  19  21
 186 prop tor  17  19  21  22
 187 prop tor  17  19  21  34
 188 ben  18  17  19
 189 prop tor  18  17  19  20
 190 prop tor  18  17  19  21
 191 prop tor  19  17  18  46
 192 prop tor  19  17  18  47
 193 prop tor  19  17  18  48
 194 ben  19  21  22
 195 prop tor  19  21  22  23
 196 prop tor  19  21  22  49
 197 ben  19  21  34
 198 prop tor  19  21  34  14
 199 prop tor  19  21  34  33
 200 ben  20  19  21
 201 prop tor  20  19  21  22
 202 prop tor  20  19  21  34
 203 ben  21  22  23
 204 prop tor  21  22  23  24
 205 prop tor  21  22  23  50
 206 ben  21  22  49
 207 ben  21  34  33
 208 ben  22  21  34
 209 prop tor  22  21  34  14
 210 prop tor  22  21  34  33
 211 ben  22  23  24
 212 prop tor  22  23  24  25
 213 prop tor  22  23  24  33
 214 ben  22  23  50
 215 ben  23  22  49
 216 ben  23  24  25
 217 prop tor  23  24  25  26
 218 prop tor  23  24  25  32
 219 ben  23  24  33
 220 prop tor  23  24  33  11
 221 prop tor  23  24  33  34
 222 ben  24  23  50
 223 ben  24  25  26
 224 prop tor  24  25  26  27
 225 prop tor  24  25  26  51
 226 ben  24  25  32
 227 prop tor  24  25  32  10
 228 prop tor  24  25  32  31
 229 ben  24  33  34
 230 prop tor  24  33  34  14
 231 prop tor  24  33  34  21
 232 ben  25  24  33
 233 prop tor  25  24  33  11
 234 prop tor  25  24  33  34
 235 ben  25  26  27
 236 prop tor  25  26  27  28
 237 prop tor  25  26  27  52
 238 ben  25  26  51
 239 ben  25  32  31
 240 ben  26  25  32
 241 prop tor  26  25  32  10
 242 prop tor  26  25  32  31
 243 ben  26  27  28
 244 prop tor  26  27  28  29
 245 prop tor  26  27  28  31
 246 ben  26  27  52
 247 ben  27  26  51
 248 ben  27  28  29
 249 prop tor  27  28  29   4
 250 prop tor  27  28  29  30
 251 ben  27  28  31
 252 prop tor  27  28  31   7
 253 prop tor  27  28  31  32
 254 ben  28  27  52
 255 ben  28  29  30
 256 ben  28  31  32
 257 prop tor  28  31  32  10
 258 prop tor  28  31  32  25
 259 prop tor  29   4   5   6
 260 prop tor  29   4   5   7
 261 ben  29  28  31
 262 prop tor  29  28  31   7
 263 prop tor  29  28  31  32
 264 prop tor  31   7   8   9
 265 prop tor  31   7   8  42
 266 prop tor  31  28  29   4
 267 prop tor  31  28  29  30
 268 prop tor  32  10  11  12
 269 prop tor  32  10  11  33
 270 prop tor  32  25  26  27
 271 prop tor  32  25  26  51
 272 prop tor  33  11  12  13
 273 prop tor  33  11  12  44
 274 prop tor  33  24  25  26
 275 prop tor  33  24  25  32
 276 prop tor  34  14  15  16
 277 prop tor  34  14  15  17
 278 prop tor  34  21  22  23
 279 prop tor  34  21  22  49
 280 prop tor  35   1   2   3
 281 prop tor  35   1   2   4
 282 prop tor  35   1   2  38
 283 ben  35   1  36
 284 ben  35   1  37
 285 prop tor  36   1   2   3
 286 prop tor  36   1   2   4
 287 prop tor  36   1   2  38
 288 ben  36   1  37
 289 prop tor  37   1   2   3
 290 prop tor  37   1   2   4
 291 prop tor  37   1   2  38
 292 prop tor  38   2   3  39
 293 prop tor  38   2   3  40
 294 prop tor  38   2   3  41
 295 prop tor  38   2   4   5
 296 prop tor  38   2   4  29
 297 ben  39   3  40
 298 ben  39   3  41
 299 ben  40   3  41
 300 prop tor  42   8   9  10
 301 prop tor  42   8   9  43
 302 prop tor  43   9  10  11
 303 prop tor  43   9  10  32
 304 prop tor  44  12  13  14
 305 prop tor  44  12  13  45
 306 prop tor  45  13  14  15
 307 prop tor  45  13  14  34
 308 ben  46  18  47
 309 ben  46  18  48
 310 ben  47  18  48
 311 prop tor  49  22  23  24
 312 prop tor  49  22  23  50
 313 prop tor  50  23  24  25
 314 prop tor  50  23  24  33
 315 prop tor  51  26  27  28
 316 prop tor  51  26  27  52
 317 prop tor  52  27  28  29
 318 prop tor  52  27  28  31
 nber bend=             102
 nber lin bend=           0
 nber prop tor=         158
 nber impr tor=           0
 nber tot redund int=         318
 Eigenvalues of G in red int coords
    Gval -0.00000000 -0.00000000 -0.00000000 -0.00000000 -0.00000000 -0.00000000 -0.00000000 -0.00000000
    Gval -0.00000000 -0.00000000 -0.00000000 -0.00000000 -0.00000000 -0.00000000 -0.00000000 -0.00000000
    Gval -0.00000000 -0.00000000 -0.00000000 -0.00000000 -0.00000000 -0.00000000 -0.00000000 -0.00000000
    Gval -0.00000000 -0.00000000 -0.00000000 -0.00000000 -0.00000000 -0.00000000 -0.00000000 -0.00000000
    Gval -0.00000000 -0.00000000 -0.00000000 -0.00000000 -0.00000000 -0.00000000 -0.00000000 -0.00000000
    Gval -0.00000000 -0.00000000 -0.00000000 -0.00000000 -0.00000000 -0.00000000 -0.00000000 -0.00000000
    Gval -0.00000000 -0.00000000 -0.00000000 -0.00000000 -0.00000000 -0.00000000 -0.00000000 -0.00000000
    Gval -0.00000000 -0.00000000 -0.00000000 -0.00000000 -0.00000000 -0.00000000 -0.00000000 -0.00000000
    Gval -0.00000000 -0.00000000 -0.00000000 -0.00000000 -0.00000000 -0.00000000 -0.00000000 -0.00000000
    Gval -0.00000000 -0.00000000 -0.00000000 -0.00000000 -0.00000000 -0.00000000 -0.00000000 -0.00000000
    Gval -0.00000000 -0.00000000 -0.00000000 -0.00000000 -0.00000000 -0.00000000 -0.00000000 -0.00000000
    Gval -0.00000000  0.00000000  0.00000000  0.00000000  0.00000000  0.00000000  0.00000000  0.00000000
    Gval  0.00000000  0.00000000  0.00000000  0.00000000  0.00000000  0.00000000  0.00000000  0.00000000
    Gval  0.00000000  0.00000000  0.00000000  0.00000000  0.00000000  0.00000000  0.00000000  0.00000000
    Gval  0.00000000  0.00000000  0.00000000  0.00000000  0.00000000  0.00000000  0.00000000  0.00000000
    Gval  0.00000000  0.00000000  0.00000000  0.00000000  0.00000000  0.00000000  0.00000000  0.00000000
    Gval  0.00000000  0.00000000  0.00000000  0.00000000  0.00000000  0.00000000  0.00000000  0.00000000
    Gval  0.00000000  0.00000000  0.00000000  0.00000000  0.00000000  0.00000000  0.00000000  0.00000000
    Gval  0.00000000  0.00000000  0.00000000  0.00000000  0.00000000  0.00000000  0.00000000  0.00000000
    Gval  0.00000000  0.00000000  0.00000000  0.00000000  0.00000000  0.00000000  0.00000000  0.00000000
    Gval  0.00000000  0.00000000  0.00000000  0.00000000  0.00000000  0.00000000  0.00000000  0.00000000
    Gval  0.00000123  0.00000280  0.00000298  0.00000498  0.00000844  0.00001012  0.00001107  0.00001291
    Gval  0.00001373  0.00001462  0.00001707  0.00001731  0.00001831  0.00002097  0.00002141  0.00002335
    Gval  0.00002528  0.00002584  0.00002701  0.00002810  0.00003170  0.00003577  0.00003994  0.00004707
    Gval  0.00004920  0.00005085  0.00005284  0.00005629  0.00005635  0.00006126  0.00006812  0.00007096
    Gval  0.00007313  0.00008131  0.00008228  0.00008338  0.00008711  0.00008859  0.00009295  0.00009345
    Gval  0.00009442  0.00009729  0.00010923  0.00011950  0.00012269  0.00013670  0.00013714  0.00013793
    Gval  0.00014104  0.00015765  0.00016053  0.00016742  0.00017358  0.00018049  0.00020314  0.00022237
    Gval  0.00022739  0.00023009  0.00024630  0.00027462  0.00028203  0.00029182  0.00030011  0.00034239
    Gval  0.00035456  0.00036126  0.00038201  0.00039246  0.00039292  0.00039533  0.00041213  0.00042254
    Gval  0.00042854  0.00042973  0.00043593  0.00044166  0.00044308  0.00046208  0.00046523  0.00046595
    Gval  0.00049177  0.00051741  0.00053406  0.00053717  0.00054556  0.00054679  0.00055413  0.00055428
    Gval  0.00055587  0.00055603  0.00056192  0.00058895  0.00059865  0.00059944  0.00059970  0.00060002
    Gval  0.00060220  0.00064189  0.00064561  0.00064611  0.00064811  0.00066666  0.00068698  0.00069212
    Gval  0.00069787  0.00070880  0.00074506  0.00082463  0.00093058  0.00094963  0.00109538  0.00109635
    Gval  0.00109708  0.00109761  0.00112458  0.00112623  0.00114382  0.00116246  0.00116256  0.00116296
    Gval  0.00116317  0.00117166  0.00117237  0.00126356  0.00128949  0.00129522  0.00139849  0.00151278
    Gval  0.00159265  0.00172922  0.00180434  0.00191843  0.00229290  0.00235535  0.00245171  0.00247030
    Gval  0.00253750  0.00254810  0.00257473  0.00278674  0.00292289  0.00302362  0.00304217  0.00308151
    Gval  0.00309680  0.00365585  0.00365793  0.00370444  0.00370627  0.00394321
  1.229676435610466E-006  1.229676435610466E-006
  2.798985182208991E-006  1.229676435610466E-006
  2.975804923447715E-006  1.229676435610466E-006
  4.981426254405716E-006  1.229676435610466E-006
  8.442755682449440E-006  1.229676435610466E-006
  1.011868777171251E-005  1.229676435610466E-006
  1.106712592111868E-005  1.229676435610466E-006
  1.291466904889953E-005  1.229676435610466E-006
  1.372804398281089E-005  1.229676435610466E-006
  1.461741377711344E-005  1.229676435610466E-006
  1.706718689856807E-005  1.229676435610466E-006
  1.731075743745038E-005  1.229676435610466E-006
  1.830590534452825E-005  1.229676435610466E-006
  2.096964107481979E-005  1.229676435610466E-006
  2.141438452051000E-005  1.229676435610466E-006
  2.334620182742577E-005  1.229676435610466E-006
  2.527636720324968E-005  1.229676435610466E-006
  2.584387188740599E-005  1.229676435610466E-006
  2.700968755929037E-005  1.229676435610466E-006
  2.809957077538036E-005  1.229676435610466E-006
  3.170326080258360E-005  1.229676435610466E-006
  3.576772548174345E-005  1.229676435610466E-006
  3.993586967613479E-005  1.229676435610466E-006
  4.707301269756534E-005  1.229676435610466E-006
  4.919538197134379E-005  1.229676435610466E-006
  5.085263951277846E-005  1.229676435610466E-006
  5.284216336981992E-005  1.229676435610466E-006
  5.629041735340373E-005  1.229676435610466E-006
  5.634530740003736E-005  1.229676435610466E-006
  6.125564345839901E-005  1.229676435610466E-006
  6.811848783494907E-005  1.229676435610466E-006
  7.095852194916541E-005  1.229676435610466E-006
  7.312812708225467E-005  1.229676435610466E-006
  8.130910824560180E-005  1.229676435610466E-006
  8.228222807911141E-005  1.229676435610466E-006
  8.337684480553492E-005  1.229676435610466E-006
  8.711124104085018E-005  1.229676435610466E-006
  8.858960115473800E-005  1.229676435610466E-006
  9.295299855121647E-005  1.229676435610466E-006
  9.345006664867743E-005  1.229676435610466E-006
  9.441949514145731E-005  1.229676435610466E-006
  9.729149096635656E-005  1.229676435610466E-006
  1.092288406823252E-004  1.229676435610466E-006
  1.195022503289860E-004  1.229676435610466E-006
  1.226932347016089E-004  1.229676435610466E-006
  1.366995329452431E-004  1.229676435610466E-006
  1.371441005568383E-004  1.229676435610466E-006
  1.379316166533411E-004  1.229676435610466E-006
  1.410392668938796E-004  1.229676435610466E-006
  1.576491318854902E-004  1.229676435610466E-006
  1.605272662465544E-004  1.229676435610466E-006
  1.674179565824884E-004  1.229676435610466E-006
  1.735838718077231E-004  1.229676435610466E-006
  1.804872295422423E-004  1.229676435610466E-006
  2.031441609904203E-004  1.229676435610466E-006
  2.223715106125553E-004  1.229676435610466E-006
  2.273921214496290E-004  1.229676435610466E-006
  2.300938850344584E-004  1.229676435610466E-006
  2.463004683124725E-004  1.229676435610466E-006
  2.746198745168904E-004  1.229676435610466E-006
  2.820331367706544E-004  1.229676435610466E-006
  2.918196167841883E-004  1.229676435610466E-006
  3.001134709994853E-004  1.229676435610466E-006
  3.423922854262081E-004  1.229676435610466E-006
  3.545629133683880E-004  1.229676435610466E-006
  3.612623771994346E-004  1.229676435610466E-006
  3.820108168489422E-004  1.229676435610466E-006
  3.924574994362419E-004  1.229676435610466E-006
  3.929242632913435E-004  1.229676435610466E-006
  3.953312605619783E-004  1.229676435610466E-006
  4.121285369907604E-004  1.229676435610466E-006
  4.225359497655874E-004  1.229676435610466E-006
  4.285445961822943E-004  1.229676435610466E-006
  4.297339558619151E-004  1.229676435610466E-006
  4.359259306010085E-004  1.229676435610466E-006
  4.416609714126755E-004  1.229676435610466E-006
  4.430784231191414E-004  1.229676435610466E-006
  4.620837359427066E-004  1.229676435610466E-006
  4.652277264872438E-004  1.229676435610466E-006
  4.659506627944972E-004  1.229676435610466E-006
  4.917698914949242E-004  1.229676435610466E-006
  5.174102394433403E-004  1.229676435610466E-006
  5.340601577454718E-004  1.229676435610466E-006
  5.371730001133172E-004  1.229676435610466E-006
  5.455645598039582E-004  1.229676435610466E-006
  5.467927088240827E-004  1.229676435610466E-006
  5.541277675568311E-004  1.229676435610466E-006
  5.542759123937643E-004  1.229676435610466E-006
  5.558689249802553E-004  1.229676435610466E-006
  5.560292949536860E-004  1.229676435610466E-006
  5.619198871712214E-004  1.229676435610466E-006
  5.889487860254368E-004  1.229676435610466E-006
  5.986511343888997E-004  1.229676435610466E-006
  5.994424118205176E-004  1.229676435610466E-006
  5.996974020838500E-004  1.229676435610466E-006
  6.000223064344786E-004  1.229676435610466E-006
  6.021969346358952E-004  1.229676435610466E-006
  6.418932683106650E-004  1.229676435610466E-006
  6.456080075314979E-004  1.229676435610466E-006
  6.461119089029542E-004  1.229676435610466E-006
  6.481133559139539E-004  1.229676435610466E-006
  6.666580885495301E-004  1.229676435610466E-006
  6.869827949863754E-004  1.229676435610466E-006
  6.921202384959144E-004  1.229676435610466E-006
  6.978741526100813E-004  1.229676435610466E-006
  7.087961609040852E-004  1.229676435610466E-006
  7.450561908660370E-004  1.229676435610466E-006
  8.246300425907623E-004  1.229676435610466E-006
  9.305847416747707E-004  1.229676435610466E-006
  9.496314636173136E-004  1.229676435610466E-006
  1.095383413405972E-003  1.229676435610466E-006
  1.096354406766823E-003  1.229676435610466E-006
  1.097082957864621E-003  1.229676435610466E-006
  1.097605650650734E-003  1.229676435610466E-006
  1.124579157639113E-003  1.229676435610466E-006
  1.126233262073393E-003  1.229676435610466E-006
  1.143817839876226E-003  1.229676435610466E-006
  1.162461063323198E-003  1.229676435610466E-006
  1.162564894000171E-003  1.229676435610466E-006
  1.162955896917647E-003  1.229676435610466E-006
  1.163171161428976E-003  1.229676435610466E-006
  1.171660732575988E-003  1.229676435610466E-006
  1.172374019457247E-003  1.229676435610466E-006
  1.263562949591930E-003  1.229676435610466E-006
  1.289485857673597E-003  1.229676435610466E-006
  1.295217801695655E-003  1.229676435610466E-006
  1.398485835595990E-003  1.229676435610466E-006
  1.512779981639251E-003  1.229676435610466E-006
  1.592651426096512E-003  1.229676435610466E-006
  1.729223204775192E-003  1.229676435610466E-006
  1.804341019633625E-003  1.229676435610466E-006
  1.918425591077393E-003  1.229676435610466E-006
  2.292899727302766E-003  1.229676435610466E-006
  2.355352182815461E-003  1.229676435610466E-006
  2.451710485171654E-003  1.229676435610466E-006
  2.470304216245619E-003  1.229676435610466E-006
  2.537501129379484E-003  1.229676435610466E-006
  2.548103786577533E-003  1.229676435610466E-006
  2.574732012541948E-003  1.229676435610466E-006
  2.786736669029989E-003  1.229676435610466E-006
  2.922885276961352E-003  1.229676435610466E-006
  3.023621162135736E-003  1.229676435610466E-006
  3.042169448240573E-003  1.229676435610466E-006
  3.081508023874535E-003  1.229676435610466E-006
  3.096804663947011E-003  1.229676435610466E-006
  3.655853215469985E-003  1.229676435610466E-006
  3.657931757746187E-003  1.229676435610466E-006
  3.704439356218020E-003  1.229676435610466E-006
  3.706266156560333E-003  1.229676435610466E-006
  3.943210327925572E-003  1.229676435610466E-006
 cut=1d-8, nber non-redundant internal coords=         150
 Check on Eigenvals of non-red overlap matrix:
  0.00000123  0.00000280  0.00000298  0.00000498  0.00000844  0.00001012  0.00001107  0.00001291
  0.00001373  0.00001462  0.00001707  0.00001731  0.00001831  0.00002097  0.00002141  0.00002335
  0.00002528  0.00002584  0.00002701  0.00002810  0.00003170  0.00003577  0.00003994  0.00004707
  0.00004920  0.00005085  0.00005284  0.00005629  0.00005635  0.00006126  0.00006812  0.00007096
  0.00007313  0.00008131  0.00008228  0.00008338  0.00008711  0.00008859  0.00009295  0.00009345
  0.00009442  0.00009729  0.00010923  0.00011950  0.00012269  0.00013670  0.00013714  0.00013793
  0.00014104  0.00015765  0.00016053  0.00016742  0.00017358  0.00018049  0.00020314  0.00022237
  0.00022739  0.00023009  0.00024630  0.00027462  0.00028203  0.00029182  0.00030011  0.00034239
  0.00035456  0.00036126  0.00038201  0.00039246  0.00039292  0.00039533  0.00041213  0.00042254
  0.00042854  0.00042973  0.00043593  0.00044166  0.00044308  0.00046208  0.00046523  0.00046595
  0.00049177  0.00051741  0.00053406  0.00053717  0.00054556  0.00054679  0.00055413  0.00055428
  0.00055587  0.00055603  0.00056192  0.00058895  0.00059865  0.00059944  0.00059970  0.00060002
  0.00060220  0.00064189  0.00064561  0.00064611  0.00064811  0.00066666  0.00068698  0.00069212
  0.00069787  0.00070880  0.00074506  0.00082463  0.00093058  0.00094963  0.00109538  0.00109635
  0.00109708  0.00109761  0.00112458  0.00112623  0.00114382  0.00116246  0.00116256  0.00116296
  0.00116317  0.00117166  0.00117237  0.00126356  0.00128949  0.00129522  0.00139849  0.00151278
  0.00159265  0.00172922  0.00180434  0.00191843  0.00229290  0.00235535  0.00245171  0.00247030
  0.00253750  0.00254810  0.00257473  0.00278674  0.00292289  0.00302362  0.00304217  0.00308151
  0.00309680  0.00365585  0.00365793  0.00370444  0.00370627  0.00394321
 Checking for correct frequencies
 recalc frequencies=
    -0.0   -0.0   -0.0    0.0    0.0    0.0   22.6   25.5   50.7   54.9
    64.1   77.0   85.3   92.1  108.5  118.1  159.9  168.9  186.5  187.5
   202.8  208.2  234.7  235.2  271.8  271.9  274.0  288.6  315.6  341.3
   356.4  374.4  392.8  398.8  414.8  432.7  437.4  441.1  447.0  448.4
   474.1  476.7  480.6  485.7  517.1  535.2  542.5  570.5  578.0  591.8
   602.9  622.4  631.7  653.4  666.5  714.6  716.6  725.0  740.1  746.6
   762.8  771.6  782.2  787.2  803.1  808.6  824.5  844.5  864.0  864.9
   869.7  871.2  895.5  918.4  945.5  951.8  956.9  969.3  992.1  996.2
  1000.9 1005.3 1016.7 1052.6 1076.2 1093.4 1102.3 1153.2 1153.4 1155.6
  1169.7 1180.4 1194.6 1206.1 1213.2 1218.2 1240.2 1241.0 1251.0 1267.3
  1303.7 1309.0 1317.1 1326.2 1338.5 1358.2 1369.8 1375.3 1382.2 1387.6
  1400.6 1406.7 1417.1 1429.0 1435.6 1444.5 1462.4 1478.6 1485.2 1491.5
  1496.6 1498.1 1505.5 1505.6 1507.6 1522.8 1542.9 1560.7 1604.2 1614.9
  1620.2 1631.6 1631.9 1648.9 1713.2 1722.0 1750.9 1759.4 3034.7 3038.8
  3062.2 3092.5 3095.8 3113.2 3121.4 3133.2 3143.6 3183.3 3193.7 3193.8
  3201.0 3201.2 3208.3 3208.4 3218.1 3218.2
 recalc symmetries=
                                                                       
                                                                       
                                                                       
                                                                       
                                                                       
                                                                       
                                                                       
                                                                       
                                                                       
                                                                       
                                                                       
                                                                       
                                                                       
                                                                       
                                                                       
                                           
 recalc freqs check OK
 Zero-point lengths:
 10.0000 10.0000 10.0000 10.0000 10.0000 10.0000 52.1976 49.0979 34.8150 33.4656
 30.9614 28.2512 26.8485 25.8378 23.8011 22.8124 19.6051 19.0761 18.1523 18.1041
 17.4090 17.1826 16.1839 16.1635 15.0375 15.0335 14.9760 14.5937 13.9553 13.4201
 13.1313 12.8118 12.5091 12.4147 12.1725 11.9185 11.8542 11.8043 11.7261 11.7075
 11.3854 11.3544 11.3088 11.2495 10.9017 10.7158 10.6442 10.3791 10.3121 10.1908
 10.0963  9.9367  9.8634  9.6987  9.6025  9.2738  9.2612  9.2069  9.1129  9.0730
  8.9763  8.9250  8.8643  8.8359  8.7482  8.7183  8.6338  8.5310  8.4343  8.4296
  8.4064  8.3993  8.2846  8.1803  8.0626  8.0355  8.0143  7.9629  7.8709  7.8546
  7.8362  7.8189  7.7749  7.6413  7.5571  7.4972  7.4670  7.3003  7.2998  7.2926
  7.2487  7.2156  7.1728  7.1384  7.1175  7.1028  7.0396  7.0373  7.0092  6.9639
  6.8660  6.8520  6.8312  6.8075  6.7763  6.7268  6.6984  6.6850  6.6681  6.6553
  6.6243  6.6100  6.5857  6.5582  6.5430  6.5229  6.4829  6.4472  6.4328  6.4193
  6.4084  6.4051  6.3894  6.3891  6.3849  6.3530  6.3115  6.2753  6.1896  6.1691
  6.1589  6.1375  6.1369  6.1052  5.9896  5.9741  5.9248  5.9103  4.5002  4.4972
  4.4800  4.4580  4.4557  4.4432  4.4373  4.4289  4.4216  4.3940  4.3868  4.3867
  4.3818  4.3817  4.3768  4.3768  4.3702  4.3701
 highest evec of mol 1
 -0.0000  0.0001 -0.0000
  0.0001  0.0003 -0.0001
  0.0000  0.0001  0.0000
  0.0002 -0.0003 -0.0003
 -0.0004 -0.0000  0.0005
  0.0002  0.0001 -0.0003
  0.0004  0.0011 -0.0004
 -0.0165  0.0008  0.0234
 -0.0206 -0.0494  0.0206
  0.0008 -0.0004 -0.0013
  0.0003  0.0016 -0.0002
 -0.0346 -0.0036  0.0480
 -0.0090 -0.0257  0.0083
  0.0007  0.0000 -0.0010
 -0.0002 -0.0005  0.0002
  0.0002  0.0002 -0.0002
 -0.0000  0.0004  0.0001
  0.0001 -0.0001 -0.0001
  0.0007 -0.0002 -0.0011
 -0.0004 -0.0002  0.0005
 -0.0012 -0.0032  0.0012
  0.0436 -0.0026 -0.0616
  0.0621  0.1487 -0.0619
 -0.0024  0.0013  0.0036
 -0.0008 -0.0046  0.0003
  0.1024  0.0108 -0.1423
  0.0281  0.0801 -0.0260
 -0.0023 -0.0000  0.0033
  0.0004  0.0014 -0.0003
 -0.0004 -0.0004  0.0004
 -0.0002 -0.0002  0.0003
 -0.0006 -0.0003  0.0008
 -0.0004 -0.0008  0.0005
 -0.0002 -0.0002  0.0002
  0.0001 -0.0004 -0.0001
 -0.0000  0.0000  0.0000
  0.0000  0.0000  0.0001
 -0.0004 -0.0007  0.0005
 -0.0000  0.0000  0.0000
  0.0000 -0.0004 -0.0002
 -0.0001  0.0000  0.0000
  0.0531  0.0013 -0.0745
  0.0694  0.1667 -0.0693
  0.1165  0.0120 -0.1616
  0.0306  0.0801 -0.0293
  0.0001  0.0003 -0.0001
 -0.0003  0.0001  0.0000
  0.0001  0.0000  0.0003
 -0.1391 -0.0032  0.1946
 -0.2082 -0.5011  0.2071
 -0.3444 -0.0359  0.4782
 -0.0953 -0.2505  0.0917
 generating redundant internal coords
         300        3600          52
 Adding extra bonds for z output only
           6           6           6           7           6           8
           6           6           6           6           6           6
           6           6           6           8           7           6
           6           8           6           6           6           6
           6           6           6           6           6           8
           6           6           6           6           1           1
           1           1           1           1           1           1
           1           1           1           1           1           1
           1           1           1           1
 search for int coords
   1 str   2   1   1.532
   2 str   3   2   1.532
   3 str   4   2   1.498
   4 str   5   4   1.401
   5 str   6   5   1.219
   6 str   7   5   1.486
   7 str   8   7   1.382
   8 str   9   8   1.397
   9 str  10   9   1.394
  10 str  11  10   1.469
  11 str  12  11   1.394
  12 str  13  12   1.397
  13 str  14  13   1.381
  14 str  15  14   1.484
  15 str  16  15   1.217
  16 str  17  15   1.403
  17 str  18  17   1.469
  18 str  19  17   1.400
  19 str  20  19   1.217
  20 str  21  19   1.482
  21 str  22  21   1.381
  22 str  23  22   1.397
  23 str  24  23   1.394
  24 str  25  24   1.469
  25 str  26  25   1.394
  26 str  27  26   1.397
  27 str  28  27   1.382
  28 str  29   4   1.408
  29 str  29  28   1.484
  30 str  30  29   1.218
  31 str  31   7   1.412
  32 str  31  28   1.412
  33 str  32  10   1.429
  34 str  32  25   1.428
  35 str  32  31   1.427
  36 str  33  11   1.429
  37 str  33  24   1.429
  38 str  34  14   1.414
  39 str  34  21   1.413
  40 str  34  33   1.428
  41 str  35   1   1.093
  42 str  36   1   1.089
  43 str  37   1   1.093
  44 str  38   2   1.088
  45 str  39   3   1.089
  46 str  40   3   1.093
  47 str  41   3   1.093
  48 str  42   8   1.083
  49 str  43   9   1.081
  50 str  44  12   1.081
  51 str  45  13   1.083
  52 str  46  18   1.085
  53 str  47  18   1.090
  54 str  48  18   1.090
  55 str  49  22   1.083
  56 str  50  23   1.081
  57 str  51  26   1.081
  58 str  52  27   1.083
 nber stretches=          58
  59 ben   1   2   3
  60 prop tor   1   2   3  39
  61 prop tor   1   2   3  40
  62 prop tor   1   2   3  41
  63 ben   1   2   4
  64 prop tor   1   2   4   5
  65 prop tor   1   2   4  29
  66 ben   1   2  38
  67 ben   2   1  35
  68 ben   2   1  36
  69 ben   2   1  37
  70 ben   2   3  39
  71 ben   2   3  40
  72 ben   2   3  41
  73 ben   2   4   5
  74 prop tor   2   4   5   6
  75 prop tor   2   4   5   7
  76 ben   2   4  29
  77 prop tor   2   4  29  28
  78 prop tor   2   4  29  30
  79 ben   3   2   4
  80 prop tor   3   2   4   5
  81 prop tor   3   2   4  29
  82 ben   3   2  38
  83 prop tor   4   2   3  39
  84 prop tor   4   2   3  40
  85 prop tor   4   2   3  41
  86 ben   4   2  38
  87 ben   4   5   6
  88 ben   4   5   7
  89 prop tor   4   5   7   8
  90 prop tor   4   5   7  31
  91 ben   4  29  28
  92 ben   4  29  30
  93 ben   5   4  29
  94 prop tor   5   4  29  28
  95 prop tor   5   4  29  30
  96 ben   5   7   8
  97 prop tor   5   7   8   9
  98 prop tor   5   7   8  42
  99 ben   5   7  31
 100 prop tor   5   7  31  28
 101 prop tor   5   7  31  32
 102 ben   6   5   7
 103 prop tor   6   5   7   8
 104 prop tor   6   5   7  31
 105 ben   7   8   9
 106 prop tor   7   8   9  10
 107 prop tor   7   8   9  43
 108 ben   7   8  42
 109 ben   7  31  28
 110 ben   7  31  32
 111 prop tor   7  31  32  10
 112 prop tor   7  31  32  25
 113 ben   8   7  31
 114 prop tor   8   7  31  28
 115 prop tor   8   7  31  32
 116 ben   8   9  10
 117 prop tor   8   9  10  11
 118 prop tor   8   9  10  32
 119 ben   8   9  43
 120 ben   9   8  42
 121 ben   9  10  11
 122 prop tor   9  10  11  12
 123 prop tor   9  10  11  33
 124 ben   9  10  32
 125 prop tor   9  10  32  25
 126 prop tor   9  10  32  31
 127 ben  10   9  43
 128 ben  10  11  12
 129 prop tor  10  11  12  13
 130 prop tor  10  11  12  44
 131 ben  10  11  33
 132 prop tor  10  11  33  24
 133 prop tor  10  11  33  34
 134 ben  10  32  25
 135 ben  10  32  31
 136 ben  11  10  32
 137 prop tor  11  10  32  25
 138 prop tor  11  10  32  31
 139 ben  11  12  13
 140 prop tor  11  12  13  14
 141 prop tor  11  12  13  45
 142 ben  11  12  44
 143 ben  11  33  24
 144 ben  11  33  34
 145 prop tor  11  33  34  14
 146 prop tor  11  33  34  21
 147 ben  12  11  33
 148 prop tor  12  11  33  24
 149 prop tor  12  11  33  34
 150 ben  12  13  14
 151 prop tor  12  13  14  15
 152 prop tor  12  13  14  34
 153 ben  12  13  45
 154 ben  13  12  44
 155 ben  13  14  15
 156 prop tor  13  14  15  16
 157 prop tor  13  14  15  17
 158 ben  13  14  34
 159 prop tor  13  14  34  21
 160 prop tor  13  14  34  33
 161 ben  14  13  45
 162 ben  14  15  16
 163 ben  14  15  17
 164 prop tor  14  15  17  18
 165 prop tor  14  15  17  19
 166 ben  14  34  21
 167 ben  14  34  33
 168 ben  15  14  34
 169 prop tor  15  14  34  21
 170 prop tor  15  14  34  33
 171 ben  15  17  18
 172 prop tor  15  17  18  46
 173 prop tor  15  17  18  47
 174 prop tor  15  17  18  48
 175 ben  15  17  19
 176 prop tor  15  17  19  20
 177 prop tor  15  17  19  21
 178 ben  16  15  17
 179 prop tor  16  15  17  18
 180 prop tor  16  15  17  19
 181 ben  17  18  46
 182 ben  17  18  47
 183 ben  17  18  48
 184 ben  17  19  20
 185 ben  17  19  21
 186 prop tor  17  19  21  22
 187 prop tor  17  19  21  34
 188 ben  18  17  19
 189 prop tor  18  17  19  20
 190 prop tor  18  17  19  21
 191 prop tor  19  17  18  46
 192 prop tor  19  17  18  47
 193 prop tor  19  17  18  48
 194 ben  19  21  22
 195 prop tor  19  21  22  23
 196 prop tor  19  21  22  49
 197 ben  19  21  34
 198 prop tor  19  21  34  14
 199 prop tor  19  21  34  33
 200 ben  20  19  21
 201 prop tor  20  19  21  22
 202 prop tor  20  19  21  34
 203 ben  21  22  23
 204 prop tor  21  22  23  24
 205 prop tor  21  22  23  50
 206 ben  21  22  49
 207 ben  21  34  33
 208 ben  22  21  34
 209 prop tor  22  21  34  14
 210 prop tor  22  21  34  33
 211 ben  22  23  24
 212 prop tor  22  23  24  25
 213 prop tor  22  23  24  33
 214 ben  22  23  50
 215 ben  23  22  49
 216 ben  23  24  25
 217 prop tor  23  24  25  26
 218 prop tor  23  24  25  32
 219 ben  23  24  33
 220 prop tor  23  24  33  11
 221 prop tor  23  24  33  34
 222 ben  24  23  50
 223 ben  24  25  26
 224 prop tor  24  25  26  27
 225 prop tor  24  25  26  51
 226 ben  24  25  32
 227 prop tor  24  25  32  10
 228 prop tor  24  25  32  31
 229 ben  24  33  34
 230 prop tor  24  33  34  14
 231 prop tor  24  33  34  21
 232 ben  25  24  33
 233 prop tor  25  24  33  11
 234 prop tor  25  24  33  34
 235 ben  25  26  27
 236 prop tor  25  26  27  28
 237 prop tor  25  26  27  52
 238 ben  25  26  51
 239 ben  25  32  31
 240 ben  26  25  32
 241 prop tor  26  25  32  10
 242 prop tor  26  25  32  31
 243 ben  26  27  28
 244 prop tor  26  27  28  29
 245 prop tor  26  27  28  31
 246 ben  26  27  52
 247 ben  27  26  51
 248 ben  27  28  29
 249 prop tor  27  28  29   4
 250 prop tor  27  28  29  30
 251 ben  27  28  31
 252 prop tor  27  28  31   7
 253 prop tor  27  28  31  32
 254 ben  28  27  52
 255 ben  28  29  30
 256 ben  28  31  32
 257 prop tor  28  31  32  10
 258 prop tor  28  31  32  25
 259 prop tor  29   4   5   6
 260 prop tor  29   4   5   7
 261 ben  29  28  31
 262 prop tor  29  28  31   7
 263 prop tor  29  28  31  32
 264 prop tor  31   7   8   9
 265 prop tor  31   7   8  42
 266 prop tor  31  28  29   4
 267 prop tor  31  28  29  30
 268 prop tor  32  10  11  12
 269 prop tor  32  10  11  33
 270 prop tor  32  25  26  27
 271 prop tor  32  25  26  51
 272 prop tor  33  11  12  13
 273 prop tor  33  11  12  44
 274 prop tor  33  24  25  26
 275 prop tor  33  24  25  32
 276 prop tor  34  14  15  16
 277 prop tor  34  14  15  17
 278 prop tor  34  21  22  23
 279 prop tor  34  21  22  49
 280 prop tor  35   1   2   3
 281 prop tor  35   1   2   4
 282 prop tor  35   1   2  38
 283 ben  35   1  36
 284 ben  35   1  37
 285 prop tor  36   1   2   3
 286 prop tor  36   1   2   4
 287 prop tor  36   1   2  38
 288 ben  36   1  37
 289 prop tor  37   1   2   3
 290 prop tor  37   1   2   4
 291 prop tor  37   1   2  38
 292 prop tor  38   2   3  39
 293 prop tor  38   2   3  40
 294 prop tor  38   2   3  41
 295 prop tor  38   2   4   5
 296 prop tor  38   2   4  29
 297 ben  39   3  40
 298 ben  39   3  41
 299 ben  40   3  41
 300 prop tor  42   8   9  10
 301 prop tor  42   8   9  43
 302 prop tor  43   9  10  11
 303 prop tor  43   9  10  32
 304 prop tor  44  12  13  14
 305 prop tor  44  12  13  45
 306 prop tor  45  13  14  15
 307 prop tor  45  13  14  34
 308 ben  46  18  47
 309 ben  46  18  48
 310 ben  47  18  48
 311 prop tor  49  22  23  24
 312 prop tor  49  22  23  50
 313 prop tor  50  23  24  25
 314 prop tor  50  23  24  33
 315 prop tor  51  26  27  28
 316 prop tor  51  26  27  52
 317 prop tor  52  27  28  29
 318 prop tor  52  27  28  31
 nber bend=             102
 nber lin bend=           0
 nber prop tor=         158
 nber impr tor=           0
 nber tot redund int=         318
 Reading file: 
 ./PDI_2_C0S1.log                                                               
                                          
  Entering Gaussian System, Link 0=g16                                          
  
 Gaussian format, type: g94, g98, g03= F F F
  #P Geom=AllCheck Guess=TCheck SCRF=Check GenChk RB3LYP TD(FC,Read)/6-3    
 energy type= TD      
 Original G94 input coords:
  6  1.077333  0.385222 -0.049287
  6  2.579664  0.089896  0.007061
  6  3.158669  0.133743  1.424859
  7  2.918629 -1.192281 -0.689760
  6  2.415216 -2.397894 -0.186216
  8  1.705469 -2.427695  0.808656
  6  2.775996 -3.637963 -0.906060
  6  2.291170 -4.863566 -0.433269
  6  2.610098 -6.039004 -1.081984
  6  3.433651 -6.052509 -2.241728
  6  3.775386 -7.271994 -2.929151
  6  3.311385 -8.543707 -2.493613
  6  3.646314 -9.704293 -3.160815
  6  4.461620 -9.659660 -4.297885
  6  4.799319-10.922828 -4.986107
  8  4.389418-12.003623 -4.593609
  7  5.618804-10.817413 -6.118936
  6  5.984084-12.043503 -6.839728
  6  6.128632 -9.619102 -6.631345
  8  6.836707 -9.622986 -7.625913
  6  5.768783 -8.379598 -5.915939
  6  6.252981 -7.154211 -6.387912
  6  5.932545 -5.979298 -5.738857
  6  5.108405 -5.967917 -4.579859
  6  4.766122 -4.748547 -3.892446
  6  5.228754 -3.475544 -4.326880
  6  4.893364 -2.315666 -3.658744
  6  4.078417 -2.362208 -2.520763
  6  3.739179 -1.101185 -1.829623
  8  4.155964 -0.026365 -2.233551
  6  3.596019 -3.602450 -2.053193
  6  3.934655 -4.810826 -2.734660
  6  4.607484 -7.210482 -4.087203
  6  4.946604 -8.419303 -4.768412
  1  0.898654  1.392554  0.336700
  1  0.504654 -0.322991  0.548091
  1  0.715740  0.354912 -1.080381
  1  3.094244  0.837893 -0.591968
  1  2.671412 -0.585800  2.081562
  1  3.014136  1.136260  1.836787
  1  4.232789 -0.068412  1.410244
  1  1.664230 -4.860411  0.448972
  1  2.218124 -6.966339 -0.688950
  1  2.680026 -8.616416 -1.619467
  1  3.289663-10.669051 -2.823746
  1  5.515432-12.879143 -6.329782
  1  7.068537-12.157675 -6.847681
  1  5.639229-11.980786 -7.872271
  1  6.880785 -7.156535 -7.269748
  1  6.323816 -5.051203 -6.130732
  1  5.859592 -3.401314 -5.201292
  1  5.249176 -1.350603 -3.995446
 nber atoms=          52
  Total Energy, E(TD-HF/TD-DFT) =  -1488.64115086                               
  
          32          49 "  -1488.64115086"
After scan for Atom:   Atom  AN      X      Y      Z        X      Y      Z        X      Y      Z   
After scan for Atom:   Atom  AN      X      Y      Z        X      Y      Z        X      Y      Z   
After scan for Atom:   Atom  AN      X      Y      Z        X      Y      Z        X      Y      Z   
After scan for Atom:   Atom  AN      X      Y      Z        X      Y      Z        X      Y      Z   
After scan for Atom:   Atom  AN      X      Y      Z        X      Y      Z        X      Y      Z   
After scan for Atom:   Atom  AN      X      Y      Z        X      Y      Z        X      Y      Z   
After scan for Atom:   Atom  AN      X      Y      Z        X      Y      Z        X      Y      Z   
After scan for Atom:   Atom  AN      X      Y      Z        X      Y      Z        X      Y      Z   
After scan for Atom:   Atom  AN      X      Y      Z        X      Y      Z        X      Y      Z   
After scan for Atom:   Atom  AN      X      Y      Z        X      Y      Z        X      Y      Z   
After scan for Atom:   Atom  AN      X      Y      Z        X      Y      Z        X      Y      Z   
After scan for Atom:   Atom  AN      X      Y      Z        X      Y      Z        X      Y      Z   
After scan for Atom:   Atom  AN      X      Y      Z        X      Y      Z        X      Y      Z   
After scan for Atom:   Atom  AN      X      Y      Z        X      Y      Z        X      Y      Z   
After scan for Atom:   Atom  AN      X      Y      Z        X      Y      Z        X      Y      Z   
After scan for Atom:   Atom  AN      X      Y      Z        X      Y      Z        X      Y      Z   
After scan for Atom:   Atom  AN      X      Y      Z        X      Y      Z        X      Y      Z   
After scan for Atom:   Atom  AN      X      Y      Z        X      Y      Z        X      Y      Z   
After scan for Atom:   Atom  AN      X      Y      Z        X      Y      Z        X      Y      Z   
After scan for Atom:   Atom  AN      X      Y      Z        X      Y      Z        X      Y      Z   
After scan for Atom:   Atom  AN      X      Y      Z        X      Y      Z        X      Y      Z   
After scan for Atom:   Atom  AN      X      Y      Z        X      Y      Z        X      Y      Z   
After scan for Atom:   Atom  AN      X      Y      Z        X      Y      Z        X      Y      Z   
After scan for Atom:   Atom  AN      X      Y      Z        X      Y      Z        X      Y      Z   
After scan for Atom:   Atom  AN      X      Y      Z        X      Y      Z        X      Y      Z   
After scan for Atom:   Atom  AN      X      Y      Z        X      Y      Z        X      Y      Z   
After scan for Atom:   Atom  AN      X      Y      Z        X      Y      Z        X      Y      Z   
After scan for Atom:   Atom  AN      X      Y      Z        X      Y      Z        X      Y      Z   
After scan for Atom:   Atom  AN      X      Y      Z        X      Y      Z        X      Y      Z   
After scan for Atom:   Atom  AN      X      Y      Z        X      Y      Z        X      Y      Z   
After scan for Atom:   Atom  AN      X      Y      Z        X      Y      Z        X      Y      Z   
After scan for Atom:   Atom  AN      X      Y      Z        X      Y      Z        X      Y      Z   
After scan for Atom:   Atom  AN      X      Y      Z        X      Y      Z        X      Y      Z   
After scan for Atom:   Atom  AN      X      Y      Z        X      Y      Z        X      Y      Z   
After scan for Atom:   Atom  AN      X      Y      Z        X      Y      Z        X      Y      Z   
After scan for Atom:   Atom  AN      X      Y      Z        X      Y      Z        X      Y      Z   
After scan for Atom:   Atom  AN      X      Y      Z        X      Y      Z        X      Y      Z   
After scan for Atom:   Atom  AN      X      Y      Z        X      Y      Z        X      Y      Z   
After scan for Atom:   Atom  AN      X      Y      Z        X      Y      Z        X      Y      Z   
After scan for Atom:   Atom  AN      X      Y      Z        X      Y      Z        X      Y      Z   
After scan for Atom:   Atom  AN      X      Y      Z        X      Y      Z        X      Y      Z   
After scan for Atom:   Atom  AN      X      Y      Z        X      Y      Z        X      Y      Z   
After scan for Atom:   Atom  AN      X      Y      Z        X      Y      Z        X      Y      Z   
After scan for Atom:   Atom  AN      X      Y      Z        X      Y      Z        X      Y      Z   
After scan for Atom:   Atom  AN      X      Y      Z        X      Y      Z        X      Y      Z   
After scan for Atom:   Atom  AN      X      Y      Z        X      Y      Z        X      Y      Z   
After scan for Atom:   Atom  AN      X      Y      Z        X      Y      Z        X      Y      Z   
After scan for Atom:   Atom  AN      X      Y      Z        X      Y      Z        X      Y      Z   
After scan for Atom:   Atom  AN      X      Y      Z        X      Y      Z        X      Y      Z   
After scan for Atom:   Atom  AN      X      Y      Z        X      Y      Z        X      Y      Z   
 g94    frequencies=
     0.0    0.0    0.0    0.0    0.0    0.0   23.8   29.2   50.8   56.0
    63.8   78.3   86.7   92.8  105.5  119.7  167.9  170.2  185.6  186.0
   202.6  208.8  234.6  235.4  257.3  271.0  271.0  288.4  303.2  335.8
   338.3  369.7  391.0  395.9  413.3  418.0  432.5  438.9  441.8  447.2
   473.7  483.1  483.6  496.6  506.6  513.9  542.5  567.3  567.4  574.1
   593.0  605.3  614.7  631.8  652.3  672.0  700.0  707.1  710.3  726.9
   752.8  757.7  758.9  764.4  798.9  803.9  808.9  813.9  821.9  826.5
   832.0  843.9  888.5  912.5  925.9  945.3  951.7  956.6  973.9  975.5
   987.2  987.5 1014.2 1040.7 1066.9 1092.7 1101.8 1136.6 1153.1 1155.5
  1159.9 1169.2 1185.6 1194.4 1195.9 1223.8 1232.6 1240.4 1242.7 1251.1
  1295.7 1299.1 1316.0 1319.0 1350.5 1360.5 1365.9 1382.2 1383.1 1391.9
  1400.2 1403.5 1416.1 1429.4 1435.2 1443.7 1449.1 1466.3 1467.4 1484.9
  1492.5 1496.0 1497.5 1505.3 1505.8 1511.3 1522.5 1546.6 1555.3 1569.9
  1580.3 1598.4 1599.4 1622.1 1685.2 1695.6 1724.2 1734.4 3034.1 3038.2
  3061.1 3092.0 3095.2 3112.4 3120.2 3132.4 3142.8 3182.4 3197.6 3198.0
  3204.4 3204.7 3212.5 3212.6 3223.6 3223.9
 g94    symmetries=
                                                 A      A      A      A
       A      A      A      A      A      A      A      A      A      A
       A      A      A      A      A      A      A      A      A      A
       A      A      A      A      A      A      A      A      A      A
       A      A      A      A      A      A      A      A      A      A
       A      A      A      A      A      A      A      A      A      A
       A      A      A      A      A      A      A      A      A      A
       A      A      A      A      A      A      A      A      A      A
       A      A      A      A      A      A      A      A      A      A
       A      A      A      A      A      A      A      A      A      A
       A      A      A      A      A      A      A      A      A      A
       A      A      A      A      A      A      A      A      A      A
       A      A      A      A      A      A      A      A      A      A
       A      A      A      A      A      A      A      A      A      A
       A      A      A      A      A      A      A      A      A      A
       A      A      A      A      A      A
 atomic masses:
 12.0000 12.0000 12.0000 14.0031 12.0000 15.9949 12.0000 12.0000 12.0000 12.0000
 12.0000 12.0000 12.0000 12.0000 12.0000 15.9949 14.0031 12.0000 12.0000 15.9949
 12.0000 12.0000 12.0000 12.0000 12.0000 12.0000 12.0000 12.0000 12.0000 15.9949
 12.0000 12.0000 12.0000 12.0000  1.0078  1.0078  1.0078  1.0078  1.0078  1.0078
  1.0078  1.0078  1.0078  1.0078  1.0078  1.0078  1.0078  1.0078  1.0078  1.0078
  1.0078  1.0078
 looking for force constants in 
 ./PDI_2_C0S1.fchk                                                              
  
 Cartesian Force Constants                  R   N=       12246                  
  
 n3=         156       12246
 g94-fc frequencies=
    -1.7   -0.0   -0.0   -0.0    1.0    3.3   23.8   29.2   50.8   56.0
    63.8   78.3   86.7   92.8  105.5  119.7  167.9  170.2  185.6  186.0
   202.6  208.8  234.6  235.5  257.3  271.0  271.0  288.5  303.2  335.8
   338.3  369.7  391.0  395.9  413.3  418.0  432.5  439.0  441.8  447.2
   473.7  483.1  483.6  496.6  506.7  513.9  542.5  567.3  567.4  574.2
   593.0  605.3  614.7  631.9  652.3  672.0  700.1  707.1  710.3  726.9
   752.8  757.7  758.9  764.4  798.9  803.9  808.9  813.9  821.9  826.5
   832.0  843.9  888.5  912.5  925.9  945.3  951.8  956.6  973.9  975.5
   987.2  987.5 1014.2 1040.8 1066.9 1092.8 1101.8 1136.6 1153.2 1155.5
  1160.0 1169.3 1185.6 1194.4 1196.0 1223.8 1232.6 1240.4 1242.8 1251.1
  1295.7 1299.2 1316.0 1319.0 1350.6 1360.5 1365.9 1382.3 1383.1 1392.0
  1400.2 1403.6 1416.2 1429.4 1435.3 1443.7 1449.1 1466.3 1467.4 1484.9
  1492.6 1496.0 1497.6 1505.3 1505.9 1511.3 1522.5 1546.7 1555.3 1569.9
  1580.4 1598.5 1599.4 1622.2 1685.2 1695.6 1724.2 1734.4 3034.1 3038.3
  3061.2 3092.0 3095.3 3112.5 3120.2 3132.5 3142.9 3182.4 3197.7 3198.1
  3204.5 3204.8 3212.6 3212.7 3223.7 3223.9
 at 99999: n3=         156
 symm operator            1 :  F  nop=           0
 symm operator            2 :  F  nop=           0
 symm operator            3 :  F  nop=           0
 symm operator            4 :  F  nop=           0
 symm operator            5 :  F  nop=           0
 symm operator            6 :  F  nop=           0
 symm operator            7 :  F  nop=           0
 The point group of the molecule is  C1
 Symmetry rotation matrix:
   1.00000   0.00000   0.00000
   0.00000   1.00000   0.00000
   0.00000   0.00000   1.00000

 Projecting out zero-frequency components
 generating redundant internal coords
         300        3600          52
 search for int coords
   1 str   2   1   1.532
   2 str   3   2   1.532
   3 str   4   2   1.498
   4 str   5   4   1.400
   5 str   6   5   1.222
   6 str   7   5   1.479
   7 str   8   7   1.400
   8 str   9   8   1.380
   9 str  10   9   1.422
  10 str  11  10   1.441
  11 str  12  11   1.422
  12 str  13  12   1.380
  13 str  14  13   1.400
  14 str  15  14   1.478
  15 str  16  15   1.221
  16 str  17  15   1.402
  17 str  18  17   1.468
  18 str  19  17   1.399
  19 str  20  19   1.221
  20 str  21  19   1.476
  21 str  22  21   1.400
  22 str  23  22   1.380
  23 str  24  23   1.422
  24 str  25  24   1.441
  25 str  26  25   1.422
  26 str  27  26   1.380
  27 str  28  27   1.400
  28 str  29   4   1.407
  29 str  29  28   1.477
  30 str  30  29   1.222
  31 str  31   7   1.411
  32 str  31  28   1.411
  33 str  32  10   1.427
  34 str  32  25   1.427
  35 str  32  31   1.428
  36 str  33  11   1.427
  37 str  33  24   1.427
  38 str  34  14   1.412
  39 str  34  21   1.412
  40 str  34  33   1.428
  41 str  35   1   1.093
  42 str  36   1   1.089
  43 str  37   1   1.093
  44 str  38   2   1.088
  45 str  39   3   1.089
  46 str  40   3   1.093
  47 str  41   3   1.093
  48 str  42   8   1.082
  49 str  43   9   1.081
  50 str  44  12   1.081
  51 str  45  13   1.082
  52 str  46  18   1.085
  53 str  47  18   1.090
  54 str  48  18   1.090
  55 str  49  22   1.082
  56 str  50  23   1.081
  57 str  51  26   1.081
  58 str  52  27   1.082
 nber stretches=          58
  59 ben   1   2   3
  60 prop tor   1   2   3  39
  61 prop tor   1   2   3  40
  62 prop tor   1   2   3  41
  63 ben   1   2   4
  64 prop tor   1   2   4   5
  65 prop tor   1   2   4  29
  66 ben   1   2  38
  67 ben   2   1  35
  68 ben   2   1  36
  69 ben   2   1  37
  70 ben   2   3  39
  71 ben   2   3  40
  72 ben   2   3  41
  73 ben   2   4   5
  74 prop tor   2   4   5   6
  75 prop tor   2   4   5   7
  76 ben   2   4  29
  77 prop tor   2   4  29  28
  78 prop tor   2   4  29  30
  79 ben   3   2   4
  80 prop tor   3   2   4   5
  81 prop tor   3   2   4  29
  82 ben   3   2  38
  83 prop tor   4   2   3  39
  84 prop tor   4   2   3  40
  85 prop tor   4   2   3  41
  86 ben   4   2  38
  87 ben   4   5   6
  88 ben   4   5   7
  89 prop tor   4   5   7   8
  90 prop tor   4   5   7  31
  91 ben   4  29  28
  92 ben   4  29  30
  93 ben   5   4  29
  94 prop tor   5   4  29  28
  95 prop tor   5   4  29  30
  96 ben   5   7   8
  97 prop tor   5   7   8   9
  98 prop tor   5   7   8  42
  99 ben   5   7  31
 100 prop tor   5   7  31  28
 101 prop tor   5   7  31  32
 102 ben   6   5   7
 103 prop tor   6   5   7   8
 104 prop tor   6   5   7  31
 105 ben   7   8   9
 106 prop tor   7   8   9  10
 107 prop tor   7   8   9  43
 108 ben   7   8  42
 109 ben   7  31  28
 110 ben   7  31  32
 111 prop tor   7  31  32  10
 112 prop tor   7  31  32  25
 113 ben   8   7  31
 114 prop tor   8   7  31  28
 115 prop tor   8   7  31  32
 116 ben   8   9  10
 117 prop tor   8   9  10  11
 118 prop tor   8   9  10  32
 119 ben   8   9  43
 120 ben   9   8  42
 121 ben   9  10  11
 122 prop tor   9  10  11  12
 123 prop tor   9  10  11  33
 124 ben   9  10  32
 125 prop tor   9  10  32  25
 126 prop tor   9  10  32  31
 127 ben  10   9  43
 128 ben  10  11  12
 129 prop tor  10  11  12  13
 130 prop tor  10  11  12  44
 131 ben  10  11  33
 132 prop tor  10  11  33  24
 133 prop tor  10  11  33  34
 134 ben  10  32  25
 135 ben  10  32  31
 136 ben  11  10  32
 137 prop tor  11  10  32  25
 138 prop tor  11  10  32  31
 139 ben  11  12  13
 140 prop tor  11  12  13  14
 141 prop tor  11  12  13  45
 142 ben  11  12  44
 143 ben  11  33  24
 144 ben  11  33  34
 145 prop tor  11  33  34  14
 146 prop tor  11  33  34  21
 147 ben  12  11  33
 148 prop tor  12  11  33  24
 149 prop tor  12  11  33  34
 150 ben  12  13  14
 151 prop tor  12  13  14  15
 152 prop tor  12  13  14  34
 153 ben  12  13  45
 154 ben  13  12  44
 155 ben  13  14  15
 156 prop tor  13  14  15  16
 157 prop tor  13  14  15  17
 158 ben  13  14  34
 159 prop tor  13  14  34  21
 160 prop tor  13  14  34  33
 161 ben  14  13  45
 162 ben  14  15  16
 163 ben  14  15  17
 164 prop tor  14  15  17  18
 165 prop tor  14  15  17  19
 166 ben  14  34  21
 167 ben  14  34  33
 168 ben  15  14  34
 169 prop tor  15  14  34  21
 170 prop tor  15  14  34  33
 171 ben  15  17  18
 172 prop tor  15  17  18  46
 173 prop tor  15  17  18  47
 174 prop tor  15  17  18  48
 175 ben  15  17  19
 176 prop tor  15  17  19  20
 177 prop tor  15  17  19  21
 178 ben  16  15  17
 179 prop tor  16  15  17  18
 180 prop tor  16  15  17  19
 181 ben  17  18  46
 182 ben  17  18  47
 183 ben  17  18  48
 184 ben  17  19  20
 185 ben  17  19  21
 186 prop tor  17  19  21  22
 187 prop tor  17  19  21  34
 188 ben  18  17  19
 189 prop tor  18  17  19  20
 190 prop tor  18  17  19  21
 191 prop tor  19  17  18  46
 192 prop tor  19  17  18  47
 193 prop tor  19  17  18  48
 194 ben  19  21  22
 195 prop tor  19  21  22  23
 196 prop tor  19  21  22  49
 197 ben  19  21  34
 198 prop tor  19  21  34  14
 199 prop tor  19  21  34  33
 200 ben  20  19  21
 201 prop tor  20  19  21  22
 202 prop tor  20  19  21  34
 203 ben  21  22  23
 204 prop tor  21  22  23  24
 205 prop tor  21  22  23  50
 206 ben  21  22  49
 207 ben  21  34  33
 208 ben  22  21  34
 209 prop tor  22  21  34  14
 210 prop tor  22  21  34  33
 211 ben  22  23  24
 212 prop tor  22  23  24  25
 213 prop tor  22  23  24  33
 214 ben  22  23  50
 215 ben  23  22  49
 216 ben  23  24  25
 217 prop tor  23  24  25  26
 218 prop tor  23  24  25  32
 219 ben  23  24  33
 220 prop tor  23  24  33  11
 221 prop tor  23  24  33  34
 222 ben  24  23  50
 223 ben  24  25  26
 224 prop tor  24  25  26  27
 225 prop tor  24  25  26  51
 226 ben  24  25  32
 227 prop tor  24  25  32  10
 228 prop tor  24  25  32  31
 229 ben  24  33  34
 230 prop tor  24  33  34  14
 231 prop tor  24  33  34  21
 232 ben  25  24  33
 233 prop tor  25  24  33  11
 234 prop tor  25  24  33  34
 235 ben  25  26  27
 236 prop tor  25  26  27  28
 237 prop tor  25  26  27  52
 238 ben  25  26  51
 239 ben  25  32  31
 240 ben  26  25  32
 241 prop tor  26  25  32  10
 242 prop tor  26  25  32  31
 243 ben  26  27  28
 244 prop tor  26  27  28  29
 245 prop tor  26  27  28  31
 246 ben  26  27  52
 247 ben  27  26  51
 248 ben  27  28  29
 249 prop tor  27  28  29   4
 250 prop tor  27  28  29  30
 251 ben  27  28  31
 252 prop tor  27  28  31   7
 253 prop tor  27  28  31  32
 254 ben  28  27  52
 255 ben  28  29  30
 256 ben  28  31  32
 257 prop tor  28  31  32  10
 258 prop tor  28  31  32  25
 259 prop tor  29   4   5   6
 260 prop tor  29   4   5   7
 261 ben  29  28  31
 262 prop tor  29  28  31   7
 263 prop tor  29  28  31  32
 264 prop tor  31   7   8   9
 265 prop tor  31   7   8  42
 266 prop tor  31  28  29   4
 267 prop tor  31  28  29  30
 268 prop tor  32  10  11  12
 269 prop tor  32  10  11  33
 270 prop tor  32  25  26  27
 271 prop tor  32  25  26  51
 272 prop tor  33  11  12  13
 273 prop tor  33  11  12  44
 274 prop tor  33  24  25  26
 275 prop tor  33  24  25  32
 276 prop tor  34  14  15  16
 277 prop tor  34  14  15  17
 278 prop tor  34  21  22  23
 279 prop tor  34  21  22  49
 280 prop tor  35   1   2   3
 281 prop tor  35   1   2   4
 282 prop tor  35   1   2  38
 283 ben  35   1  36
 284 ben  35   1  37
 285 prop tor  36   1   2   3
 286 prop tor  36   1   2   4
 287 prop tor  36   1   2  38
 288 ben  36   1  37
 289 prop tor  37   1   2   3
 290 prop tor  37   1   2   4
 291 prop tor  37   1   2  38
 292 prop tor  38   2   3  39
 293 prop tor  38   2   3  40
 294 prop tor  38   2   3  41
 295 prop tor  38   2   4   5
 296 prop tor  38   2   4  29
 297 ben  39   3  40
 298 ben  39   3  41
 299 ben  40   3  41
 300 prop tor  42   8   9  10
 301 prop tor  42   8   9  43
 302 prop tor  43   9  10  11
 303 prop tor  43   9  10  32
 304 prop tor  44  12  13  14
 305 prop tor  44  12  13  45
 306 prop tor  45  13  14  15
 307 prop tor  45  13  14  34
 308 ben  46  18  47
 309 ben  46  18  48
 310 ben  47  18  48
 311 prop tor  49  22  23  24
 312 prop tor  49  22  23  50
 313 prop tor  50  23  24  25
 314 prop tor  50  23  24  33
 315 prop tor  51  26  27  28
 316 prop tor  51  26  27  52
 317 prop tor  52  27  28  29
 318 prop tor  52  27  28  31
 nber bend=             102
 nber lin bend=           0
 nber prop tor=         158
 nber impr tor=           0
 nber tot redund int=         318
 Eigenvalues of G in red int coords
    Gval -0.00000000 -0.00000000 -0.00000000 -0.00000000 -0.00000000 -0.00000000 -0.00000000 -0.00000000
    Gval -0.00000000 -0.00000000 -0.00000000 -0.00000000 -0.00000000 -0.00000000 -0.00000000 -0.00000000
    Gval -0.00000000 -0.00000000 -0.00000000 -0.00000000 -0.00000000 -0.00000000 -0.00000000 -0.00000000
    Gval -0.00000000 -0.00000000 -0.00000000 -0.00000000 -0.00000000 -0.00000000 -0.00000000 -0.00000000
    Gval -0.00000000 -0.00000000 -0.00000000 -0.00000000 -0.00000000 -0.00000000 -0.00000000 -0.00000000
    Gval -0.00000000 -0.00000000 -0.00000000 -0.00000000 -0.00000000 -0.00000000 -0.00000000 -0.00000000
    Gval -0.00000000 -0.00000000 -0.00000000 -0.00000000 -0.00000000 -0.00000000 -0.00000000 -0.00000000
    Gval -0.00000000 -0.00000000 -0.00000000 -0.00000000 -0.00000000 -0.00000000 -0.00000000 -0.00000000
    Gval -0.00000000 -0.00000000 -0.00000000 -0.00000000 -0.00000000 -0.00000000 -0.00000000 -0.00000000
    Gval -0.00000000 -0.00000000 -0.00000000 -0.00000000 -0.00000000 -0.00000000 -0.00000000 -0.00000000
    Gval -0.00000000 -0.00000000  0.00000000  0.00000000  0.00000000  0.00000000  0.00000000  0.00000000
    Gval  0.00000000  0.00000000  0.00000000  0.00000000  0.00000000  0.00000000  0.00000000  0.00000000
    Gval  0.00000000  0.00000000  0.00000000  0.00000000  0.00000000  0.00000000  0.00000000  0.00000000
    Gval  0.00000000  0.00000000  0.00000000  0.00000000  0.00000000  0.00000000  0.00000000  0.00000000
    Gval  0.00000000  0.00000000  0.00000000  0.00000000  0.00000000  0.00000000  0.00000000  0.00000000
    Gval  0.00000000  0.00000000  0.00000000  0.00000000  0.00000000  0.00000000  0.00000000  0.00000000
    Gval  0.00000000  0.00000000  0.00000000  0.00000000  0.00000000  0.00000000  0.00000000  0.00000000
    Gval  0.00000000  0.00000000  0.00000000  0.00000000  0.00000000  0.00000000  0.00000000  0.00000000
    Gval  0.00000000  0.00000000  0.00000000  0.00000000  0.00000000  0.00000000  0.00000000  0.00000000
    Gval  0.00000000  0.00000000  0.00000000  0.00000000  0.00000000  0.00000000  0.00000000  0.00000000
    Gval  0.00000000  0.00000000  0.00000000  0.00000000  0.00000000  0.00000000  0.00000000  0.00000000
    Gval  0.00000123  0.00000279  0.00000299  0.00000500  0.00000844  0.00001011  0.00001108  0.00001295
    Gval  0.00001369  0.00001457  0.00001704  0.00001728  0.00001829  0.00002091  0.00002138  0.00002326
    Gval  0.00002528  0.00002576  0.00002699  0.00002814  0.00003168  0.00003570  0.00003994  0.00004717
    Gval  0.00004883  0.00005097  0.00005271  0.00005616  0.00005622  0.00006128  0.00006806  0.00007089
    Gval  0.00007317  0.00008129  0.00008231  0.00008351  0.00008636  0.00008866  0.00009302  0.00009341
    Gval  0.00009484  0.00009722  0.00010995  0.00011941  0.00012247  0.00013561  0.00013653  0.00013742
    Gval  0.00014088  0.00015633  0.00015897  0.00016717  0.00017161  0.00018128  0.00020119  0.00022191
    Gval  0.00022722  0.00023007  0.00024525  0.00027279  0.00028406  0.00029039  0.00029844  0.00034136
    Gval  0.00035408  0.00036035  0.00038119  0.00039038  0.00039106  0.00039598  0.00041351  0.00042451
    Gval  0.00042880  0.00043252  0.00043667  0.00044123  0.00044196  0.00046178  0.00046590  0.00046865
    Gval  0.00049486  0.00051983  0.00053401  0.00053717  0.00054566  0.00054679  0.00055409  0.00055427
    Gval  0.00055590  0.00055601  0.00056413  0.00058590  0.00059850  0.00059924  0.00059957  0.00059985
    Gval  0.00060219  0.00064071  0.00064423  0.00064497  0.00064682  0.00066683  0.00068711  0.00069237
    Gval  0.00069773  0.00070878  0.00074496  0.00081455  0.00092550  0.00094172  0.00109320  0.00109413
    Gval  0.00109483  0.00109533  0.00112418  0.00112581  0.00114305  0.00116535  0.00116548  0.00116581
    Gval  0.00116604  0.00117120  0.00117190  0.00126220  0.00129038  0.00129536  0.00139809  0.00150082
    Gval  0.00159691  0.00172106  0.00180620  0.00192447  0.00228025  0.00234082  0.00245152  0.00246842
    Gval  0.00252247  0.00253980  0.00257113  0.00278966  0.00292160  0.00302342  0.00304211  0.00308119
    Gval  0.00309609  0.00367567  0.00367738  0.00372231  0.00372396  0.00394527
  1.231854966904227E-006  1.231854966904227E-006
  2.791868847312213E-006  1.231854966904227E-006
  2.986545781043685E-006  1.231854966904227E-006
  4.995278246956254E-006  1.231854966904227E-006
  8.435244421482984E-006  1.231854966904227E-006
  1.011223806944962E-005  1.231854966904227E-006
  1.108153224696059E-005  1.231854966904227E-006
  1.294669263023492E-005  1.231854966904227E-006
  1.369474280825152E-005  1.231854966904227E-006
  1.457063467062154E-005  1.231854966904227E-006
  1.703688182462562E-005  1.231854966904227E-006
  1.728158672643276E-005  1.231854966904227E-006
  1.829211394198747E-005  1.231854966904227E-006
  2.090838018294721E-005  1.231854966904227E-006
  2.137912149240016E-005  1.231854966904227E-006
  2.326247411506486E-005  1.231854966904227E-006
  2.528168668233134E-005  1.231854966904227E-006
  2.576074643620241E-005  1.231854966904227E-006
  2.699468254326240E-005  1.231854966904227E-006
  2.814468917830737E-005  1.231854966904227E-006
  3.168092339439419E-005  1.231854966904227E-006
  3.569583115561253E-005  1.231854966904227E-006
  3.993949430866567E-005  1.231854966904227E-006
  4.716543988826098E-005  1.231854966904227E-006
  4.883388299690437E-005  1.231854966904227E-006
  5.096936507468018E-005  1.231854966904227E-006
  5.270735670389523E-005  1.231854966904227E-006
  5.615616136445300E-005  1.231854966904227E-006
  5.621627543940014E-005  1.231854966904227E-006
  6.127927136058284E-005  1.231854966904227E-006
  6.805923990181996E-005  1.231854966904227E-006
  7.088904098456368E-005  1.231854966904227E-006
  7.317004781009408E-005  1.231854966904227E-006
  8.128782358360241E-005  1.231854966904227E-006
  8.230587718868342E-005  1.231854966904227E-006
  8.350862493866823E-005  1.231854966904227E-006
  8.635911410908952E-005  1.231854966904227E-006
  8.866232360042678E-005  1.231854966904227E-006
  9.302026860858321E-005  1.231854966904227E-006
  9.340859066604525E-005  1.231854966904227E-006
  9.484292393644475E-005  1.231854966904227E-006
  9.722062681432922E-005  1.231854966904227E-006
  1.099483065975387E-004  1.231854966904227E-006
  1.194116381191526E-004  1.231854966904227E-006
  1.224650229719393E-004  1.231854966904227E-006
  1.356064606481243E-004  1.231854966904227E-006
  1.365291253968282E-004  1.231854966904227E-006
  1.374171336427790E-004  1.231854966904227E-006
  1.408836501211505E-004  1.231854966904227E-006
  1.563341891074849E-004  1.231854966904227E-006
  1.589688101941449E-004  1.231854966904227E-006
  1.671660427079700E-004  1.231854966904227E-006
  1.716119157960276E-004  1.231854966904227E-006
  1.812822599650985E-004  1.231854966904227E-006
  2.011885092806596E-004  1.231854966904227E-006
  2.219086494170799E-004  1.231854966904227E-006
  2.272171298072106E-004  1.231854966904227E-006
  2.300672564796174E-004  1.231854966904227E-006
  2.452462560049856E-004  1.231854966904227E-006
  2.727899706690836E-004  1.231854966904227E-006
  2.840626151282497E-004  1.231854966904227E-006
  2.903861031307623E-004  1.231854966904227E-006
  2.984386781513097E-004  1.231854966904227E-006
  3.413604947739455E-004  1.231854966904227E-006
  3.540759649864758E-004  1.231854966904227E-006
  3.603516481760502E-004  1.231854966904227E-006
  3.811931881139831E-004  1.231854966904227E-006
  3.903834172175653E-004  1.231854966904227E-006
  3.910590058677549E-004  1.231854966904227E-006
  3.959813955183148E-004  1.231854966904227E-006
  4.135108162628714E-004  1.231854966904227E-006
  4.245131822623659E-004  1.231854966904227E-006
  4.288033191253425E-004  1.231854966904227E-006
  4.325185885676058E-004  1.231854966904227E-006
  4.366675779039662E-004  1.231854966904227E-006
  4.412325803067960E-004  1.231854966904227E-006
  4.419617907438932E-004  1.231854966904227E-006
  4.617844570390894E-004  1.231854966904227E-006
  4.659001298846099E-004  1.231854966904227E-006
  4.686473548384053E-004  1.231854966904227E-006
  4.948622888575708E-004  1.231854966904227E-006
  5.198284770619259E-004  1.231854966904227E-006
  5.340145158347606E-004  1.231854966904227E-006
  5.371703784613164E-004  1.231854966904227E-006
  5.456556041225252E-004  1.231854966904227E-006
  5.467899656158399E-004  1.231854966904227E-006
  5.540858496663666E-004  1.231854966904227E-006
  5.542685971782424E-004  1.231854966904227E-006
  5.559009412346571E-004  1.231854966904227E-006
  5.560129449183705E-004  1.231854966904227E-006
  5.641267155783773E-004  1.231854966904227E-006
  5.859020627783082E-004  1.231854966904227E-006
  5.984965731638695E-004  1.231854966904227E-006
  5.992424680718136E-004  1.231854966904227E-006
  5.995715207088939E-004  1.231854966904227E-006
  5.998541812595367E-004  1.231854966904227E-006
  6.021867202033075E-004  1.231854966904227E-006
  6.407113184083160E-004  1.231854966904227E-006
  6.442308933797358E-004  1.231854966904227E-006
  6.449704963723812E-004  1.231854966904227E-006
  6.468226411808436E-004  1.231854966904227E-006
  6.668277645367933E-004  1.231854966904227E-006
  6.871067632852968E-004  1.231854966904227E-006
  6.923709476421755E-004  1.231854966904227E-006
  6.977270083930398E-004  1.231854966904227E-006
  7.087843362634042E-004  1.231854966904227E-006
  7.449558166959723E-004  1.231854966904227E-006
  8.145529320497029E-004  1.231854966904227E-006
  9.255017634986457E-004  1.231854966904227E-006
  9.417168546719245E-004  1.231854966904227E-006
  1.093201688029782E-003  1.231854966904227E-006
  1.094134811475012E-003  1.231854966904227E-006
  1.094826812014774E-003  1.231854966904227E-006
  1.095326135380085E-003  1.231854966904227E-006
  1.124178525633872E-003  1.231854966904227E-006
  1.125805489585497E-003  1.231854966904227E-006
  1.143046573526324E-003  1.231854966904227E-006
  1.165349241824871E-003  1.231854966904227E-006
  1.165482683951989E-003  1.231854966904227E-006
  1.165813910612637E-003  1.231854966904227E-006
  1.166040998238447E-003  1.231854966904227E-006
  1.171197909914560E-003  1.231854966904227E-006
  1.171897096818832E-003  1.231854966904227E-006
  1.262202045582832E-003  1.231854966904227E-006
  1.290376200050193E-003  1.231854966904227E-006
  1.295361165113765E-003  1.231854966904227E-006
  1.398091173594210E-003  1.231854966904227E-006
  1.500822693733767E-003  1.231854966904227E-006
  1.596907884632561E-003  1.231854966904227E-006
  1.721055116596936E-003  1.231854966904227E-006
  1.806201381222361E-003  1.231854966904227E-006
[...]
 nber times 1st assigned=          65           0
 nber times 1st assigned=          66           0
 nber times 1st assigned=          67           0
 nber times 1st assigned=          68           0
 nber times 1st assigned=          69           0
 nber times 1st assigned=          70           0
 nber times 1st assigned=          71           0
 nber times 1st assigned=          72           0
 nber times 1st assigned=          73           0
 nber times 1st assigned=          74           0
 nber times 1st assigned=          75           0
 nber times 1st assigned=          76           0
 nber times 1st assigned=          77           0
 nber times 1st assigned=          78           0
 nber times 1st assigned=          79           0
 nber times 1st assigned=          80           0
 nber times 1st assigned=          81           0
 nber times 1st assigned=          82           0
 nber times 1st assigned=          83           0
 nber times 1st assigned=          84           0
 nber times 1st assigned=          85           0
 nber times 1st assigned=          86           0
 nber times 1st assigned=          87           0
 nber times 1st assigned=          88           0
 nber times 1st assigned=          89           0
 nber times 1st assigned=          90           0
 nber times 1st assigned=          91           0
 nber times 1st assigned=          92           0
 nber times 1st assigned=          93           0
 nber times 1st assigned=          94           0
 nber times 1st assigned=          95           0
 nber times 1st assigned=          96           0
 nber times 1st assigned=          97           0
 nber times 1st assigned=          98           0
 nber times 1st assigned=          99           0
 nber times 1st assigned=         100           0
 nber times 1st assigned=         101           0
 nber times 1st assigned=         102           0
 nber times 1st assigned=         103           0
 nber times 1st assigned=         104           0
 nber times 1st assigned=         105           0
 nber times 1st assigned=         106           0
 nber times 1st assigned=         107           0
 nber times 1st assigned=         108           0
 nber times 1st assigned=         109           0
 nber times 1st assigned=         110           0
 nber times 1st assigned=         111           0
 nber times 1st assigned=         112           0
 nber times 1st assigned=         113           0
 nber times 1st assigned=         114           0
 nber times 1st assigned=         115           0
 nber times 1st assigned=         116           0
 nber times 1st assigned=         117           0
 nber times 1st assigned=         118           0
 nber times 1st assigned=         119           0
 nber times 1st assigned=         120           0
 nber times 1st assigned=         121           0
 nber times 1st assigned=         122           0
 nber times 1st assigned=         123           0
 nber times 1st assigned=         124           0
 nber times 1st assigned=         125           0
 nber times 1st assigned=         126           0
 nber times 1st assigned=         127           0
 nber times 1st assigned=         128           0
 nber times 1st assigned=         129           0
 nber times 1st assigned=         130           0
 nber times 1st assigned=         131           0
 nber times 1st assigned=         132           0
 nber times 1st assigned=         133           0
 nber times 1st assigned=         134           0
 nber times 1st assigned=         135           0
 nber times 1st assigned=         136           0
 nber times 1st assigned=         137           0
 nber times 1st assigned=         138           0
 nber times 1st assigned=         139           0
 nber times 1st assigned=         140           0
 nber times 1st assigned=         141           0
 nber times 1st assigned=         142           0
 nber times 1st assigned=         143           0
 nber times 1st assigned=         144           0
 nber times 1st assigned=         145           0
 nber times 1st assigned=         146           0
 nber times 1st assigned=         147           0
 nber times 1st assigned=         148           0
 nber times 1st assigned=         149           0
 nber times 1st assigned=         150           0
 nber times 1st assigned=         151           0
 nber times 1st assigned=         152           0
 nber times 1st assigned=         153           0
 nber times 1st assigned=         154           0
 nber times 1st assigned=         155           0
 nber times 1st assigned=         156           0
 modes represented=   149.901121776754     
 p1=
   -0.   -0.    0.   -0.   -0.   -0.   -0.    0.   -0.    0.    0.    0.   -0.   -0.    1.   -0.    0.    0.  -10.    0.
    9.   -0.    0.   -1.   -2.    1.   -0.   -4.    0.   -0.    0.    0.   -0.   -0.    0.   -0.    0.   -0.    0.   -0.
    0.   -1.   -0.   -1.    0.   -0.   -3.   -4.    0.   -0.    1.    0.   -0.    0.    0.   -0.    0.    1.    0.    0.
    0.   -0.   -0.   -0.    0.   -0.    1.    0.    0.   -0.    0.   -0.   -0.    0.    0.    1.    0.    0.   -0.    0.
   -0.    0.   -1.    0.    0.   -1.   -0.    0.   -0.    0.   -0.    0.    0.   -0.   -0.    1.   -0.   -0.   -0.   -0.
   -1.    2.    0.    4.    0.   -0.    0.   -0.   -0.   -2.    0.   -2.    0.    0.    0.    0.   -0.    1.    0.   -0.
    0.   -0.   -0.   -0.    0.    0.    0.   -0.    3.    0.   -2.    0.    0.    0.    0.    0.   -0.    0.   -0.   -0.
   -0.   -0.   -0.    0.   -0.   -0.   -0.   -0.   -0.   -0.   -0.   -0.   -0.   -0.    0.    0.
 p2=
   -0.    0.   -0.   -0.   -0.    0.   -0.   -0.   -0.   -0.   -0.    0.   -0.   -0.    1.   -0.   -0.    0.    1.   10.
   -9.   -0.    0.    1.    0.   -1.   -2.   -4.   -0.    0.    0.   -0.    0.   -0.   -0.   -0.   -0.   -0.    0.    0.
    1.   -0.    1.    0.   -0.    0.    3.   -4.    0.   -0.   -1.    0.   -0.    0.   -0.    0.    0.    0.   -0.   -1.
   -0.   -0.   -0.   -0.    0.    0.    0.    0.   -1.    0.    0.   -0.    0.    0.    0.   -0.   -1.    0.   -0.   -0.
    0.    0.    1.    0.   -0.    0.    0.   -0.   -0.    0.   -0.   -0.    0.   -0.   -0.   -1.   -0.   -0.    0.    0.
   -2.   -4.    1.   -0.    0.   -0.    0.   -0.   -2.   -0.   -0.    0.   -0.    2.   -1.   -0.   -1.    0.   -0.   -0.
    1.   -0.   -0.   -0.    0.   -0.   -0.    0.    1.   -0.    0.   -0.   -0.   -4.   -0.    0.    0.   -0.    0.   -0.
   -0.   -0.   -0.    0.    0.    0.   -0.    0.    0.   -0.   -0.   -0.    0.   -0.   -0.   -0.

 Displacement: in terms of nc of 1 THEN of nc of 2

   1     freq=    -0. Q= -0.000 lam=    -0.0     freq=    -0. Q= -0.000 lam=    -0.0
   2     freq=    -0. Q= -0.000 lam=    -0.0     freq=    -0. Q= -0.000 lam=    -0.0
   3     freq=    -0. Q=  0.000 lam=    -0.0     freq=    -0. Q=  0.000 lam=    -0.0
   4     freq=     0. Q= -0.000 lam=     0.0     freq=    -0. Q= -0.000 lam=    -0.0
   5     freq=     0. Q= -0.000 lam=     0.0     freq=     0. Q= -0.000 lam=     0.0
   6     freq=     0. Q= -0.000 lam=     0.0     freq=     0. Q= -0.000 lam=     0.0
   7     freq=    23. Q= -0.004 lam=     0.0     freq=    24. Q= -0.006 lam=     0.0
   8     freq=    25. Q=  0.009 lam=     0.0     freq=    29. Q=  0.008 lam=     0.0
   9     freq=    51. Q= -0.002 lam=     0.0     freq=    51. Q= -0.003 lam=     0.0
  10     freq=    55. Q=  0.002 lam=     0.0     freq=    56. Q=  0.002 lam=     0.0
  11     freq=    64. Q=  0.000 lam=     0.0     freq=    64. Q=  0.001 lam=     0.0
  12     freq=    77. Q=  0.000 lam=     0.0     freq=    78. Q=  0.000 lam=     0.0
  13     freq=    85. Q= -0.001 lam=     0.0     freq=    87. Q= -0.002 lam=     0.0
  14     freq=    92. Q= -0.000 lam=     0.0     freq=    93. Q= -0.002 lam=     0.0
  15     freq=   108. Q=  0.041 lam=     0.1     freq=   105. Q=  0.039 lam=     0.1
  16     freq=   118. Q= -0.000 lam=     0.0     freq=   120. Q= -0.000 lam=     0.0
  17     freq=   160. Q=  0.000 lam=     0.0     freq=   168. Q=  0.001 lam=     0.0
  18     freq=   169. Q=  0.001 lam=     0.0     freq=   170. Q=  0.000 lam=     0.0
  19     freq=   187. Q= -0.570 lam=    30.3     freq=   186. Q= -0.030 lam=     0.1
  20     freq=   188. Q=  0.025 lam=     0.1     freq=   186. Q=  0.549 lam=    28.1
  21     freq=   203. Q=  0.514 lam=    26.8     freq=   203. Q=  0.542 lam=    29.8
  22     freq=   208. Q= -0.001 lam=     0.0     freq=   209. Q= -0.001 lam=     0.0
  23     freq=   235. Q=  0.002 lam=     0.0     freq=   235. Q=  0.002 lam=     0.0
  24     freq=   235. Q= -0.042 lam=     0.2     freq=   235. Q= -0.047 lam=     0.3
  25     freq=   272. Q= -0.126 lam=     2.2     freq=   257. Q= -0.001 lam=     0.0
  26     freq=   272. Q=  0.042 lam=     0.2     freq=   271. Q=  0.066 lam=     0.6
  27     freq=   274. Q= -0.000 lam=     0.0     freq=   271. Q= -0.110 lam=     1.6
  28     freq=   289. Q= -0.290 lam=    12.1     freq=   288. Q= -0.295 lam=    12.5
  29     freq=   316. Q=  0.001 lam=     0.0     freq=   303. Q=  0.001 lam=     0.0
  30     freq=   341. Q= -0.006 lam=     0.0     freq=   336. Q= -0.000 lam=     0.0
  31     freq=   356. Q=  0.000 lam=     0.0     freq=   338. Q=  0.008 lam=     0.0
  32     freq=   374. Q=  0.011 lam=     0.0     freq=   370. Q=  0.011 lam=     0.0
  33     freq=   393. Q= -0.002 lam=     0.0     freq=   391. Q= -0.002 lam=     0.0
  34     freq=   399. Q= -0.005 lam=     0.0     freq=   396. Q= -0.006 lam=     0.0
  35     freq=   415. Q=  0.029 lam=     0.2     freq=   413. Q=  0.031 lam=     0.2
  36     freq=   433. Q= -0.018 lam=     0.1     freq=   418. Q= -0.000 lam=     0.0
  37     freq=   437. Q=  0.025 lam=     0.1     freq=   433. Q=  0.029 lam=     0.2
  38     freq=   441. Q= -0.005 lam=     0.0     freq=   439. Q= -0.017 lam=     0.1
  39     freq=   447. Q=  0.000 lam=     0.0     freq=   442. Q=  0.004 lam=     0.0
  40     freq=   448. Q= -0.000 lam=     0.0     freq=   447. Q= -0.000 lam=     0.0
  41     freq=   474. Q=  0.000 lam=     0.0     freq=   474. Q=  0.089 lam=     1.9
  42     freq=   477. Q= -0.078 lam=     1.4     freq=   483. Q= -0.002 lam=     0.0
  43     freq=   481. Q= -0.001 lam=     0.0     freq=   484. Q= -0.131 lam=     4.1
  44     freq=   486. Q= -0.125 lam=     3.8     freq=   497. Q= -0.000 lam=     0.0
  45     freq=   517. Q=  0.009 lam=     0.0     freq=   507. Q=  0.000 lam=     0.0
  46     freq=   535. Q= -0.000 lam=     0.0     freq=   514. Q= -0.005 lam=     0.0
  47     freq=   542. Q= -0.238 lam=    15.4     freq=   543. Q= -0.269 lam=    19.7
  48     freq=   571. Q= -0.433 lam=    53.4     freq=   567. Q= -0.414 lam=    48.6
  49     freq=   578. Q=  0.012 lam=     0.0     freq=   567. Q=  0.040 lam=     0.5
  50     freq=   592. Q= -0.000 lam=     0.0     freq=   574. Q= -0.012 lam=     0.0
  51     freq=   603. Q=  0.054 lam=     0.9     freq=   593. Q=  0.059 lam=     1.0
  52     freq=   622. Q=  0.010 lam=     0.0     freq=   605. Q=  0.001 lam=     0.0
  53     freq=   632. Q= -0.000 lam=     0.0     freq=   615. Q= -0.012 lam=     0.0
  54     freq=   653. Q=  0.000 lam=     0.0     freq=   632. Q=  0.000 lam=     0.0
  55     freq=   667. Q=  0.000 lam=     0.0     freq=   652. Q=  0.001 lam=     0.0
  56     freq=   715. Q= -0.003 lam=     0.0     freq=   672. Q= -0.000 lam=     0.0
  57     freq=   717. Q=  0.015 lam=     0.1     freq=   700. Q=  0.000 lam=     0.0
  58     freq=   725. Q=  0.085 lam=     2.6     freq=   707. Q=  0.009 lam=     0.0
  59     freq=   740. Q=  0.000 lam=     0.0     freq=   710. Q=  0.010 lam=     0.0
  60     freq=   747. Q=  0.000 lam=     0.0     freq=   727. Q=  0.083 lam=     2.5
  61     freq=   763. Q=  0.001 lam=     0.0     freq=   753. Q=  0.001 lam=     0.0
  62     freq=   772. Q= -0.001 lam=     0.0     freq=   758. Q= -0.000 lam=     0.0
  63     freq=   782. Q= -0.001 lam=     0.0     freq=   759. Q= -0.001 lam=     0.0
  64     freq=   787. Q= -0.000 lam=     0.0     freq=   764. Q= -0.001 lam=     0.0
  65     freq=   803. Q=  0.047 lam=     0.9     freq=   799. Q=  0.045 lam=     0.8
  66     freq=   809. Q= -0.001 lam=     0.0     freq=   804. Q= -0.003 lam=     0.0
  67     freq=   824. Q=  0.082 lam=     2.8     freq=   809. Q=  0.000 lam=     0.0
  68     freq=   844. Q=  0.026 lam=     0.3     freq=   814. Q=  0.000 lam=     0.0
  69     freq=   864. Q=  0.000 lam=     0.0     freq=   822. Q=  0.091 lam=     3.4
  70     freq=   865. Q= -0.000 lam=     0.0     freq=   826. Q= -0.000 lam=     0.0
  71     freq=   870. Q=  0.000 lam=     0.0     freq=   832. Q=  0.001 lam=     0.0
  72     freq=   871. Q= -0.000 lam=     0.0     freq=   844. Q= -0.013 lam=     0.1
  73     freq=   895. Q= -0.013 lam=     0.1     freq=   888. Q= -0.011 lam=     0.1
  74     freq=   918. Q=  0.007 lam=     0.0     freq=   913. Q=  0.004 lam=     0.0
  75     freq=   945. Q=  0.001 lam=     0.0     freq=   926. Q=  0.019 lam=     0.2
  76     freq=   952. Q=  0.112 lam=     6.0     freq=   945. Q=  0.001 lam=     0.0
  77     freq=   957. Q=  0.001 lam=     0.0     freq=   952. Q=  0.107 lam=     5.5
  78     freq=   969. Q=  0.036 lam=     0.6     freq=   957. Q=  0.001 lam=     0.0
  79     freq=   992. Q= -0.000 lam=     0.0     freq=   974. Q= -0.000 lam=     0.0
  80     freq=   996. Q=  0.000 lam=     0.0     freq=   976. Q=  0.000 lam=     0.0
  81     freq=  1001. Q= -0.000 lam=     0.0     freq=   987. Q= -0.000 lam=     0.0
  82     freq=  1005. Q=  0.000 lam=     0.0     freq=   988. Q=  0.000 lam=     0.0
  83     freq=  1017. Q= -0.078 lam=     3.1     freq=  1014. Q= -0.066 lam=     2.2
  84     freq=  1053. Q=  0.000 lam=     0.0     freq=  1041. Q=  0.004 lam=     0.0
  85     freq=  1076. Q=  0.009 lam=     0.0     freq=  1067. Q=  0.008 lam=     0.0
  86     freq=  1093. Q= -0.083 lam=     3.7     freq=  1093. Q= -0.012 lam=     0.1
  87     freq=  1102. Q= -0.039 lam=     0.8     freq=  1102. Q= -0.002 lam=     0.0
  88     freq=  1153. Q=  0.003 lam=     0.0     freq=  1137. Q=  0.002 lam=     0.0
  89     freq=  1153. Q= -0.000 lam=     0.0     freq=  1153. Q= -0.000 lam=     0.0
  90     freq=  1156. Q=  0.000 lam=     0.0     freq=  1155. Q=  0.000 lam=     0.0
  91     freq=  1170. Q= -0.010 lam=     0.1     freq=  1160. Q= -0.005 lam=     0.0
  92     freq=  1180. Q=  0.004 lam=     0.0     freq=  1169. Q=  0.007 lam=     0.0
  93     freq=  1195. Q=  0.029 lam=     0.5     freq=  1186. Q=  0.038 lam=     0.9
  94     freq=  1206. Q= -0.004 lam=     0.0     freq=  1194. Q= -0.011 lam=     0.1
  95     freq=  1213. Q= -0.017 lam=     0.2     freq=  1196. Q= -0.024 lam=     0.3
  96     freq=  1218. Q=  0.088 lam=     4.7     freq=  1224. Q=  0.100 lam=     6.1
  97     freq=  1240. Q= -0.026 lam=     0.4     freq=  1233. Q= -0.014 lam=     0.1
  98     freq=  1241. Q= -0.014 lam=     0.1     freq=  1240. Q= -0.061 lam=     2.3
  99     freq=  1251. Q= -0.007 lam=     0.0     freq=  1243. Q= -0.005 lam=     0.0
 100     freq=  1267. Q= -0.004 lam=     0.0     freq=  1251. Q= -0.007 lam=     0.0
 101     freq=  1304. Q= -0.086 lam=     4.9     freq=  1296. Q= -0.310 lam=    62.2
 102     freq=  1309. Q=  0.228 lam=    34.1     freq=  1299. Q=  0.588 lam=   224.6
 103     freq=  1317. Q=  0.041 lam=     1.1     freq=  1316. Q=  0.185 lam=    22.6
 104     freq=  1326. Q=  0.611 lam=   247.8     freq=  1319. Q=  0.010 lam=     0.1
 105     freq=  1338. Q=  0.006 lam=     0.0     freq=  1351. Q=  0.004 lam=     0.0
 106     freq=  1358. Q= -0.068 lam=     3.1     freq=  1360. Q= -0.067 lam=     3.1
 107     freq=  1370. Q=  0.000 lam=     0.0     freq=  1366. Q=  0.005 lam=     0.0
 108     freq=  1375. Q= -0.071 lam=     3.4     freq=  1382. Q= -0.002 lam=     0.0
 109     freq=  1382. Q= -0.000 lam=     0.0     freq=  1383. Q= -0.250 lam=    43.1
 110     freq=  1388. Q= -0.296 lam=    60.6     freq=  1392. Q= -0.027 lam=     0.5
 111     freq=  1401. Q=  0.001 lam=     0.0     freq=  1400. Q=  0.000 lam=     0.0
 112     freq=  1407. Q= -0.376 lam=    99.2     freq=  1404. Q= -0.008 lam=     0.0
 113     freq=  1417. Q=  0.000 lam=     0.0     freq=  1416. Q=  0.021 lam=     0.3
 114     freq=  1429. Q=  0.016 lam=     0.2     freq=  1429. Q=  0.291 lam=    60.7
 115     freq=  1436. Q=  0.006 lam=     0.0     freq=  1435. Q=  0.081 lam=     4.7
 116     freq=  1444. Q=  0.034 lam=     0.8     freq=  1444. Q=  0.000 lam=     0.0
 117     freq=  1462. Q= -0.041 lam=     1.3     freq=  1449. Q= -0.082 lam=     4.9
 118     freq=  1479. Q=  0.229 lam=    38.9     freq=  1466. Q=  0.000 lam=     0.0
 119     freq=  1485. Q=  0.000 lam=     0.0     freq=  1467. Q=  0.005 lam=     0.0
 120     freq=  1491. Q= -0.002 lam=     0.0     freq=  1485. Q= -0.000 lam=     0.0
 121     freq=  1497. Q=  0.001 lam=     0.0     freq=  1493. Q=  0.206 lam=    31.5
 122     freq=  1498. Q= -0.010 lam=     0.1     freq=  1496. Q= -0.003 lam=     0.0
 123     freq=  1505. Q= -0.000 lam=     0.0     freq=  1498. Q= -0.037 lam=     1.0
 124     freq=  1506. Q= -0.011 lam=     0.1     freq=  1505. Q= -0.000 lam=     0.0
 125     freq=  1508. Q=  0.021 lam=     0.3     freq=  1506. Q=  0.029 lam=     0.6
 126     freq=  1523. Q=  0.001 lam=     0.0     freq=  1511. Q=  0.009 lam=     0.1
 127     freq=  1543. Q=  0.002 lam=     0.0     freq=  1523. Q=  0.000 lam=     0.0
 128     freq=  1561. Q= -0.001 lam=     0.0     freq=  1547. Q= -0.003 lam=     0.0
 129     freq=  1604. Q=  0.497 lam=   198.3     freq=  1555. Q=  0.104 lam=     8.4
 130     freq=  1615. Q=  0.064 lam=     3.4     freq=  1570. Q=  0.001 lam=     0.0
 131     freq=  1620. Q= -0.321 lam=    83.4     freq=  1580. Q= -0.000 lam=     0.0
 132     freq=  1632. Q=  0.004 lam=     0.0     freq=  1598. Q=  0.004 lam=     0.0
 133     freq=  1632. Q=  0.010 lam=     0.1     freq=  1599. Q=  0.004 lam=     0.0
 134     freq=  1649. Q=  0.002 lam=     0.0     freq=  1622. Q=  0.617 lam=   308.3
 135     freq=  1713. Q=  0.001 lam=     0.0     freq=  1685. Q=  0.000 lam=     0.0
 136     freq=  1722. Q=  0.001 lam=     0.0     freq=  1696. Q=  0.000 lam=     0.0
 137     freq=  1751. Q= -0.023 lam=     0.5     freq=  1724. Q= -0.038 lam=     1.2
 138     freq=  1759. Q=  0.038 lam=     1.3     freq=  1734. Q=  0.068 lam=     4.1
 139     freq=  3035. Q= -0.000 lam=     0.0     freq=  3034. Q= -0.000 lam=     0.0
 140     freq=  3039. Q= -0.001 lam=     0.0     freq=  3038. Q= -0.001 lam=     0.0
 141     freq=  3062. Q= -0.001 lam=     0.0     freq=  3061. Q= -0.001 lam=     0.0
 142     freq=  3092. Q= -0.000 lam=     0.0     freq=  3092. Q= -0.000 lam=     0.0
 143     freq=  3096. Q= -0.001 lam=     0.0     freq=  3095. Q= -0.001 lam=     0.0
 144     freq=  3113. Q=  0.001 lam=     0.0     freq=  3112. Q=  0.001 lam=     0.0
 145     freq=  3121. Q= -0.000 lam=     0.0     freq=  3120. Q= -0.000 lam=     0.0
 146     freq=  3133. Q= -0.000 lam=     0.0     freq=  3132. Q= -0.000 lam=     0.0
 147     freq=  3144. Q= -0.000 lam=     0.0     freq=  3143. Q= -0.000 lam=     0.0
 148     freq=  3183. Q= -0.000 lam=     0.0     freq=  3182. Q= -0.000 lam=     0.0
 149     freq=  3194. Q= -0.001 lam=     0.0     freq=  3198. Q= -0.001 lam=     0.0
 150     freq=  3194. Q= -0.000 lam=     0.0     freq=  3198. Q= -0.000 lam=     0.0
 151     freq=  3201. Q= -0.004 lam=     0.0     freq=  3204. Q= -0.002 lam=     0.0
 152     freq=  3201. Q= -0.002 lam=     0.0     freq=  3205. Q= -0.004 lam=     0.0
 153     freq=  3208. Q= -0.000 lam=     0.0     freq=  3213. Q= -0.000 lam=     0.0
 154     freq=  3208. Q= -0.000 lam=     0.0     freq=  3213. Q= -0.000 lam=     0.0
 155     freq=  3218. Q=  0.006 lam=     0.1     freq=  3224. Q=  0.001 lam=     0.0
 156     freq=  3218. Q=  0.012 lam=     0.3     freq=  3224. Q=  0.009 lam=     0.1

 total reorg energy (cm**-1, kcal/mol)=      958.      957.      2.74      2.74
 Nber of molecules processed=           2
