 Enter ifcurve (0=recti, 1=orth curvi, 2=apprx curvi, -1 = skip
 And atom ordering flag, 0= never changes, 1= use the first order thenceforth,
  2= deduce it (does read on fail), 3= always read it
 Reading file: 
 ./IDT-A_3_C0S2.log                                                             
                                          
  Entering Gaussian System, Link 0=g16                                          
  
 Gaussian format, type: g94, g98, g03= F F F
  #P Geom=AllCheck Guess=TCheck SCRF=Check GenChk RB3LYP TD(FC,Read)/6-3    
 energy type= TD      
 Original G94 input coords:
  6  3.239211 -1.095419 -0.339210
  6  3.029738  0.058107  0.648352
  6  3.822882 -0.107603  1.949603
  7  3.274170  1.385668  0.013081
  6  4.563724  1.695801 -0.448736
  8  5.481711  0.891012 -0.335793
  6  4.754651  3.016433 -1.065978
  6  6.017667  3.372449 -1.540243
  6  6.231114  4.606583 -2.124691
  6  5.191963  5.553555 -2.267130
  6  5.402742  6.849357 -2.874987
  6  6.671307  7.252354 -3.362439
  6  6.864434  8.483418 -3.938961
  6  5.801515  9.394538 -4.068983
  6  6.062370 10.674041 -4.684559
  8  7.147951 11.054195 -5.096329
  7  4.924236 11.571146 -4.780780
  6  5.129156 12.829404 -5.368877
  6  4.580837 13.995043 -4.777640
  6  4.786066 15.226339 -5.346341
  6  5.540243 15.351679 -6.546583
  6  5.743153 16.596410 -7.127946
  6  5.923834 17.695144 -7.641226
  6  6.129260 18.949224 -8.228777
  6  6.916366 19.073235 -9.397965
  6  7.106473 20.328056 -9.947467
  6  6.521448 21.454951 -9.368740
  6  5.733791 21.364901 -8.202440
  6  5.117996 22.541981 -7.588172
  6  3.973812 22.601858 -6.817768
  6  3.670842 23.911681 -6.387704
  6  4.579154 24.848921 -6.826480
 16  5.836392 24.142915 -7.779916
  6  4.231761 26.177830 -6.364914
  6  4.842738 27.424472 -6.547287
  6  4.249937 28.530899 -5.963503
  6  3.058567 28.393180 -5.205565
  6  2.448831 27.146880 -5.023760
  6  3.042487 26.039031 -5.608012
  6  2.580465 24.575329 -5.560739
  6  1.192111 24.403662 -6.214428
  6  2.562017 24.038382 -4.113284
  6  2.708298 29.721233 -4.742688
 16  1.449211 30.433934 -3.790884
  6  2.174313 32.008816 -3.989801
  6  3.316465 31.972585 -4.745742
  6  3.620305 30.655611 -5.176889
  6  4.709423 29.995185 -6.007176
  6  6.098923 30.167248 -5.356030
  6  4.724670 30.536513 -7.453127
  6  5.555940 20.099339 -7.638694
  6  6.082867 14.177520 -7.139950
  6  5.887148 12.949646 -6.560363
  6  3.588439 11.252965 -4.308136
  8  2.698311 12.075765 -4.461565
  6  3.429005  9.948435 -3.710875
  6  2.157632  9.577341 -3.238839
  6  1.951225  8.349787 -2.659512
  6  3.001591  7.408984 -2.514436
  6  2.791825  6.114913 -1.902905
  6  1.532597  5.707209 -1.407569
  6  1.344517  4.467962 -0.825593
  6  2.403847  3.567134 -0.706295
  6  2.167787  2.258488 -0.081993
  8  1.066642  1.927701  0.340627
  6  3.682326  3.926818 -1.185624
  6  3.890521  5.209851 -1.790635
  6  4.304365  7.758065 -2.990507
  6  4.513745  9.046656 -3.596249
  1  2.911860 -2.030162  0.125670
  1  4.286027 -1.192426 -0.623985
  1  2.639477 -0.942393 -1.240390
  1  1.972338  0.097075  0.901170
  1  4.893950 -0.164380  1.760157
  1  3.503853 -1.026587  2.450290
  1  3.626694  0.727580  2.627254
  1  6.822766  2.655997 -1.437102
  1  7.225885  4.838700 -2.477892
  1  7.515797  6.583404 -3.282506
  1  7.839459  8.778212 -4.305372
  1  4.008173 13.904895 -3.869655
  1  4.386526 16.117345 -4.879478
  1  7.358699 18.191289 -9.841745
  1  7.704861 20.440075-10.843316
  1  6.665452 22.421403 -9.836798
  1  3.368797 21.729581 -6.605666
  1  5.753775 27.515251 -7.129517
  1  1.538072 27.056746 -4.441365
  1  1.191174 24.781016 -7.239033
  1  0.430271 24.946313 -5.648852
  1  0.905342 23.348519 -6.236004
  1  3.538600 24.154348 -3.638825
  1  2.296529 22.977495 -4.100779
  1  1.823481 24.575085 -3.512257
  1  1.703661 32.864385 -3.530273
  1  3.897901 32.856779 -4.971619
  1  6.102774 29.784697 -4.333362
  1  6.379317 31.223743 -5.327834
  1  6.863213 29.632171 -5.926284
  1  3.748119 30.417195 -7.926800
  1  5.467024 30.007708 -8.057228
  1  4.981596 31.599302 -7.460322
  1  4.988053 19.984437 -6.724970
  1  6.642272 14.263515 -8.062507
  1  6.301125 12.063764 -7.012376
  1  1.345513 10.285301 -3.344128
  1  0.958400  8.105879 -2.310439
  1  0.683239  6.371907 -1.477972
  1  0.374150  4.168899 -0.450132
 nber atoms=         109
  Total Energy, E(TD-HF/TD-DFT) =  -3556.10309158                               
  
          32          49 "  -3556.10309158"
After scan for Atom:   Atom  AN      X      Y      Z        X      Y      Z        X      Y      Z   
After scan for Atom:   Atom  AN      X      Y      Z        X      Y      Z        X      Y      Z   
After scan for Atom:   Atom  AN      X      Y      Z        X      Y      Z        X      Y      Z   
After scan for Atom:   Atom  AN      X      Y      Z        X      Y      Z        X      Y      Z   
After scan for Atom:   Atom  AN      X      Y      Z        X      Y      Z        X      Y      Z   
After scan for Atom:   Atom  AN      X      Y      Z        X      Y      Z        X      Y      Z   
After scan for Atom:   Atom  AN      X      Y      Z        X      Y      Z        X      Y      Z   
After scan for Atom:   Atom  AN      X      Y      Z        X      Y      Z        X      Y      Z   
After scan for Atom:   Atom  AN      X      Y      Z        X      Y      Z        X      Y      Z   
After scan for Atom:   Atom  AN      X      Y      Z        X      Y      Z        X      Y      Z   
After scan for Atom:   Atom  AN      X      Y      Z        X      Y      Z        X      Y      Z   
After scan for Atom:   Atom  AN      X      Y      Z        X      Y      Z        X      Y      Z   
After scan for Atom:   Atom  AN      X      Y      Z        X      Y      Z        X      Y      Z   
After scan for Atom:   Atom  AN      X      Y      Z        X      Y      Z        X      Y      Z   
After scan for Atom:   Atom  AN      X      Y      Z        X      Y      Z        X      Y      Z   
After scan for Atom:   Atom  AN      X      Y      Z        X      Y      Z        X      Y      Z   
After scan for Atom:   Atom  AN      X      Y      Z        X      Y      Z        X      Y      Z   
After scan for Atom:   Atom  AN      X      Y      Z        X      Y      Z        X      Y      Z   
After scan for Atom:   Atom  AN      X      Y      Z        X      Y      Z        X      Y      Z   
After scan for Atom:   Atom  AN      X      Y      Z        X      Y      Z        X      Y      Z   
After scan for Atom:   Atom  AN      X      Y      Z        X      Y      Z        X      Y      Z   
After scan for Atom:   Atom  AN      X      Y      Z        X      Y      Z        X      Y      Z   
After scan for Atom:   Atom  AN      X      Y      Z        X      Y      Z        X      Y      Z   
After scan for Atom:   Atom  AN      X      Y      Z        X      Y      Z        X      Y      Z   
After scan for Atom:   Atom  AN      X      Y      Z        X      Y      Z        X      Y      Z   
After scan for Atom:   Atom  AN      X      Y      Z        X      Y      Z        X      Y      Z   
After scan for Atom:   Atom  AN      X      Y      Z        X      Y      Z        X      Y      Z   
After scan for Atom:   Atom  AN      X      Y      Z        X      Y      Z        X      Y      Z   
After scan for Atom:   Atom  AN      X      Y      Z        X      Y      Z        X      Y      Z   
After scan for Atom:   Atom  AN      X      Y      Z        X      Y      Z        X      Y      Z   
After scan for Atom:   Atom  AN      X      Y      Z        X      Y      Z        X      Y      Z   
After scan for Atom:   Atom  AN      X      Y      Z        X      Y      Z        X      Y      Z   
After scan for Atom:   Atom  AN      X      Y      Z        X      Y      Z        X      Y      Z   
After scan for Atom:   Atom  AN      X      Y      Z        X      Y      Z        X      Y      Z   
After scan for Atom:   Atom  AN      X      Y      Z        X      Y      Z        X      Y      Z   
After scan for Atom:   Atom  AN      X      Y      Z        X      Y      Z        X      Y      Z   
After scan for Atom:   Atom  AN      X      Y      Z        X      Y      Z        X      Y      Z   
After scan for Atom:   Atom  AN      X      Y      Z        X      Y      Z        X      Y      Z   
After scan for Atom:   Atom  AN      X      Y      Z        X      Y      Z        X      Y      Z   
After scan for Atom:   Atom  AN      X      Y      Z        X      Y      Z        X      Y      Z   
After scan for Atom:   Atom  AN      X      Y      Z        X      Y      Z        X      Y      Z   
After scan for Atom:   Atom  AN      X      Y      Z        X      Y      Z        X      Y      Z   
After scan for Atom:   Atom  AN      X      Y      Z        X      Y      Z        X      Y      Z   
After scan for Atom:   Atom  AN      X      Y      Z        X      Y      Z        X      Y      Z   
After scan for Atom:   Atom  AN      X      Y      Z        X      Y      Z        X      Y      Z   
After scan for Atom:   Atom  AN      X      Y      Z        X      Y      Z        X      Y      Z   
After scan for Atom:   Atom  AN      X      Y      Z        X      Y      Z        X      Y      Z   
After scan for Atom:   Atom  AN      X      Y      Z        X      Y      Z        X      Y      Z   
After scan for Atom:   Atom  AN      X      Y      Z        X      Y      Z        X      Y      Z   
After scan for Atom:   Atom  AN      X      Y      Z        X      Y      Z        X      Y      Z   
After scan for Atom:   Atom  AN      X      Y      Z        X      Y      Z        X      Y      Z   
After scan for Atom:   Atom  AN      X      Y      Z        X      Y      Z        X      Y      Z   
After scan for Atom:   Atom  AN      X      Y      Z        X      Y      Z        X      Y      Z   
After scan for Atom:   Atom  AN      X      Y      Z        X      Y      Z        X      Y      Z   
After scan for Atom:   Atom  AN      X      Y      Z        X      Y      Z        X      Y      Z   
After scan for Atom:   Atom  AN      X      Y      Z        X      Y      Z        X      Y      Z   
After scan for Atom:   Atom  AN      X      Y      Z        X      Y      Z        X      Y      Z   
After scan for Atom:   Atom  AN      X      Y      Z        X      Y      Z        X      Y      Z   
After scan for Atom:   Atom  AN      X      Y      Z        X      Y      Z        X      Y      Z   
After scan for Atom:   Atom  AN      X      Y      Z        X      Y      Z        X      Y      Z   
After scan for Atom:   Atom  AN      X      Y      Z        X      Y      Z        X      Y      Z   
After scan for Atom:   Atom  AN      X      Y      Z        X      Y      Z        X      Y      Z   
After scan for Atom:   Atom  AN      X      Y      Z        X      Y      Z        X      Y      Z   
After scan for Atom:   Atom  AN      X      Y      Z        X      Y      Z        X      Y      Z   
After scan for Atom:   Atom  AN      X      Y      Z        X      Y      Z        X      Y      Z   
After scan for Atom:   Atom  AN      X      Y      Z        X      Y      Z        X      Y      Z   
After scan for Atom:   Atom  AN      X      Y      Z        X      Y      Z        X      Y      Z   
After scan for Atom:   Atom  AN      X      Y      Z        X      Y      Z        X      Y      Z   
After scan for Atom:   Atom  AN      X      Y      Z        X      Y      Z        X      Y      Z   
After scan for Atom:   Atom  AN      X      Y      Z        X      Y      Z        X      Y      Z   
After scan for Atom:   Atom  AN      X      Y      Z        X      Y      Z        X      Y      Z   
After scan for Atom:   Atom  AN      X      Y      Z        X      Y      Z        X      Y      Z   
After scan for Atom:   Atom  AN      X      Y      Z        X      Y      Z        X      Y      Z   
After scan for Atom:   Atom  AN      X      Y      Z        X      Y      Z        X      Y      Z   
After scan for Atom:   Atom  AN      X      Y      Z        X      Y      Z        X      Y      Z   
After scan for Atom:   Atom  AN      X      Y      Z        X      Y      Z        X      Y      Z   
After scan for Atom:   Atom  AN      X      Y      Z        X      Y      Z        X      Y      Z   
After scan for Atom:   Atom  AN      X      Y      Z        X      Y      Z        X      Y      Z   
After scan for Atom:   Atom  AN      X      Y      Z        X      Y      Z        X      Y      Z   
After scan for Atom:   Atom  AN      X      Y      Z        X      Y      Z        X      Y      Z   
After scan for Atom:   Atom  AN      X      Y      Z        X      Y      Z        X      Y      Z   
After scan for Atom:   Atom  AN      X      Y      Z        X      Y      Z        X      Y      Z   
After scan for Atom:   Atom  AN      X      Y      Z        X      Y      Z        X      Y      Z   
After scan for Atom:   Atom  AN      X      Y      Z        X      Y      Z        X      Y      Z   
After scan for Atom:   Atom  AN      X      Y      Z        X      Y      Z        X      Y      Z   
After scan for Atom:   Atom  AN      X      Y      Z        X      Y      Z        X      Y      Z   
After scan for Atom:   Atom  AN      X      Y      Z        X      Y      Z        X      Y      Z   
After scan for Atom:   Atom  AN      X      Y      Z        X      Y      Z        X      Y      Z   
After scan for Atom:   Atom  AN      X      Y      Z        X      Y      Z        X      Y      Z   
After scan for Atom:   Atom  AN      X      Y      Z        X      Y      Z        X      Y      Z   
After scan for Atom:   Atom  AN      X      Y      Z        X      Y      Z        X      Y      Z   
After scan for Atom:   Atom  AN      X      Y      Z        X      Y      Z        X      Y      Z   
After scan for Atom:   Atom  AN      X      Y      Z        X      Y      Z        X      Y      Z   
After scan for Atom:   Atom  AN      X      Y      Z        X      Y      Z        X      Y      Z   
After scan for Atom:   Atom  AN      X      Y      Z        X      Y      Z        X      Y      Z   
After scan for Atom:   Atom  AN      X      Y      Z        X      Y      Z        X      Y      Z   
After scan for Atom:   Atom  AN      X      Y      Z        X      Y      Z        X      Y      Z   
After scan for Atom:   Atom  AN      X      Y      Z        X      Y      Z        X      Y      Z   
After scan for Atom:   Atom  AN      X      Y      Z        X      Y      Z        X      Y      Z   
After scan for Atom:   Atom  AN      X      Y      Z        X      Y      Z        X      Y      Z   
After scan for Atom:   Atom  AN      X      Y      Z        X      Y      Z        X      Y      Z   
After scan for Atom:   Atom  AN      X      Y      Z        X      Y      Z        X      Y      Z   
After scan for Atom:   Atom  AN      X      Y      Z        X      Y      Z        X      Y      Z   
After scan for Atom:   Atom  AN      X      Y      Z        X      Y      Z        X      Y      Z   
After scan for Atom:   Atom  AN      X      Y      Z        X      Y      Z        X      Y      Z   
After scan for Atom:   Atom  AN      X      Y      Z        X      Y      Z        X      Y      Z   
After scan for Atom:   Atom  AN      X      Y      Z        X      Y      Z        X      Y      Z   
 g94    frequencies=
     0.0    0.0    0.0    0.0    0.0    0.0    4.6    6.5    9.4    9.7
    18.1   23.3   26.0   30.7   45.1   49.5   52.9   55.8   61.4   65.4
    71.2   78.0   89.0   93.7   98.9  102.3  105.4  107.7  118.3  126.2
   136.1  141.7  149.0  157.4  163.8  169.0  174.0  193.7  196.0  205.1
   209.4  212.0  215.2  224.5  234.5  235.3  236.3  248.1  248.5  248.6
   252.2  260.9  262.0  277.7  282.5  288.0  292.4  298.2  303.9  316.9
   317.8  332.9  339.3  343.7  361.3  368.8  378.4  387.2  389.3  397.3
   410.2  412.0  417.5  420.4  427.7  434.4  435.5  442.9  447.4  452.8
   453.7  461.9  464.3  468.7  483.6  495.9  496.9  501.7  502.5  502.8
   504.5  513.6  516.4  533.1  539.8  552.4  568.3  572.2  575.3  576.8
   579.4  591.5  591.9  597.5  622.7  623.6  625.8  632.1  637.5  657.2
   659.2  660.8  666.8  667.5  684.6  690.6  692.9  708.0  713.4  719.6
   724.1  729.6  731.6  741.5  742.3  746.9  747.8  756.5  761.4  768.8
   785.4  785.7  801.3  803.7  807.3  808.7  809.5  815.5  817.2  820.4
   825.7  831.7  832.3  837.2  838.8  846.4  857.5  860.4  862.7  886.6
   893.0  893.3  900.4  904.1  904.4  913.7  929.4  936.1  943.4  949.0
   949.3  955.6  971.0  972.1  974.1  976.6  978.1  983.1  984.2  985.6
   986.9  987.4 1002.7 1005.4 1005.9 1015.0 1030.3 1031.0 1031.3 1034.2
  1068.2 1077.4 1078.6 1093.6 1105.0 1108.9 1116.2 1144.4 1145.9 1153.8
  1155.3 1155.6 1156.4 1157.3 1159.5 1163.9 1168.7 1174.5 1188.4 1197.4
  1199.7 1203.6 1211.8 1218.5 1226.7 1236.0 1236.4 1242.4 1244.3 1246.4
  1253.2 1261.3 1267.9 1277.9 1284.1 1289.6 1298.5 1305.3 1316.7 1320.0
  1328.5 1344.0 1352.4 1356.0 1359.2 1360.2 1363.2 1370.5 1376.2 1384.3
  1392.0 1394.1 1394.6 1397.6 1398.6 1399.4 1409.9 1411.1 1422.6 1424.7
  1427.4 1431.8 1437.6 1449.8 1461.6 1464.6 1469.5 1470.8 1477.6 1483.4
  1484.0 1484.5 1484.7 1489.5 1489.6 1489.7 1495.8 1500.5 1504.2 1505.4
  1506.8 1506.9 1507.3 1508.6 1511.2 1523.7 1528.6 1534.9 1541.0 1556.2
  1558.6 1574.5 1580.5 1585.7 1591.8 1594.3 1605.0 1613.6 1618.7 1630.2
  1638.9 1652.9 1681.8 1701.3 1717.3 1743.1 2227.0 3025.3 3026.1 3028.7
  3029.4 3030.2 3033.4 3085.9 3087.9 3089.1 3089.2 3093.2 3094.4 3105.2
  3105.8 3106.9 3107.6 3108.8 3131.5 3141.2 3165.3 3168.2 3182.6 3191.2
  3191.4 3195.5 3195.9 3197.7 3197.9 3201.5 3201.7 3202.3 3206.3 3207.3
  3207.5 3210.8 3221.5 3221.7 3243.8 3259.9 3260.3
 g94    symmetries=
                                                 A      A      A      A
       A      A      A      A      A      A      A      A      A      A
       A      A      A      A      A      A      A      A      A      A
       A      A      A      A      A      A      A      A      A      A
       A      A      A      A      A      A      A      A      A      A
       A      A      A      A      A      A      A      A      A      A
       A      A      A      A      A      A      A      A      A      A
       A      A      A      A      A      A      A      A      A      A
       A      A      A      A      A      A      A      A      A      A
       A      A      A      A      A      A      A      A      A      A
       A      A      A      A      A      A      A      A      A      A
       A      A      A      A      A      A      A      A      A      A
       A      A      A      A      A      A      A      A      A      A
       A      A      A      A      A      A      A      A      A      A
       A      A      A      A      A      A      A      A      A      A
       A      A      A      A      A      A      A      A      A      A
       A      A      A      A      A      A      A      A      A      A
       A      A      A      A      A      A      A      A      A      A
       A      A      A      A      A      A      A      A      A      A
       A      A      A      A      A      A      A      A      A      A
       A      A      A      A      A      A      A      A      A      A
       A      A      A      A      A      A      A      A      A      A
       A      A      A      A      A      A      A      A      A      A
       A      A      A      A      A      A      A      A      A      A
       A      A      A      A      A      A      A      A      A      A
       A      A      A      A      A      A      A      A      A      A
       A      A      A      A      A      A      A      A      A      A
       A      A      A      A      A      A      A      A      A      A
       A      A      A      A      A      A      A      A      A      A
       A      A      A      A      A      A      A      A      A      A
       A      A      A      A      A      A      A      A      A      A
       A      A      A      A      A      A      A      A      A      A
       A      A      A      A      A      A      A
 atomic masses:
 12.0000 12.0000 12.0000 14.0031 12.0000 15.9949 12.0000 12.0000 12.0000 12.0000
 12.0000 12.0000 12.0000 12.0000 12.0000 15.9949 14.0031 12.0000 12.0000 12.0000
 12.0000 12.0000 12.0000 12.0000 12.0000 12.0000 12.0000 12.0000 12.0000 12.0000
 12.0000 12.0000 31.9721 12.0000 12.0000 12.0000 12.0000 12.0000 12.0000 12.0000
 12.0000 12.0000 12.0000 31.9721 12.0000 12.0000 12.0000 12.0000 12.0000 12.0000
 12.0000 12.0000 12.0000 12.0000 15.9949 12.0000 12.0000 12.0000 12.0000 12.0000
 12.0000 12.0000 12.0000 12.0000 15.9949 12.0000 12.0000 12.0000 12.0000  1.0078
  1.0078  1.0078  1.0078  1.0078  1.0078  1.0078  1.0078  1.0078  1.0078  1.0078
  1.0078  1.0078  1.0078  1.0078  1.0078  1.0078  1.0078  1.0078  1.0078  1.0078
  1.0078  1.0078  1.0078  1.0078  1.0078  1.0078  1.0078  1.0078  1.0078  1.0078
  1.0078  1.0078  1.0078  1.0078  1.0078  1.0078  1.0078  1.0078  1.0078
 looking for force constants in 
 ./IDT-A_3_C0S2.fchk                                                            
  
 file doesnt exist
 NO FORCES: 
 ./IDT-A_3_C0S2.log                                                             
                                          
 g94-fc frequencies=

 at 99999: n3=           0
 symm operator            1 :  F  nop=           0
 symm operator            2 :  F  nop=           0
 symm operator            3 :  F  nop=           0
 symm operator            4 :  F  nop=           0
 symm operator            5 :  F  nop=           0
 symm operator            6 :  F  nop=           0
 symm operator            7 :  F  nop=           0
 The point group of the molecule is  C1
 Symmetry rotation matrix:
   1.00000   0.00000   0.00000
   0.00000   1.00000   0.00000
   0.00000   0.00000   1.00000

 highest evec of mol 1

 generating redundant internal coords
         300        3600         109
 Adding extra bonds for z output only
           6           6           6           7           6           8
           6           6           6           6           6           6
           6           6           6           8           7           6
           6           6           6           6           6           6
           6           6           6           6           6           6
           6           6          16           6           6           6
           6           6           6           6           6           6
           6          16           6           6           6           6
           6           6           6           6           6           6
           8           6           6           6           6           6
           6           6           6           6           8           6
           6           6           6           1           1           1
           1           1           1           1           1           1
           1           1           1           1           1           1
           1           1           1           1           1           1
           1           1           1           1           1           1
           1           1           1           1           1           1
           1           1           1           1           1           1
           1
 search for int coords
   1 str   2   1   1.533
   2 str   3   2   1.533
   3 str   4   2   1.492
   4 str   5   4   1.404
   5 str   6   5   1.226
   6 str   7   5   1.470
   7 str   8   7   1.395
   8 str   9   8   1.382
   9 str  10   9   1.413
  10 str  11  10   1.447
  11 str  12  11   1.417
  12 str  13  12   1.373
  13 str  14  13   1.406
  14 str  15  14   1.444
  15 str  16  15   1.222
  16 str  17  15   1.452
  17 str  18  17   1.404
  18 str  19  18   1.417
  19 str  20  19   1.372
  20 str  21  20   1.423
  21 str  22  21   1.389
  22 str  23  22   1.226
  23 str  24  23   1.400
  24 str  25  24   1.415
  25 str  26  25   1.383
  26 str  27  26   1.395
  27 str  28  27   1.410
  28 str  29  28   1.464
  29 str  30  29   1.381
  30 str  31  30   1.412
  31 str  32  31   1.377
  32 str  33  29   1.765
  33 str  33  32   1.729
  34 str  34  32   1.449
  35 str  35  34   1.400
  36 str  36  35   1.384
  37 str  37  36   1.419
  38 str  38  37   1.399
  39 str  39  34   1.417
  40 str  39  38   1.386
  41 str  40  31   1.521
  42 str  40  39   1.536
  43 str  41  40   1.544
  44 str  42  40   1.544
  45 str  43  37   1.449
  46 str  44  43   1.732
  47 str  45  44   1.745
  48 str  46  45   1.370
  49 str  47  43   1.376
  50 str  47  46   1.419
  51 str  48  36   1.535
  52 str  48  47   1.520
  53 str  49  48   1.544
  54 str  50  48   1.544
  55 str  51  24   1.414
  56 str  51  28   1.397
  57 str  52  21   1.423
  58 str  53  18   1.417
  59 str  53  52   1.372
  60 str  54  17   1.452
  61 str  55  54   1.222
  62 str  56  54   1.444
  63 str  57  56   1.406
  64 str  58  57   1.373
  65 str  59  58   1.418
  66 str  60  59   1.447
  67 str  61  60   1.413
  68 str  62  61   1.382
  69 str  63  62   1.396
  70 str  64   4   1.412
  71 str  64  63   1.469
  72 str  65  64   1.225
  73 str  66   7   1.412
  74 str  66  63   1.412
  75 str  67  10   1.428
  76 str  67  60   1.428
  77 str  67  66   1.434
  78 str  68  11   1.430
  79 str  68  59   1.430
  80 str  69  14   1.415
  81 str  69  56   1.415
  82 str  69  68   1.439
  83 str  70   1   1.094
  84 str  71   1   1.089
  85 str  72   1   1.093
  86 str  73   2   1.088
  87 str  74   3   1.089
  88 str  75   3   1.094
  89 str  76   3   1.093
  90 str  77   8   1.083
  91 str  78   9   1.081
  92 str  79  12   1.080
  93 str  80  13   1.083
  94 str  81  19   1.077
  95 str  82  20   1.082
  96 str  83  25   1.082
  97 str  84  26   1.083
  98 str  85  27   1.083
  99 str  86  30   1.083
 100 str  87  35   1.085
 101 str  88  38   1.085
 102 str  89  41   1.092
 103 str  90  41   1.093
 104 str  91  41   1.094
 105 str  92  42   1.092
 106 str  93  42   1.094
 107 str  94  42   1.093
 108 str  95  45   1.079
 109 str  96  46   1.082
 110 str  97  49   1.092
 111 str  98  49   1.093
 112 str  99  49   1.093
 113 str 100  50   1.092
 114 str 101  50   1.093
 115 str 102  50   1.093
 116 str 103  51   1.082
 117 str 104  52   1.082
 118 str 105  53   1.077
 119 str 106  57   1.083
 120 str 107  58   1.080
 121 str 108  61   1.081
 122 str 109  62   1.083
 nber stretches=         122
 123 ben   1   2   3
 124 prop tor   1   2   3  74
 125 prop tor   1   2   3  75
 126 prop tor   1   2   3  76
 127 ben   1   2   4
 128 prop tor   1   2   4   5
 129 prop tor   1   2   4  64
 130 ben   1   2  73
 131 ben   2   1  70
 132 ben   2   1  71
 133 ben   2   1  72
 134 ben   2   3  74
 135 ben   2   3  75
 136 ben   2   3  76
 137 ben   2   4   5
 138 prop tor   2   4   5   6
 139 prop tor   2   4   5   7
 140 ben   2   4  64
 141 prop tor   2   4  64  63
 142 prop tor   2   4  64  65
 143 ben   3   2   4
 144 prop tor   3   2   4   5
 145 prop tor   3   2   4  64
 146 ben   3   2  73
 147 prop tor   4   2   3  74
 148 prop tor   4   2   3  75
 149 prop tor   4   2   3  76
 150 ben   4   2  73
 151 ben   4   5   6
 152 ben   4   5   7
 153 prop tor   4   5   7   8
 154 prop tor   4   5   7  66
 155 ben   4  64  63
 156 ben   4  64  65
 157 ben   5   4  64
 158 prop tor   5   4  64  63
 159 prop tor   5   4  64  65
 160 ben   5   7   8
 161 prop tor   5   7   8   9
 162 prop tor   5   7   8  77
 163 ben   5   7  66
 164 prop tor   5   7  66  63
 165 prop tor   5   7  66  67
 166 ben   6   5   7
 167 prop tor   6   5   7   8
 168 prop tor   6   5   7  66
 169 ben   7   8   9
 170 prop tor   7   8   9  10
 171 prop tor   7   8   9  78
 172 ben   7   8  77
 173 ben   7  66  63
 174 ben   7  66  67
 175 prop tor   7  66  67  10
 176 prop tor   7  66  67  60
 177 ben   8   7  66
 178 prop tor   8   7  66  63
 179 prop tor   8   7  66  67
 180 ben   8   9  10
 181 prop tor   8   9  10  11
 182 prop tor   8   9  10  67
 183 ben   8   9  78
 184 ben   9   8  77
 185 ben   9  10  11
 186 prop tor   9  10  11  12
 187 prop tor   9  10  11  68
 188 ben   9  10  67
 189 prop tor   9  10  67  60
 190 prop tor   9  10  67  66
 191 ben  10   9  78
 192 ben  10  11  12
 193 prop tor  10  11  12  13
 194 prop tor  10  11  12  79
 195 ben  10  11  68
 196 prop tor  10  11  68  59
 197 prop tor  10  11  68  69
 198 ben  10  67  60
 199 ben  10  67  66
 200 ben  11  10  67
 201 prop tor  11  10  67  60
 202 prop tor  11  10  67  66
 203 ben  11  12  13
 204 prop tor  11  12  13  14
 205 prop tor  11  12  13  80
 206 ben  11  12  79
 207 ben  11  68  59
 208 ben  11  68  69
 209 prop tor  11  68  69  14
 210 prop tor  11  68  69  56
 211 ben  12  11  68
 212 prop tor  12  11  68  59
 213 prop tor  12  11  68  69
 214 ben  12  13  14
 215 prop tor  12  13  14  15
 216 prop tor  12  13  14  69
 217 ben  12  13  80
 218 ben  13  12  79
 219 ben  13  14  15
 220 prop tor  13  14  15  16
 221 prop tor  13  14  15  17
 222 ben  13  14  69
 223 prop tor  13  14  69  56
 224 prop tor  13  14  69  68
 225 ben  14  13  80
 226 ben  14  15  16
 227 ben  14  15  17
 228 prop tor  14  15  17  18
 229 prop tor  14  15  17  54
 230 ben  14  69  56
 231 ben  14  69  68
 232 ben  15  14  69
 233 prop tor  15  14  69  56
 234 prop tor  15  14  69  68
 235 ben  15  17  18
 236 prop tor  15  17  18  19
 237 prop tor  15  17  18  53
 238 ben  15  17  54
 239 prop tor  15  17  54  55
 240 prop tor  15  17  54  56
 241 ben  16  15  17
 242 prop tor  16  15  17  18
 243 prop tor  16  15  17  54
 244 ben  17  18  19
 245 prop tor  17  18  19  20
 246 prop tor  17  18  19  81
 247 ben  17  18  53
 248 prop tor  17  18  53  52
 249 prop tor  17  18  53 105
 250 ben  17  54  55
 251 ben  17  54  56
 252 prop tor  17  54  56  57
 253 prop tor  17  54  56  69
 254 ben  18  17  54
 255 prop tor  18  17  54  55
 256 prop tor  18  17  54  56
 257 ben  18  19  20
 258 prop tor  18  19  20  21
 259 prop tor  18  19  20  82
 260 ben  18  19  81
 261 ben  18  53  52
 262 ben  18  53 105
 263 ben  19  18  53
 264 prop tor  19  18  53  52
 265 prop tor  19  18  53 105
 266 ben  19  20  21
 267 prop tor  19  20  21  22
 268 prop tor  19  20  21  52
 269 ben  19  20  82
 270 ben  20  19  81
 271 ben  20  21  22
 272 prop tor  20  21  22  23
 273 ben  20  21  52
 274 prop tor  20  21  52  53
 275 prop tor  20  21  52 104
 276 ben  21  20  82
 277 lin ben  21  22  23
 279 ben  21  52  53
 280 prop tor  21  52  53  18
 281 prop tor  21  52  53 105
 282 ben  21  52 104
 283 ben  22  21  52
 284 prop tor  22  21  52  53
 285 prop tor  22  21  52 104
 Extend lin bond           1          21          22          24
 286 lin ben  22  23  24
 288 ben  23  24  25
 289 prop tor  23  24  25  26
 290 prop tor  23  24  25  83
 291 ben  23  24  51
 292 prop tor  23  24  51  28
 293 prop tor  23  24  51 103
 294 ben  24  25  26
 295 prop tor  24  25  26  27
 296 prop tor  24  25  26  84
 297 ben  24  25  83
 298 ben  24  51  28
 299 ben  24  51 103
 300 ben  25  24  51
 301 prop tor  25  24  51  28
 302 prop tor  25  24  51 103
 303 ben  25  26  27
 304 prop tor  25  26  27  28
 305 prop tor  25  26  27  85
 306 ben  25  26  84
 307 ben  26  25  83
 308 ben  26  27  28
 309 prop tor  26  27  28  29
 310 prop tor  26  27  28  51
 311 ben  26  27  85
 312 ben  27  26  84
 313 ben  27  28  29
 314 prop tor  27  28  29  30
 315 prop tor  27  28  29  33
 316 ben  27  28  51
 317 prop tor  27  28  51  24
 318 prop tor  27  28  51 103
 319 ben  28  27  85
 320 ben  28  29  30
 321 prop tor  28  29  30  31
 322 prop tor  28  29  30  86
 323 ben  28  29  33
 324 prop tor  28  29  33  32
 325 ben  28  51 103
 326 ben  29  28  51
 327 prop tor  29  28  51  24
 328 prop tor  29  28  51 103
 329 ben  29  30  31
 330 prop tor  29  30  31  32
 331 prop tor  29  30  31  40
 332 ben  29  30  86
 333 ben  29  33  32
 334 ben  30  29  33
 335 prop tor  30  29  33  32
 336 ben  30  31  32
 337 prop tor  30  31  32  33
 338 prop tor  30  31  32  34
 339 ben  30  31  40
 340 prop tor  30  31  40  39
 341 prop tor  30  31  40  41
 342 prop tor  30  31  40  42
 343 ben  31  30  86
 344 ben  31  32  33
 345 prop tor  31  32  33  29
 346 ben  31  32  34
 347 prop tor  31  32  34  35
 348 prop tor  31  32  34  39
 349 ben  31  40  39
 350 ben  31  40  41
 351 prop tor  31  40  41  89
 352 prop tor  31  40  41  90
 353 prop tor  31  40  41  91
 354 ben  31  40  42
 355 prop tor  31  40  42  92
 356 prop tor  31  40  42  93
 357 prop tor  31  40  42  94
 358 ben  32  31  40
 359 prop tor  32  31  40  39
 360 prop tor  32  31  40  41
 361 prop tor  32  31  40  42
 362 ben  32  34  35
 363 prop tor  32  34  35  36
 364 prop tor  32  34  35  87
 365 ben  32  34  39
 366 prop tor  32  34  39  38
 367 prop tor  32  34  39  40
 368 prop tor  33  29  30  31
 369 prop tor  33  29  30  86
 370 ben  33  32  34
 371 prop tor  33  32  34  35
 372 prop tor  33  32  34  39
 373 prop tor  34  32  33  29
 374 ben  34  35  36
 375 prop tor  34  35  36  37
 376 prop tor  34  35  36  48
 377 ben  34  35  87
 378 ben  34  39  38
 379 ben  34  39  40
 380 prop tor  34  39  40  31
 381 prop tor  34  39  40  41
 382 prop tor  34  39  40  42
 383 ben  35  34  39
 384 prop tor  35  34  39  38
 385 prop tor  35  34  39  40
 386 ben  35  36  37
 387 prop tor  35  36  37  38
 388 prop tor  35  36  37  43
 389 ben  35  36  48
 390 prop tor  35  36  48  47
 391 prop tor  35  36  48  49
 392 prop tor  35  36  48  50
 393 ben  36  35  87
 394 ben  36  37  38
 395 prop tor  36  37  38  39
 396 prop tor  36  37  38  88
 397 ben  36  37  43
 398 prop tor  36  37  43  44
 399 prop tor  36  37  43  47
 400 ben  36  48  47
 401 ben  36  48  49
 402 prop tor  36  48  49  97
 403 prop tor  36  48  49  98
 404 prop tor  36  48  49  99
 405 ben  36  48  50
 406 prop tor  36  48  50 100
 407 prop tor  36  48  50 101
 408 prop tor  36  48  50 102
 409 ben  37  36  48
 410 prop tor  37  36  48  47
 411 prop tor  37  36  48  49
 412 prop tor  37  36  48  50
 413 ben  37  38  39
 414 prop tor  37  38  39  34
 415 prop tor  37  38  39  40
 416 ben  37  38  88
 417 ben  37  43  44
 418 prop tor  37  43  44  45
 419 ben  37  43  47
 420 prop tor  37  43  47  46
 421 prop tor  37  43  47  48
 422 ben  38  37  43
 423 prop tor  38  37  43  44
 424 prop tor  38  37  43  47
 425 ben  38  39  40
 426 prop tor  38  39  40  31
 427 prop tor  38  39  40  41
 428 prop tor  38  39  40  42
 429 prop tor  39  34  35  36
 430 prop tor  39  34  35  87
 431 ben  39  38  88
 432 ben  39  40  41
 433 prop tor  39  40  41  89
 434 prop tor  39  40  41  90
 435 prop tor  39  40  41  91
 436 ben  39  40  42
 437 prop tor  39  40  42  92
 438 prop tor  39  40  42  93
 439 prop tor  39  40  42  94
 440 prop tor  40  31  32  33
 441 prop tor  40  31  32  34
 442 ben  40  41  89
 443 ben  40  41  90
 444 ben  40  41  91
 445 ben  40  42  92
 446 ben  40  42  93
 447 ben  40  42  94
 448 ben  41  40  42
 449 prop tor  41  40  42  92
 450 prop tor  41  40  42  93
 451 prop tor  41  40  42  94
 452 prop tor  42  40  41  89
 453 prop tor  42  40  41  90
 454 prop tor  42  40  41  91
 455 prop tor  43  37  38  39
 456 prop tor  43  37  38  88
 457 ben  43  44  45
 458 prop tor  43  44  45  46
 459 prop tor  43  44  45  95
 460 ben  43  47  46
 461 ben  43  47  48
 462 prop tor  43  47  48  36
 463 prop tor  43  47  48  49
 464 prop tor  43  47  48  50
 465 ben  44  43  47
 466 prop tor  44  43  47  46
 467 prop tor  44  43  47  48
 468 ben  44  45  46
 469 prop tor  44  45  46  47
 470 prop tor  44  45  46  96
 471 ben  44  45  95
 472 ben  45  46  47
 473 prop tor  45  46  47  43
 474 prop tor  45  46  47  48
 475 ben  45  46  96
 476 ben  46  45  95
 477 ben  46  47  48
 478 prop tor  46  47  48  36
 479 prop tor  46  47  48  49
 480 prop tor  46  47  48  50
 481 prop tor  47  43  44  45
 482 ben  47  46  96
 483 ben  47  48  49
 484 prop tor  47  48  49  97
 485 prop tor  47  48  49  98
 486 prop tor  47  48  49  99
 487 ben  47  48  50
 488 prop tor  47  48  50 100
 489 prop tor  47  48  50 101
 490 prop tor  47  48  50 102
 491 prop tor  48  36  37  38
 492 prop tor  48  36  37  43
 493 ben  48  49  97
 494 ben  48  49  98
 495 ben  48  49  99
 496 ben  48  50 100
 497 ben  48  50 101
 498 ben  48  50 102
 499 ben  49  48  50
 500 prop tor  49  48  50 100
 501 prop tor  49  48  50 101
 502 prop tor  49  48  50 102
 503 prop tor  50  48  49  97
 504 prop tor  50  48  49  98
 505 prop tor  50  48  49  99
 506 prop tor  51  24  25  26
 507 prop tor  51  24  25  83
 508 prop tor  51  28  29  30
 509 prop tor  51  28  29  33
 510 prop tor  52  21  22  23
 511 ben  52  53 105
 512 prop tor  53  18  19  20
 513 prop tor  53  18  19  81
 514 ben  53  52 104
 515 prop tor  54  17  18  19
 516 prop tor  54  17  18  53
 517 ben  54  56  57
 518 prop tor  54  56  57  58
 519 prop tor  54  56  57 106
 520 ben  54  56  69
 521 prop tor  54  56  69  14
 522 prop tor  54  56  69  68
 523 ben  55  54  56
 524 prop tor  55  54  56  57
 525 prop tor  55  54  56  69
 526 ben  56  57  58
 527 prop tor  56  57  58  59
 528 prop tor  56  57  58 107
 529 ben  56  57 106
 530 ben  56  69  68
 531 ben  57  56  69
 532 prop tor  57  56  69  14
 533 prop tor  57  56  69  68
 534 ben  57  58  59
 535 prop tor  57  58  59  60
 536 prop tor  57  58  59  68
 537 ben  57  58 107
 538 ben  58  57 106
 539 ben  58  59  60
 540 prop tor  58  59  60  61
 541 prop tor  58  59  60  67
 542 ben  58  59  68
 543 prop tor  58  59  68  11
 544 prop tor  58  59  68  69
 545 ben  59  58 107
 546 ben  59  60  61
 547 prop tor  59  60  61  62
 548 prop tor  59  60  61 108
 549 ben  59  60  67
 550 prop tor  59  60  67  10
 551 prop tor  59  60  67  66
 552 ben  59  68  69
 553 prop tor  59  68  69  14
 554 prop tor  59  68  69  56
 555 ben  60  59  68
 556 prop tor  60  59  68  11
 557 prop tor  60  59  68  69
 558 ben  60  61  62
 559 prop tor  60  61  62  63
 560 prop tor  60  61  62 109
 561 ben  60  61 108
 562 ben  60  67  66
 563 ben  61  60  67
 564 prop tor  61  60  67  10
 565 prop tor  61  60  67  66
 566 ben  61  62  63
 567 prop tor  61  62  63  64
 568 prop tor  61  62  63  66
 569 ben  61  62 109
 570 ben  62  61 108
 571 ben  62  63  64
 572 prop tor  62  63  64   4
 573 prop tor  62  63  64  65
 574 ben  62  63  66
 575 prop tor  62  63  66   7
 576 prop tor  62  63  66  67
 577 ben  63  62 109
 578 ben  63  64  65
 579 ben  63  66  67
 580 prop tor  63  66  67  10
 581 prop tor  63  66  67  60
 582 prop tor  64   4   5   6
 583 prop tor  64   4   5   7
 584 ben  64  63  66
 585 prop tor  64  63  66   7
 586 prop tor  64  63  66  67
 587 prop tor  66   7   8   9
 588 prop tor  66   7   8  77
 589 prop tor  66  63  64   4
 590 prop tor  66  63  64  65
 591 prop tor  67  10  11  12
 592 prop tor  67  10  11  68
 593 prop tor  67  60  61  62
 594 prop tor  67  60  61 108
 595 prop tor  68  11  12  13
 596 prop tor  68  11  12  79
 597 prop tor  68  59  60  61
 598 prop tor  68  59  60  67
 599 prop tor  69  14  15  16
 600 prop tor  69  14  15  17
 601 prop tor  69  56  57  58
 602 prop tor  69  56  57 106
 603 prop tor  70   1   2   3
 604 prop tor  70   1   2   4
 605 prop tor  70   1   2  73
 606 ben  70   1  71
 607 ben  70   1  72
 608 prop tor  71   1   2   3
 609 prop tor  71   1   2   4
 610 prop tor  71   1   2  73
 611 ben  71   1  72
 612 prop tor  72   1   2   3
 613 prop tor  72   1   2   4
 614 prop tor  72   1   2  73
 615 prop tor  73   2   3  74
 616 prop tor  73   2   3  75
 617 prop tor  73   2   3  76
 618 prop tor  73   2   4   5
 619 prop tor  73   2   4  64
 620 ben  74   3  75
 621 ben  74   3  76
 622 ben  75   3  76
 623 prop tor  77   8   9  10
 624 prop tor  77   8   9  78
 625 prop tor  78   9  10  11
 626 prop tor  78   9  10  67
 627 prop tor  79  12  13  14
 628 prop tor  79  12  13  80
 629 prop tor  80  13  14  15
 630 prop tor  80  13  14  69
 631 prop tor  81  19  20  21
 632 prop tor  81  19  20  82
 633 prop tor  82  20  21  22
 634 prop tor  82  20  21  52
 635 prop tor  83  25  26  27
 636 prop tor  83  25  26  84
 637 prop tor  84  26  27  28
 638 prop tor  84  26  27  85
 639 prop tor  85  27  28  29
 640 prop tor  85  27  28  51
 641 prop tor  86  30  31  32
 642 prop tor  86  30  31  40
 643 prop tor  87  35  36  37
 644 prop tor  87  35  36  48
 645 prop tor  88  38  39  34
 646 prop tor  88  38  39  40
 647 ben  89  41  90
 648 ben  89  41  91
 649 ben  90  41  91
 650 ben  92  42  93
 651 ben  92  42  94
 652 ben  93  42  94
 653 prop tor  95  45  46  47
 654 prop tor  95  45  46  96
 655 prop tor  96  46  47  43
 656 prop tor  96  46  47  48
 657 ben  97  49  98
 658 ben  97  49  99
 659 ben  98  49  99
 660 ben 100  50 101
 661 ben 100  50 102
 662 ben 101  50 102
 663 prop tor 104  52  53  18
 664 prop tor 104  52  53 105
 665 prop tor 106  57  58  59
 666 prop tor 106  57  58 107
 667 prop tor 107  58  59  60
 668 prop tor 107  58  59  68
 669 prop tor 108  61  62  63
 670 prop tor 108  61  62 109
 671 prop tor 109  62  63  64
 672 prop tor 109  62  63  66
 673 lin bend prop tor  20  21  24  23
 674 lin bend prop tor  20  21  24  25
 675 lin bend prop tor  20  21  24  51
 676 lin bend prop tor  22  21  24  23
 677 lin bend prop tor  22  21  24  25
 678 lin bend prop tor  22  21  24  51
 679 lin bend prop tor  52  21  24  23
 680 lin bend prop tor  52  21  24  25
 681 lin bend prop tor  52  21  24  51
 nber bend=             216
 nber lin bend=           1
 nber prop tor=         343
 nber impr tor=           0
 nber tot redund int=         681
 Reading file: 
 ./IDT-A_3_C0S3.log                                                             
                                          
  Entering Gaussian System, Link 0=g16                                          
  
 Gaussian format, type: g94, g98, g03= F F F
  #P Geom=AllCheck Guess=TCheck SCRF=Check GenChk RB3LYP TD(FC,Read)/6-3    
 energy type= TD      
 Original G94 input coords:
  6  2.292021  1.990820 -0.340303
  6  3.190125  0.762331 -0.162381
  6  2.736544 -0.167843  0.967481
  7  3.374390  0.019784 -1.450335
  6  2.264324 -0.576891 -2.060221
  8  1.148769 -0.506026 -1.565583
  6  2.493457 -1.298631 -3.330389
  6  1.407699 -1.907552 -3.971086
  6  1.587991 -2.588638 -5.157698
  6  2.867517 -2.698022 -5.769209
  6  3.070969 -3.406260 -7.007693
  6  2.004287 -4.042246 -7.700602
  6  2.212027 -4.718645 -8.884761
  6  3.494196 -4.797379 -9.442037
  6  3.674552 -5.531699-10.710308
  8  2.750684 -6.073455-11.288574
  7  4.985997 -5.577407-11.227899
  6  5.190987 -6.291899-12.467957
  6  5.444702 -5.586351-13.640618
  6  5.644765 -6.270327-14.830777
  6  5.589494 -7.675248-14.866819
  6  5.792452 -8.378746-16.085873
  6  5.965920 -8.978324-17.123096
  6  6.167586 -9.686303-18.341232
  6  6.104553-11.091576-18.370351
  6  6.313562-11.766337-19.566088
  6  6.575624-11.067760-20.740018
  6  6.646572 -9.664015-20.739101
  6  6.912875 -8.906505-21.965136
  6  6.509022 -7.627087-22.286532
  6  6.955014 -7.213472-23.562649
  6  7.695703 -8.170549-24.215885
 16  7.873586 -9.609336-23.271435
  6  8.125928 -7.704437-25.519872
  6  8.886292 -8.306340-26.529212
  6  9.129301 -7.580419-27.684597
  6  8.618470 -6.267507-27.830861
  6  7.857960 -5.665932-26.822084
  6  7.614632 -6.391525-25.666346
  6  6.817971 -5.967254-24.423811
  6  5.341855 -5.681276-24.774220
  6  7.453981 -4.736767-23.742022
  6  9.049724 -5.800316-29.136089
 16  8.873626 -4.359921-30.082102
  6  9.818320 -5.071028-31.368045
  6 10.235921 -6.340823-31.070357
  6  9.792329 -6.756274-29.787120
  6  9.925293 -8.004201-28.927820
  6 11.400481 -8.294978-28.577458
  6  9.286185 -9.231952-29.611682
  6  6.447522 -8.989906-19.526569
  6  5.329654 -8.370458-13.672091
  6  5.134557 -7.682572-12.483408
  6  6.113169 -4.978947-10.625863
  8  7.215496 -5.060359-11.135327
  6  5.876370 -4.259175 -9.358926
  6  6.960999 -3.649931 -8.716125
  6  6.779164 -2.969204 -7.530164
  6  5.498799 -2.860441 -6.920995
  6  5.295213 -2.151951 -5.682740
  6  6.359822 -1.514522 -4.987701
  6  6.150379 -0.839510 -3.802389
  6  4.867743 -0.763555 -3.245673
  6  4.679255 -0.032661 -1.975505
  8  5.619133  0.502488 -1.407964
  6  3.781265 -1.380765 -3.899848
  6  3.983024 -2.082534 -5.127140
  6  4.383484 -3.476638 -7.564120
  6  4.585302 -4.179722 -8.791857
  1  2.307403  2.578405  0.581699
  1  1.262255  1.709342 -0.556493
  1  2.663544  2.627817 -1.147168
  1  4.195440  1.108409  0.067226
  1  1.725164 -0.537548  0.803579
  1  2.758246  0.383332  1.911580
  1  3.415354 -1.019205  1.063434
  1  0.431228 -1.828270 -3.511023
  1  0.727065 -3.046273 -5.623964
  1  1.001460 -4.001995 -7.299813
  1  1.396121 -5.201240 -9.407278
  1  5.491012 -4.504776-13.617852
  1  5.845678 -5.724100-15.743874
  1  5.895629-11.634250-17.456989
  1  6.261096-12.848944-19.588126
  1  6.705980-11.610883-21.668726
  1  5.888813 -7.035241-21.625924
  1  9.272193 -9.312875-26.404970
  1  7.471792 -4.659508-26.946451
  1  4.881093 -6.543794-25.260080
  1  5.263234 -4.824562-25.449199
  1  4.770837 -5.451081-23.870218
  1  8.499648 -4.925855-23.490719
  1  6.918681 -4.489880-22.820702
  1  7.411415 -3.864354-24.399916
  1 10.002240 -4.497659-32.263549
  1 10.832359 -6.935731-31.749911
  1 11.863347 -7.434465-28.090040
  1 11.970894 -8.525046-29.481919
  1 11.477038 -9.153139-27.904013
  1  8.240908 -9.039667-29.862200
  1  9.326883-10.105962-28.955699
  1  9.820417 -9.478142-30.533822
  1  6.530857 -7.911258-19.489481
  1  5.283770 -9.452177-13.687459
  1  4.932774 -8.222595-11.566812
  1  7.938235 -3.728988 -9.174815
  1  7.639144 -2.511557 -7.062260
  1  7.363234 -1.552356 -5.387428
  1  6.965771 -0.356884 -3.279360
 nber atoms=         109
  Total Energy, E(TD-HF/TD-DFT) =  -3556.07940663                               
  
          32          49 "  -3556.07940663"
After scan for Atom:   Atom  AN      X      Y      Z        X      Y      Z        X      Y      Z   
After scan for Atom:   Atom  AN      X      Y      Z        X      Y      Z        X      Y      Z   
After scan for Atom:   Atom  AN      X      Y      Z        X      Y      Z        X      Y      Z   
After scan for Atom:   Atom  AN      X      Y      Z        X      Y      Z        X      Y      Z   
After scan for Atom:   Atom  AN      X      Y      Z        X      Y      Z        X      Y      Z   
After scan for Atom:   Atom  AN      X      Y      Z        X      Y      Z        X      Y      Z   
After scan for Atom:   Atom  AN      X      Y      Z        X      Y      Z        X      Y      Z   
After scan for Atom:   Atom  AN      X      Y      Z        X      Y      Z        X      Y      Z   
After scan for Atom:   Atom  AN      X      Y      Z        X      Y      Z        X      Y      Z   
After scan for Atom:   Atom  AN      X      Y      Z        X      Y      Z        X      Y      Z   
After scan for Atom:   Atom  AN      X      Y      Z        X      Y      Z        X      Y      Z   
After scan for Atom:   Atom  AN      X      Y      Z        X      Y      Z        X      Y      Z   
After scan for Atom:   Atom  AN      X      Y      Z        X      Y      Z        X      Y      Z   
After scan for Atom:   Atom  AN      X      Y      Z        X      Y      Z        X      Y      Z   
After scan for Atom:   Atom  AN      X      Y      Z        X      Y      Z        X      Y      Z   
After scan for Atom:   Atom  AN      X      Y      Z        X      Y      Z        X      Y      Z   
After scan for Atom:   Atom  AN      X      Y      Z        X      Y      Z        X      Y      Z   
After scan for Atom:   Atom  AN      X      Y      Z        X      Y      Z        X      Y      Z   
After scan for Atom:   Atom  AN      X      Y      Z        X      Y      Z        X      Y      Z   
After scan for Atom:   Atom  AN      X      Y      Z        X      Y      Z        X      Y      Z   
After scan for Atom:   Atom  AN      X      Y      Z        X      Y      Z        X      Y      Z   
After scan for Atom:   Atom  AN      X      Y      Z        X      Y      Z        X      Y      Z   
After scan for Atom:   Atom  AN      X      Y      Z        X      Y      Z        X      Y      Z   
After scan for Atom:   Atom  AN      X      Y      Z        X      Y      Z        X      Y      Z   
After scan for Atom:   Atom  AN      X      Y      Z        X      Y      Z        X      Y      Z   
After scan for Atom:   Atom  AN      X      Y      Z        X      Y      Z        X      Y      Z   
After scan for Atom:   Atom  AN      X      Y      Z        X      Y      Z        X      Y      Z   
After scan for Atom:   Atom  AN      X      Y      Z        X      Y      Z        X      Y      Z   
After scan for Atom:   Atom  AN      X      Y      Z        X      Y      Z        X      Y      Z   
After scan for Atom:   Atom  AN      X      Y      Z        X      Y      Z        X      Y      Z   
After scan for Atom:   Atom  AN      X      Y      Z        X      Y      Z        X      Y      Z   
After scan for Atom:   Atom  AN      X      Y      Z        X      Y      Z        X      Y      Z   
After scan for Atom:   Atom  AN      X      Y      Z        X      Y      Z        X      Y      Z   
After scan for Atom:   Atom  AN      X      Y      Z        X      Y      Z        X      Y      Z   
After scan for Atom:   Atom  AN      X      Y      Z        X      Y      Z        X      Y      Z   
After scan for Atom:   Atom  AN      X      Y      Z        X      Y      Z        X      Y      Z   
After scan for Atom:   Atom  AN      X      Y      Z        X      Y      Z        X      Y      Z   
After scan for Atom:   Atom  AN      X      Y      Z        X      Y      Z        X      Y      Z   
After scan for Atom:   Atom  AN      X      Y      Z        X      Y      Z        X      Y      Z   
After scan for Atom:   Atom  AN      X      Y      Z        X      Y      Z        X      Y      Z   
After scan for Atom:   Atom  AN      X      Y      Z        X      Y      Z        X      Y      Z   
After scan for Atom:   Atom  AN      X      Y      Z        X      Y      Z        X      Y      Z   
After scan for Atom:   Atom  AN      X      Y      Z        X      Y      Z        X      Y      Z   
After scan for Atom:   Atom  AN      X      Y      Z        X      Y      Z        X      Y      Z   
After scan for Atom:   Atom  AN      X      Y      Z        X      Y      Z        X      Y      Z   
After scan for Atom:   Atom  AN      X      Y      Z        X      Y      Z        X      Y      Z   
After scan for Atom:   Atom  AN      X      Y      Z        X      Y      Z        X      Y      Z   
After scan for Atom:   Atom  AN      X      Y      Z        X      Y      Z        X      Y      Z   
After scan for Atom:   Atom  AN      X      Y      Z        X      Y      Z        X      Y      Z   
After scan for Atom:   Atom  AN      X      Y      Z        X      Y      Z        X      Y      Z   
After scan for Atom:   Atom  AN      X      Y      Z        X      Y      Z        X      Y      Z   
After scan for Atom:   Atom  AN      X      Y      Z        X      Y      Z        X      Y      Z   
After scan for Atom:   Atom  AN      X      Y      Z        X      Y      Z        X      Y      Z   
After scan for Atom:   Atom  AN      X      Y      Z        X      Y      Z        X      Y      Z   
After scan for Atom:   Atom  AN      X      Y      Z        X      Y      Z        X      Y      Z   
After scan for Atom:   Atom  AN      X      Y      Z        X      Y      Z        X      Y      Z   
After scan for Atom:   Atom  AN      X      Y      Z        X      Y      Z        X      Y      Z   
After scan for Atom:   Atom  AN      X      Y      Z        X      Y      Z        X      Y      Z   
After scan for Atom:   Atom  AN      X      Y      Z        X      Y      Z        X      Y      Z   
After scan for Atom:   Atom  AN      X      Y      Z        X      Y      Z        X      Y      Z   
After scan for Atom:   Atom  AN      X      Y      Z        X      Y      Z        X      Y      Z   
After scan for Atom:   Atom  AN      X      Y      Z        X      Y      Z        X      Y      Z   
After scan for Atom:   Atom  AN      X      Y      Z        X      Y      Z        X      Y      Z   
After scan for Atom:   Atom  AN      X      Y      Z        X      Y      Z        X      Y      Z   
After scan for Atom:   Atom  AN      X      Y      Z        X      Y      Z        X      Y      Z   
After scan for Atom:   Atom  AN      X      Y      Z        X      Y      Z        X      Y      Z   
After scan for Atom:   Atom  AN      X      Y      Z        X      Y      Z        X      Y      Z   
After scan for Atom:   Atom  AN      X      Y      Z        X      Y      Z        X      Y      Z   
After scan for Atom:   Atom  AN      X      Y      Z        X      Y      Z        X      Y      Z   
After scan for Atom:   Atom  AN      X      Y      Z        X      Y      Z        X      Y      Z   
After scan for Atom:   Atom  AN      X      Y      Z        X      Y      Z        X      Y      Z   
After scan for Atom:   Atom  AN      X      Y      Z        X      Y      Z        X      Y      Z   
After scan for Atom:   Atom  AN      X      Y      Z        X      Y      Z        X      Y      Z   
After scan for Atom:   Atom  AN      X      Y      Z        X      Y      Z        X      Y      Z   
After scan for Atom:   Atom  AN      X      Y      Z        X      Y      Z        X      Y      Z   
After scan for Atom:   Atom  AN      X      Y      Z        X      Y      Z        X      Y      Z   
After scan for Atom:   Atom  AN      X      Y      Z        X      Y      Z        X      Y      Z   
After scan for Atom:   Atom  AN      X      Y      Z        X      Y      Z        X      Y      Z   
After scan for Atom:   Atom  AN      X      Y      Z        X      Y      Z        X      Y      Z   
After scan for Atom:   Atom  AN      X      Y      Z        X      Y      Z        X      Y      Z   
After scan for Atom:   Atom  AN      X      Y      Z        X      Y      Z        X      Y      Z   
After scan for Atom:   Atom  AN      X      Y      Z        X      Y      Z        X      Y      Z   
After scan for Atom:   Atom  AN      X      Y      Z        X      Y      Z        X      Y      Z   
After scan for Atom:   Atom  AN      X      Y      Z        X      Y      Z        X      Y      Z   
After scan for Atom:   Atom  AN      X      Y      Z        X      Y      Z        X      Y      Z   
After scan for Atom:   Atom  AN      X      Y      Z        X      Y      Z        X      Y      Z   
After scan for Atom:   Atom  AN      X      Y      Z        X      Y      Z        X      Y      Z   
After scan for Atom:   Atom  AN      X      Y      Z        X      Y      Z        X      Y      Z   
After scan for Atom:   Atom  AN      X      Y      Z        X      Y      Z        X      Y      Z   
After scan for Atom:   Atom  AN      X      Y      Z        X      Y      Z        X      Y      Z   
After scan for Atom:   Atom  AN      X      Y      Z        X      Y      Z        X      Y      Z   
After scan for Atom:   Atom  AN      X      Y      Z        X      Y      Z        X      Y      Z   
After scan for Atom:   Atom  AN      X      Y      Z        X      Y      Z        X      Y      Z   
After scan for Atom:   Atom  AN      X      Y      Z        X      Y      Z        X      Y      Z   
After scan for Atom:   Atom  AN      X      Y      Z        X      Y      Z        X      Y      Z   
After scan for Atom:   Atom  AN      X      Y      Z        X      Y      Z        X      Y      Z   
After scan for Atom:   Atom  AN      X      Y      Z        X      Y      Z        X      Y      Z   
After scan for Atom:   Atom  AN      X      Y      Z        X      Y      Z        X      Y      Z   
After scan for Atom:   Atom  AN      X      Y      Z        X      Y      Z        X      Y      Z   
After scan for Atom:   Atom  AN      X      Y      Z        X      Y      Z        X      Y      Z   
After scan for Atom:   Atom  AN      X      Y      Z        X      Y      Z        X      Y      Z   
After scan for Atom:   Atom  AN      X      Y      Z        X      Y      Z        X      Y      Z   
After scan for Atom:   Atom  AN      X      Y      Z        X      Y      Z        X      Y      Z   
After scan for Atom:   Atom  AN      X      Y      Z        X      Y      Z        X      Y      Z   
After scan for Atom:   Atom  AN      X      Y      Z        X      Y      Z        X      Y      Z   
After scan for Atom:   Atom  AN      X      Y      Z        X      Y      Z        X      Y      Z   
After scan for Atom:   Atom  AN      X      Y      Z        X      Y      Z        X      Y      Z   
 g94    frequencies=
     0.0    0.0    0.0    0.0    0.0    0.0    2.6    4.3    6.6   12.4
    13.5   22.6   25.4   29.6   30.7   45.6   49.2   52.8   55.5   59.6
    66.3   75.0   77.9   89.8   93.9  100.9  102.4  107.3  112.1  121.3
   129.7  139.8  144.9  149.3  160.8  168.1  172.0  184.8  194.7  200.0
   205.9  210.6  213.6  217.5  234.3  235.6  237.6  246.9  248.5  248.7
   249.3  256.7  262.8  276.9  281.2  286.7  289.1  302.5  304.2  314.0
   317.7  324.1  328.5  350.2  356.1  359.4  377.9  390.0  393.2  409.8
   416.0  417.3  417.6  423.6  427.4  431.7  437.1  438.9  447.1  448.7
   453.1  463.8  465.5  477.9  480.3  485.4  494.0  498.7  500.7  501.3
   506.4  507.9  513.7  537.9  544.0  553.7  565.3  573.0  573.6  574.9
   575.5  579.6  590.8  598.7  605.2  615.6  629.8  634.7  635.5  652.7
   658.4  658.4  659.4  663.0  678.3  691.0  691.8  702.2  704.3  705.6
   709.8  718.0  719.4  728.6  731.1  742.1  743.8  744.0  752.9  759.6
   761.0  770.8  784.6  799.2  802.7  806.0  807.7  812.5  815.2  818.1
   828.6  829.5  832.6  834.7  836.6  846.4  849.8  857.7  864.5  881.5
   889.9  894.0  897.6  903.8  905.1  913.4  916.9  923.8  933.9  945.1
   948.3  948.5  957.0  966.1  971.1  974.6  976.4  976.4  977.8  985.4
   987.6  987.8  988.5 1005.5 1009.1 1030.8 1031.1 1032.8 1035.9 1061.3
  1077.1 1083.3 1094.8 1104.6 1107.7 1114.2 1130.2 1135.8 1147.7 1155.4
  1156.1 1156.8 1158.2 1158.6 1162.8 1165.6 1167.0 1174.6 1185.7 1195.9
  1197.4 1199.9 1203.5 1216.6 1224.0 1232.6 1233.8 1238.2 1242.3 1242.4
  1251.9 1251.9 1261.6 1264.6 1276.7 1297.1 1299.4 1309.4 1316.2 1318.6
  1329.7 1337.4 1347.6 1350.7 1355.2 1356.2 1358.4 1366.1 1379.7 1382.2
  1391.3 1391.7 1397.3 1397.5 1400.1 1403.9 1408.7 1416.0 1421.2 1426.3
  1430.5 1436.9 1439.4 1440.4 1444.6 1449.8 1460.9 1461.3 1466.4 1484.4
  1484.5 1485.0 1489.2 1489.3 1490.2 1492.2 1497.6 1503.9 1504.6 1505.1
  1505.8 1507.3 1509.4 1510.9 1513.9 1522.4 1540.9 1544.9 1546.8 1554.8
  1560.8 1570.6 1581.1 1588.0 1599.3 1599.7 1600.9 1606.9 1622.6 1628.4
  1644.6 1647.4 1685.6 1705.5 1724.9 1741.4 2301.7 3023.0 3023.4 3027.3
  3027.7 3034.2 3038.3 3084.7 3085.3 3090.2 3090.7 3092.2 3095.4 3103.7
  3104.0 3105.5 3105.7 3112.4 3132.5 3142.8 3162.3 3163.7 3168.7 3183.9
  3185.6 3186.4 3193.1 3197.3 3197.4 3197.8 3198.2 3200.0 3200.4 3202.3
  3204.6 3204.8 3212.7 3212.8 3223.9 3224.1 3242.8
 g94    symmetries=
                                                 A      A      A      A
       A      A      A      A      A      A      A      A      A      A
       A      A      A      A      A      A      A      A      A      A
       A      A      A      A      A      A      A      A      A      A
       A      A      A      A      A      A      A      A      A      A
       A      A      A      A      A      A      A      A      A      A
       A      A      A      A      A      A      A      A      A      A
       A      A      A      A      A      A      A      A      A      A
       A      A      A      A      A      A      A      A      A      A
       A      A      A      A      A      A      A      A      A      A
       A      A      A      A      A      A      A      A      A      A
       A      A      A      A      A      A      A      A      A      A
       A      A      A      A      A      A      A      A      A      A
       A      A      A      A      A      A      A      A      A      A
       A      A      A      A      A      A      A      A      A      A
       A      A      A      A      A      A      A      A      A      A
       A      A      A      A      A      A      A      A      A      A
       A      A      A      A      A      A      A      A      A      A
       A      A      A      A      A      A      A      A      A      A
       A      A      A      A      A      A      A      A      A      A
       A      A      A      A      A      A      A      A      A      A
       A      A      A      A      A      A      A      A      A      A
       A      A      A      A      A      A      A      A      A      A
       A      A      A      A      A      A      A      A      A      A
       A      A      A      A      A      A      A      A      A      A
       A      A      A      A      A      A      A      A      A      A
       A      A      A      A      A      A      A      A      A      A
       A      A      A      A      A      A      A      A      A      A
       A      A      A      A      A      A      A      A      A      A
       A      A      A      A      A      A      A      A      A      A
       A      A      A      A      A      A      A      A      A      A
       A      A      A      A      A      A      A      A      A      A
       A      A      A      A      A      A      A
 atomic masses:
 12.0000 12.0000 12.0000 14.0031 12.0000 15.9949 12.0000 12.0000 12.0000 12.0000
 12.0000 12.0000 12.0000 12.0000 12.0000 15.9949 14.0031 12.0000 12.0000 12.0000
 12.0000 12.0000 12.0000 12.0000 12.0000 12.0000 12.0000 12.0000 12.0000 12.0000
 12.0000 12.0000 31.9721 12.0000 12.0000 12.0000 12.0000 12.0000 12.0000 12.0000
 12.0000 12.0000 12.0000 31.9721 12.0000 12.0000 12.0000 12.0000 12.0000 12.0000
 12.0000 12.0000 12.0000 12.0000 15.9949 12.0000 12.0000 12.0000 12.0000 12.0000
 12.0000 12.0000 12.0000 12.0000 15.9949 12.0000 12.0000 12.0000 12.0000  1.0078
  1.0078  1.0078  1.0078  1.0078  1.0078  1.0078  1.0078  1.0078  1.0078  1.0078
  1.0078  1.0078  1.0078  1.0078  1.0078  1.0078  1.0078  1.0078  1.0078  1.0078
  1.0078  1.0078  1.0078  1.0078  1.0078  1.0078  1.0078  1.0078  1.0078  1.0078
  1.0078  1.0078  1.0078  1.0078  1.0078  1.0078  1.0078  1.0078  1.0078
 looking for force constants in 
 ./IDT-A_3_C0S3.fchk                                                            
  
 cant find forces in .fchk file
 NO FORCES: 
 ./IDT-A_3_C0S3.log                                                             
                                          
 g94-fc frequencies=

 at 99999: n3=           0
 symm operator            1 :  F  nop=           0
 symm operator            2 :  F  nop=           0
 symm operator            3 :  F  nop=           0
 symm operator            4 :  F  nop=           0
 symm operator            5 :  F  nop=           0
 symm operator            6 :  F  nop=           0
 symm operator            7 :  F  nop=           0
 The point group of the molecule is  C1
 Symmetry rotation matrix:
   1.00000   0.00000   0.00000
   0.00000   1.00000   0.00000
   0.00000   0.00000   1.00000

 highest evec of mol 2

 Enter nber and list of atoms to keep of mol #2
 keep list:         109           1           2           3           4
           5           6           7           8           9          10
          11          12          13          14          15          16
          17          18          19          20          21          22
          23          24          25          26          27          28
          29          30          31          32          33          34
          35          36          37          38          39          40
          41          42          43          44          45          46
          47          48          49          50          51          52
          53          54          55          56          57          58
          59          60          61          62          63          64
          65          66          67          68          69          70
          71          72          73          74          75          76
          77          78          79          80          81          82
          83          84          85          86          87          88
          89          90          91          92          93          94
          95          96          97          98          99         100
         101         102         103         104         105         106
         107         108         109
 reordering atoms
           1   16.3498823389481     
           2   16.0447832024158     
           3   16.9848891596646     
           4   14.6059869842401     
           5   14.1041416139357     
           6   14.8132024230807     
           7   12.6783117317996     
           8   12.1394112828316     
           9   10.8124597619098     
          10   9.95045972814869     
          11   8.56308960159070     
          12   7.96428154943381     
          13   6.63532247111654     
          14   5.83168966078618     
          15   4.41434902944223     
          16   3.91867523459447     
          17   3.65052910491167     
          18   2.25985397319895     
          19   1.26488023051698     
          20 -7.007211001206476E-002
          21 -0.431047252010652     
          22  -1.79872032029559     
          23  -2.96279385206511     
          24  -4.33041477284972     
          25  -4.68335205643264     
          26  -6.02316954881550     
          27  -7.02268653184147     
          28  -6.69848535910416     
          29  -7.73418111460432     
          30  -7.65154699404131     
          31  -8.85326869723984     
          32  -9.85141211841120     
          33  -9.33544407004304     
          34  -11.0638521529188     
          35  -12.3188422971697     
          36  -13.2903740944661     
          37  -13.0120074881423     
          38  -11.7576019972295     
          39  -10.7855924756495     
          40  -9.34453394304417     
          41  -9.31480137977093     
          42  -8.52763008055359     
          43  -14.2255719991993     
          44  -14.7429937816393     
          45  -16.3237184053482     
          46  -16.4292998242401     
          47  -15.2217330487521     
          48  -14.7318355049180     
          49  -14.7625816231329     
          50  -15.5494342764220     
          51  -5.34485150622971     
          52  0.588595636289560     
          53   1.92209697002513     
          54   4.14194008415333     
          55   3.41889217713852     
          56   5.56575355130353     
          57   6.10695530434105     
          58   7.43350925092655     
          59   8.29330205093942     
          60   9.68054187746272     
          61   10.2821331236067     
          62   11.6121932225580     
          63   12.4147189271838     
          64   13.8346572151517     
          65   14.3153660616060     
          66   11.8611645758287     
          67   10.4863194589070     
          68   7.75623041352274     
          69   6.38063466206451     
          70   17.3640095999272     
          71   16.2818478683562     
          72   15.6624941687048     
          73   16.1459619877821     
          74   16.9416602403883     
          75   18.0099982866768     
          76   16.7362365634623     
          77   12.7899571498592     
          78   10.4308811588600     
          79   8.55437931242309     
          80   6.18533979873973     
          81   1.53729552668831     
          82 -0.846237979229198     
          83  -3.90448535514780     
          84  -6.29391568307779     
          85  -8.06151182532009     
          86  -6.75818700312780     
          87  -12.5196058449137     
          88  -11.5569307300176     
          89  -9.89199778093362     
          90  -9.73445267555738     
          91  -8.28694124861071     
          92  -8.54252514236117     
          93  -7.48641575043728     
          94  -8.93445434451900     
          95  -17.0732622185478     
          96  -17.3366626495712     
          97  -14.1848059527806     
          98  -15.7907268391220     
          99  -14.3443246079719     
         100  -15.5331025345254     
         101  -15.1444375391087     
         102  -16.5910474482765     
         103  -5.06690487730502     
         104  0.323089285536014     
         105   2.70325165163690     
         106   5.45761562080148     
         107   7.81683524308639     
         108   9.69350886846174     
         109   12.0627721007834     
           1           1
           2           2
           3           3
           4           4
           5           5
           6           6
           7           7
           8           8
           9           9
          10          10
          11          11
          12          12
          13          13
          14          14
          15          15
          16          16
          17          17
          18          18
          19          19
          20          20
          21          21
          22          22
          23          23
          24          24
          25          25
          26          26
          27          27
          28          28
          29          29
          30          30
          31          31
          32          32
          33          33
          34          34
          35          35
          36          36
          37          37
          38          38
          39          39
          40          40
          41          41
          42          42
          43          43
          44          44
          45          45
          46          46
          47          47
          48          48
          49          49
          50          50
          51          51
          52          52
          53          53
          54          54
          55          55
          56          56
          57          57
          58          58
          59          59
          60          60
          61          61
          62          62
          63          63
          64          64
          65          65
          66          66
          67          67
          68          68
          69          69
          70          70
          71          71
          72          72
          73          73
          74          74
          75          75
          76          76
          77          77
          78          78
          79          79
          80          80
          81          81
          82          82
          83          83
          84          84
          85          85
          86          86
          87          87
          88          88
          89          89
          90          90
          91          91
          92          92
          93          93
          94          94
          95          95
          96          96
          97          97
          98          98
          99          99
         100         100
         101         101
         102         102
         103         103
         104         104
         105         105
         106         106
         107         107
         108         108
         109         109
 initial cartes coords mol 1
   6  -0.26108  -1.20529  16.90884
   6   0.36948  -2.24099  15.97102
   6   1.78639  -2.65148  16.38774
   7   0.31275  -1.80738  14.54466
   6   1.02237  -0.66169  14.14940
   8   1.68143  -0.02030  14.96021
   6   0.93623  -0.27565  12.73340
   6   1.62376   0.85493  12.29073
   6   1.56463   1.24442  10.96595
   6   0.81377   0.52382  10.01001
   6   0.74542   0.91971   8.62019
   6   1.43463   2.05674   8.12885
   6   1.36497   2.42744   6.80865
   6   0.59968   1.68729   5.89032
   6   0.56185   2.12432   4.51493
   8   1.15967   3.08818   4.06092
   7  -0.23987   1.31168   3.61700
   6  -0.30466   1.69468   2.26786
   6  -0.18367   0.72545   1.24079
   6  -0.23915   1.09834  -0.07812
   6  -0.43355   2.46176  -0.43637
   6  -0.49724   2.84047  -1.77092
   6  -0.55235   3.17587  -2.94896
   6  -0.61695   3.55941  -4.29390
   6  -0.76668   4.92190  -4.64479
   6  -0.81806   5.26720  -5.98300
   6  -0.73773   4.28866  -6.97450
   6  -0.58590   2.92293  -6.65748
   6  -0.49921   1.89050  -7.69123
   6  -0.85220   0.55894  -7.59851
   6  -0.63269  -0.15087  -8.79866
   6  -0.11378   0.63376  -9.80417
  16   0.12244   2.27000  -9.29914
   6   0.09521  -0.13139 -11.01685
   6   0.59662   0.22251 -12.27542
   6   0.67175  -0.76187 -13.24586
   6   0.24979  -2.08628 -12.96179
   6  -0.25100  -2.43899 -11.70366
   6  -0.32597  -1.45349 -10.73192
   6  -0.83090  -1.57757  -9.28700
   6  -2.31912  -1.98724  -9.24579
   6   0.02321  -2.57677  -8.47715
   6   0.45737  -2.85417 -14.17336
  16   0.21957  -4.49141 -14.68528
   6   0.83825  -4.09837 -16.26905
   6   1.20213  -2.78228 -16.38213
   6   0.98165  -2.07004 -15.17517
   6   1.17718  -0.64221 -14.69064
   6   2.66466  -0.22997 -14.73274
   6   0.32220   0.35312 -15.50450
   6  -0.51748   2.57681  -5.30596
   6  -0.56130   3.43006   0.59865
   6  -0.49119   3.05493   1.91632
   6  -0.97826   0.12868   4.02229
   8  -1.64028  -0.46716   3.18589
   6  -0.87932  -0.22422   5.41858
   6  -1.57652  -1.35646   5.87561
   6  -1.51457  -1.73850   7.19292
   6  -0.75278  -1.01335   8.14332
   6  -0.68106  -1.41153   9.53217
   6  -1.35877  -2.54751  10.02966
   6  -1.28284  -2.91769  11.35895
   6  -0.52586  -2.17352  12.26509
   6  -0.46750  -2.59632  13.67075
   8  -1.06364  -3.58573  14.07848
   6   0.17049  -1.02955  11.81782
   6   0.10039  -0.63558  10.44107
   6  -0.03744   0.14583   7.70707
   6  -0.10640   0.54029   6.32473
   1  -0.32637  -1.62603  17.91668
   1   0.32840  -0.29023  16.94764
   1  -1.27532  -0.95995  16.58275
   1  -0.25612  -3.13095  15.98289
   1   2.46098  -1.79655  16.40573
   1   1.75256  -3.09542  17.38713
   1   2.18529  -3.40322  15.70144
   1   2.20305   1.41600  13.01305
   1   2.11310   2.12702  10.66863
   1   2.03460   2.65391   8.80003
   1   1.89812   3.29750   6.44729
   1  -0.03760  -0.30808   1.50722
   1  -0.12228   0.35940  -0.86029
   1  -0.83529   5.67075  -3.86700
   1  -0.93414   6.30554  -6.26852
   1  -0.80814   4.58603  -8.01395
   1  -1.28168   0.13190  -6.70124
   1   0.91571   1.23937 -12.47892
   1  -0.56969  -3.45588 -11.50076
   1  -2.93458  -1.28877  -9.81638
   1  -2.45535  -2.98670  -9.66682
   1  -2.68437  -2.00513  -8.21511
   1   1.07890  -2.29869  -8.49857
   1  -0.30473  -2.60487  -7.43418
   1  -0.07333  -3.58608  -8.88542
   1   0.89239  -4.87362 -17.01787
   1   1.60651  -2.36241 -17.29376
   1   3.28039  -0.92431 -14.15744
   1   3.02958  -0.22136 -15.76344
   1   2.80068   0.77344 -14.32005
   1  -0.73340   0.07498 -15.47963
   1   0.42063   1.36606 -15.10458
   1   0.64739   0.37138 -16.54829
   1  -0.36729   1.54586  -5.01413
   1  -0.72730   4.46619   0.33344
   1  -0.58694   3.79170   2.69637
   1  -2.16357  -1.91933   5.16120
   1  -2.06576  -2.61504   7.50100
   1  -1.95677  -3.15429   9.36452
   1  -1.80718  -3.79071  11.72626
 initial cartes coords mol 2
   6  -1.07734   3.20896  16.34988
   6   0.02950   2.19444  16.04478
   6   0.02569   0.98460  16.98489
   7   0.01734   1.77746  14.60599
   6  -1.09161   1.08565  14.10414
   8  -2.04951   0.81395  14.81320
   6  -1.06007   0.69481  12.67831
   6  -2.15121   0.00262  12.13941
   6  -2.15287  -0.37636  10.81246
   6  -1.06019  -0.08293   9.95046
   6  -1.04776  -0.47265   8.56309
   6  -2.12882  -1.17633   7.96428
   6  -2.10443  -1.54535   6.63532
   6  -1.00120  -1.23269   5.83169
   6  -1.01370  -1.64652   4.41435
   8  -1.94623  -2.25159   3.91868
   7   0.12162  -1.30371   3.65053
   6   0.13618  -1.69878   2.25985
   6  -0.02382  -0.73871   1.26488
   6  -0.00696  -1.11546  -0.07007
   6   0.16643  -2.46372  -0.43105
   6   0.18231  -2.85284  -1.79872
   6   0.19674  -3.18471  -2.96279
   6   0.21236  -3.57857  -4.33041
   6   0.38007  -4.93021  -4.68335
   6   0.40258  -5.29512  -6.02317
   6   0.25141  -4.33965  -7.02269
   6   0.08468  -2.98222  -6.69849
   6  -0.08493  -1.95925  -7.73418
   6  -0.76278  -0.76050  -7.65155
   6  -0.71531  -0.01748  -8.85327
   6  -0.00591  -0.64342  -9.85141
  16   0.63379  -2.16601  -9.33544
   6   0.01095   0.15185 -11.06385
   6   0.59338  -0.06026 -12.31884
   6   0.42393   0.91357 -13.29037
   6  -0.31927   2.08671 -13.01201
   6  -0.90192   2.29858 -11.75760
   6  -0.73274   1.32492 -10.78559
   6  -1.26358   1.31349  -9.34453
   6  -2.80700   1.33516  -9.31480
   6  -0.69619   2.49425  -8.52763
   6  -0.30191   2.88347 -14.22557
  16  -0.94056   4.40829 -14.74299
   6  -0.23082   4.18614 -16.32372
   6   0.45281   3.00424 -16.42930
   6   0.40967   2.25859 -15.22173
   6   0.95388   0.92546 -14.73184
   6   2.49720   0.89900 -14.76258
   6   0.38257  -0.25295 -15.54943
   6   0.07587  -2.61907  -5.34485
   6   0.32420  -3.41957   0.58860
   6   0.31108  -3.03770   1.92210
   6   1.24471  -0.60493   4.14194
   8   2.18813  -0.34329   3.41889
   6   1.20539  -0.21701   5.56575
   6   2.29591   0.47483   6.10696
   6   2.29600   0.85326   7.43351
   6   1.20205   0.55951   8.29330
   6   1.18939   0.94950   9.68054
   6   2.26874   1.65368  10.28213
   6   2.24324   2.02078  11.61219
   6   1.13989   1.70547  12.41472
   6   1.14566   2.11388  13.83466
   8   2.09199   2.71823  14.31537
   6   0.04617   1.00784  11.86116
   6   0.05862   0.62174  10.48632
   6   0.08328  -0.14558   7.75623
   6   0.09590  -0.53284   6.38063
   1  -0.93724   3.59302  17.36401
   1  -2.06676   2.75863  16.28185
   1  -1.02456   4.05722  15.66249
   1   0.98801   2.69860  16.14596
   1  -0.91872   0.44363  16.94166
   1   0.18328   1.33087  18.01000
   1   0.84002   0.29914  16.73624
   1  -2.98600  -0.22403  12.78996
   1  -3.01215  -0.90933  10.43088
   1  -2.99664  -1.43437   8.55438
   1  -2.93017  -2.08136   6.18534
   1  -0.15492   0.30104   1.53730
   1  -0.12781  -0.37019  -0.84624
   1   0.49273  -5.67388  -3.90449
   1   0.52815  -6.33733  -6.29392
   1   0.24153  -4.64823  -8.06151
   1  -1.29418  -0.45907  -6.75819
   1   1.16061  -0.96326 -12.51961
   1  -1.46942   3.20143 -11.55693
   1  -3.22092   0.50582  -9.89200
   1  -3.18913   2.26983  -9.73445
   1  -3.17187   1.25367  -8.28694
   1   0.39564   2.49120  -8.54253
   1  -1.02553   2.43307  -7.48642
   1  -1.04236   3.44840  -8.93445
   1  -0.36818   4.95022 -17.07326
   1   0.95741   2.69844 -17.33666
   1   2.91385   1.72658 -14.18481
   1   2.86136   0.98058 -15.79073
   1   2.87723  -0.03719 -14.34432
   1  -0.70923  -0.24691 -15.53310
   1   0.72675  -1.20866 -15.14444
   1   0.71057  -0.19118 -16.59105
   1  -0.01588  -1.57690  -5.06690
   1   0.45753  -4.46081   0.32309
   1   0.43091  -3.77792   2.70325
   1   3.13172   0.70159   5.45762
   1   3.15477   1.38572   7.81684
   1   3.13697   1.91396   9.69351
   1   3.06860   2.55661  12.06277
 loop 1 0
 mod cartes coords mol 2
   6  -1.07734   3.20896  16.34988
   6   0.02950   2.19444  16.04478
   6   0.02569   0.98460  16.98489
   7   0.01734   1.77746  14.60599
   6  -1.09161   1.08565  14.10414
   8  -2.04951   0.81395  14.81320
   6  -1.06007   0.69481  12.67831
   6  -2.15121   0.00262  12.13941
   6  -2.15287  -0.37636  10.81246
   6  -1.06019  -0.08293   9.95046
   6  -1.04776  -0.47265   8.56309
   6  -2.12882  -1.17633   7.96428
   6  -2.10443  -1.54535   6.63532
   6  -1.00120  -1.23269   5.83169
   6  -1.01370  -1.64652   4.41435
   8  -1.94623  -2.25159   3.91868
   7   0.12162  -1.30371   3.65053
   6   0.13618  -1.69878   2.25985
   6  -0.02382  -0.73871   1.26488
   6  -0.00696  -1.11546  -0.07007
   6   0.16643  -2.46372  -0.43105
   6   0.18231  -2.85284  -1.79872
   6   0.19674  -3.18471  -2.96279
   6   0.21236  -3.57857  -4.33041
   6   0.38007  -4.93021  -4.68335
[...]
  7.966760351932166E-005  1.708260968147795E-008
  8.142872035575644E-005  1.708260968147795E-008
  8.254172554320121E-005  1.708260968147795E-008
  8.585510063532085E-005  1.708260968147795E-008
  8.746478337092698E-005  1.708260968147795E-008
  8.889475248163540E-005  1.708260968147795E-008
  9.059323775541264E-005  1.708260968147795E-008
  9.316458628654670E-005  1.708260968147795E-008
  9.500086637373198E-005  1.708260968147795E-008
  9.550482875389212E-005  1.708260968147795E-008
  9.845320171162918E-005  1.708260968147795E-008
  1.012273735543106E-004  1.708260968147795E-008
  1.077236660288891E-004  1.708260968147795E-008
  1.127750645807123E-004  1.708260968147795E-008
  1.156896961938424E-004  1.708260968147795E-008
  1.195165606203276E-004  1.708260968147795E-008
  1.206936274367115E-004  1.708260968147795E-008
  1.224725126845420E-004  1.708260968147795E-008
  1.225423361798792E-004  1.708260968147795E-008
  1.261637583141986E-004  1.708260968147795E-008
  1.319395106743213E-004  1.708260968147795E-008
  1.343569790650298E-004  1.708260968147795E-008
  1.354642243559688E-004  1.708260968147795E-008
  1.363598354535738E-004  1.708260968147795E-008
  1.373245093945604E-004  1.708260968147795E-008
  1.407072295847469E-004  1.708260968147795E-008
  1.438359324991360E-004  1.708260968147795E-008
  1.476174332947598E-004  1.708260968147795E-008
  1.486417033122613E-004  1.708260968147795E-008
  1.569219052334421E-004  1.708260968147795E-008
  1.588871588437369E-004  1.708260968147795E-008
  1.603606033857926E-004  1.708260968147795E-008
  1.632460710118607E-004  1.708260968147795E-008
  1.673695641730553E-004  1.708260968147795E-008
  1.783158342075800E-004  1.708260968147795E-008
  1.785569147856752E-004  1.708260968147795E-008
  1.813197286113965E-004  1.708260968147795E-008
  1.851569010379818E-004  1.708260968147795E-008
  1.919442809007304E-004  1.708260968147795E-008
  2.009206039936498E-004  1.708260968147795E-008
  2.117921171206407E-004  1.708260968147795E-008
  2.219865469744783E-004  1.708260968147795E-008
  2.232696947134125E-004  1.708260968147795E-008
  2.293256301188267E-004  1.708260968147795E-008
  2.301088349715369E-004  1.708260968147795E-008
  2.301344845611035E-004  1.708260968147795E-008
  2.507482523032198E-004  1.708260968147795E-008
  2.554765855173270E-004  1.708260968147795E-008
  2.687501141750278E-004  1.708260968147795E-008
  2.750092253386422E-004  1.708260968147795E-008
  2.856686634907637E-004  1.708260968147795E-008
  2.863498041555433E-004  1.708260968147795E-008
  2.937491743793683E-004  1.708260968147795E-008
  2.949075184130789E-004  1.708260968147795E-008
  3.014664794359835E-004  1.708260968147795E-008
  3.051177184176977E-004  1.708260968147795E-008
  3.111353333681652E-004  1.708260968147795E-008
  3.219099199436832E-004  1.708260968147795E-008
  3.414145020289671E-004  1.708260968147795E-008
  3.428924583276049E-004  1.708260968147795E-008
  3.554626306959279E-004  1.708260968147795E-008
  3.597376375038856E-004  1.708260968147795E-008
  3.647002739343793E-004  1.708260968147795E-008
  3.807785228184676E-004  1.708260968147795E-008
  3.809075850136073E-004  1.708260968147795E-008
  3.831069913646902E-004  1.708260968147795E-008
  3.862201675313951E-004  1.708260968147795E-008
  3.919813726165653E-004  1.708260968147795E-008
  3.924837921497108E-004  1.708260968147795E-008
  3.971761719865780E-004  1.708260968147795E-008
  4.091740990080900E-004  1.708260968147795E-008
  4.129569475126965E-004  1.708260968147795E-008
  4.231445823298898E-004  1.708260968147795E-008
  4.259044455330782E-004  1.708260968147795E-008
  4.286683222171330E-004  1.708260968147795E-008
  4.316715026988423E-004  1.708260968147795E-008
  4.325992315529530E-004  1.708260968147795E-008
  4.363475669154299E-004  1.708260968147795E-008
  4.411495879146759E-004  1.708260968147795E-008
  4.421767621031195E-004  1.708260968147795E-008
  4.458146021304817E-004  1.708260968147795E-008
  4.587670828352115E-004  1.708260968147795E-008
  4.606540909393647E-004  1.708260968147795E-008
  4.619443090530630E-004  1.708260968147795E-008
  4.669200889324790E-004  1.708260968147795E-008
  4.687750921363050E-004  1.708260968147795E-008
  4.814168848064814E-004  1.708260968147795E-008
  4.952534205228589E-004  1.708260968147795E-008
  5.067281303855998E-004  1.708260968147795E-008
  5.106870598686229E-004  1.708260968147795E-008
  5.230028641463749E-004  1.708260968147795E-008
  5.337971776039998E-004  1.708260968147795E-008
  5.343997213718756E-004  1.708260968147795E-008
  5.345271436959792E-004  1.708260968147795E-008
  5.348119176544539E-004  1.708260968147795E-008
  5.371650870355367E-004  1.708260968147795E-008
  5.437760114538250E-004  1.708260968147795E-008
  5.440331073078654E-004  1.708260968147795E-008
  5.540854518960103E-004  1.708260968147795E-008
  5.559447674333160E-004  1.708260968147795E-008
  5.560116399712238E-004  1.708260968147795E-008
  5.561670961642357E-004  1.708260968147795E-008
  5.561994824441340E-004  1.708260968147795E-008
  5.562068962421919E-004  1.708260968147795E-008
  5.562074966926687E-004  1.708260968147795E-008
  5.739865963813697E-004  1.708260968147795E-008
  5.784060704854479E-004  1.708260968147795E-008
  5.784411265275243E-004  1.708260968147795E-008
  5.877724808723407E-004  1.708260968147795E-008
  5.939536185069771E-004  1.708260968147795E-008
  5.944638438044776E-004  1.708260968147795E-008
  5.963185701326156E-004  1.708260968147795E-008
  5.979538650452111E-004  1.708260968147795E-008
  5.984834002211240E-004  1.708260968147795E-008
  5.988894745942232E-004  1.708260968147795E-008
  5.992389392172684E-004  1.708260968147795E-008
  5.995399038822917E-004  1.708260968147795E-008
  5.998493489322652E-004  1.708260968147795E-008
  6.001830200597049E-004  1.708260968147795E-008
  6.004596503749829E-004  1.708260968147795E-008
  6.021876094772828E-004  1.708260968147795E-008
  6.100405787504892E-004  1.708260968147795E-008
  6.166513529862166E-004  1.708260968147795E-008
  6.224497303358094E-004  1.708260968147795E-008
  6.249607845640461E-004  1.708260968147795E-008
  6.254036006577530E-004  1.708260968147795E-008
  6.287085397413788E-004  1.708260968147795E-008
  6.342647335124871E-004  1.708260968147795E-008
  6.362366027787823E-004  1.708260968147795E-008
  6.370998712339344E-004  1.708260968147795E-008
  6.407441703895064E-004  1.708260968147795E-008
  6.442277240067710E-004  1.708260968147795E-008
  6.450014453600681E-004  1.708260968147795E-008
  6.468154805519959E-004  1.708260968147795E-008
  6.501746634272824E-004  1.708260968147795E-008
  6.521132647921087E-004  1.708260968147795E-008
  6.704927298571303E-004  1.708260968147795E-008
  6.753835486589182E-004  1.708260968147795E-008
  6.758963925729731E-004  1.708260968147795E-008
  6.939349609308307E-004  1.708260968147795E-008
  6.977132766146475E-004  1.708260968147795E-008
  6.984976398285595E-004  1.708260968147795E-008
  7.677483352184847E-004  1.708260968147795E-008
  7.975380803651093E-004  1.708260968147795E-008
  8.127214983771028E-004  1.708260968147795E-008
  8.507341225157745E-004  1.708260968147795E-008
  9.049742098338439E-004  1.708260968147795E-008
  9.376230170569864E-004  1.708260968147795E-008
  9.861818516236475E-004  1.708260968147795E-008
  9.890696872538040E-004  1.708260968147795E-008
  9.907862757111462E-004  1.708260968147795E-008
  1.062956066708111E-003  1.708260968147795E-008
  1.074542891312697E-003  1.708260968147795E-008
  1.079311046850614E-003  1.708260968147795E-008
  1.089790875772915E-003  1.708260968147795E-008
  1.093223559400884E-003  1.708260968147795E-008
  1.094156386192244E-003  1.708260968147795E-008
  1.094847345619215E-003  1.708260968147795E-008
  1.095347335000564E-003  1.708260968147795E-008
  1.098381552334202E-003  1.708260968147795E-008
  1.106324827560044E-003  1.708260968147795E-008
  1.110067876379343E-003  1.708260968147795E-008
  1.126844302892186E-003  1.708260968147795E-008
  1.132832656949057E-003  1.708260968147795E-008
  1.133797113179519E-003  1.708260968147795E-008
  1.135367294711861E-003  1.708260968147795E-008
  1.142244710821956E-003  1.708260968147795E-008
  1.142964748707994E-003  1.708260968147795E-008
  1.147786162900606E-003  1.708260968147795E-008
  1.154443096468215E-003  1.708260968147795E-008
  1.165393198040055E-003  1.708260968147795E-008
  1.165523048168999E-003  1.708260968147795E-008
  1.165856577234140E-003  1.708260968147795E-008
  1.166085390299908E-003  1.708260968147795E-008
  1.171154528224260E-003  1.708260968147795E-008
  1.171718697117431E-003  1.708260968147795E-008
  1.171739933854858E-003  1.708260968147795E-008
  1.173749082285030E-003  1.708260968147795E-008
  1.178873526691821E-003  1.708260968147795E-008
  1.179430433445372E-003  1.708260968147795E-008
  1.179929395497989E-003  1.708260968147795E-008
  1.180284192941833E-003  1.708260968147795E-008
  1.181504744808552E-003  1.708260968147795E-008
  1.185590650510916E-003  1.708260968147795E-008
  1.207119272150246E-003  1.708260968147795E-008
  1.261437975439757E-003  1.708260968147795E-008
  1.295303853664287E-003  1.708260968147795E-008
  1.372822903922416E-003  1.708260968147795E-008
  1.481804832945495E-003  1.708260968147795E-008
  1.533769940934179E-003  1.708260968147795E-008
  1.560392958124628E-003  1.708260968147795E-008
  1.584787020980001E-003  1.708260968147795E-008
  1.609977288122420E-003  1.708260968147795E-008
  1.659842062464397E-003  1.708260968147795E-008
  1.668819441598303E-003  1.708260968147795E-008
  1.669021422176375E-003  1.708260968147795E-008
  1.715147379498152E-003  1.708260968147795E-008
  1.720653159298607E-003  1.708260968147795E-008
  1.783548097500433E-003  1.708260968147795E-008
  1.906047027478481E-003  1.708260968147795E-008
  1.918591190792114E-003  1.708260968147795E-008
  2.035988430196290E-003  1.708260968147795E-008
  2.053972292182503E-003  1.708260968147795E-008
  2.161771057191394E-003  1.708260968147795E-008
  2.280162531417445E-003  1.708260968147795E-008
  2.338955397610252E-003  1.708260968147795E-008
  2.341253077522764E-003  1.708260968147795E-008
  2.351774310567419E-003  1.708260968147795E-008
  2.371364265825518E-003  1.708260968147795E-008
  2.521390458075243E-003  1.708260968147795E-008
  2.526405597275290E-003  1.708260968147795E-008
  2.560363493993498E-003  1.708260968147795E-008
  2.789528397357128E-003  1.708260968147795E-008
  2.921878129198889E-003  1.708260968147795E-008
  3.023489032703180E-003  1.708260968147795E-008
  3.025126022083587E-003  1.708260968147795E-008
  3.027697619649147E-003  1.708260968147795E-008
  3.030448290249444E-003  1.708260968147795E-008
  3.033949484173449E-003  1.708260968147795E-008
  3.042079934082082E-003  1.708260968147795E-008
  3.042896927887986E-003  1.708260968147795E-008
  3.046704899043925E-003  1.708260968147795E-008
  3.046728385073626E-003  1.708260968147795E-008
  3.081279251656049E-003  1.708260968147795E-008
  3.091840329858110E-003  1.708260968147795E-008
  3.092116304440877E-003  1.708260968147795E-008
  3.096107286330907E-003  1.708260968147795E-008
  3.122737106731843E-003  1.708260968147795E-008
  3.412251795518375E-003  1.708260968147795E-008
  3.417501816694987E-003  1.708260968147795E-008
  3.640922404307232E-003  1.708260968147795E-008
  3.668652746048258E-003  1.708260968147795E-008
  3.675226908945902E-003  1.708260968147795E-008
  3.676994242579171E-003  1.708260968147795E-008
  3.721906983197862E-003  1.708260968147795E-008
  3.723603693383264E-003  1.708260968147795E-008
  3.772219183628670E-003  1.708260968147795E-008
  3.916961450850640E-003  1.708260968147795E-008
  3.944988416862111E-003  1.708260968147795E-008
  4.039153310726739E-003  1.708260968147795E-008
   21.8043774498519       1.708260968147795E-008
   34.8547693998071       1.708260968147795E-008
   398.177614849277       1.708260968147795E-008
 cut=1d-8, nber non-redundant internal coords=         321
 Check on Eigenvals of non-red overlap matrix:
  0.00000002  0.00000011  0.00000021  0.00000032  0.00000049  0.00000089  0.00000131  0.00000149
  0.00000200  0.00000266  0.00000318  0.00000369  0.00000461  0.00000542  0.00000624  0.00000717
  0.00000802  0.00000959  0.00001032  0.00001054  0.00001128  0.00001141  0.00001369  0.00001434
  0.00001561  0.00001573  0.00001645  0.00001763  0.00001785  0.00001826  0.00001849  0.00001891
  0.00002157  0.00002238  0.00002389  0.00002432  0.00002457  0.00002549  0.00002828  0.00002947
  0.00002997  0.00003088  0.00003252  0.00003345  0.00003511  0.00003598  0.00003831  0.00003866
  0.00003994  0.00004078  0.00004253  0.00004261  0.00004383  0.00004524  0.00004758  0.00004879
  0.00004884  0.00004917  0.00005105  0.00005227  0.00005235  0.00005365  0.00005518  0.00005658
  0.00005814  0.00005862  0.00006023  0.00006073  0.00006335  0.00006456  0.00006727  0.00006903
  0.00007100  0.00007134  0.00007236  0.00007387  0.00007502  0.00007766  0.00007967  0.00008143
  0.00008254  0.00008586  0.00008746  0.00008889  0.00009059  0.00009316  0.00009500  0.00009550
  0.00009845  0.00010123  0.00010772  0.00011278  0.00011569  0.00011952  0.00012069  0.00012247
  0.00012254  0.00012616  0.00013194  0.00013436  0.00013546  0.00013636  0.00013732  0.00014071
  0.00014384  0.00014762  0.00014864  0.00015692  0.00015889  0.00016036  0.00016325  0.00016737
  0.00017832  0.00017856  0.00018132  0.00018516  0.00019194  0.00020092  0.00021179  0.00022199
  0.00022327  0.00022933  0.00023011  0.00023013  0.00025075  0.00025548  0.00026875  0.00027501
  0.00028567  0.00028635  0.00029375  0.00029491  0.00030147  0.00030512  0.00031114  0.00032191
  0.00034141  0.00034289  0.00035546  0.00035974  0.00036470  0.00038078  0.00038091  0.00038311
  0.00038622  0.00039198  0.00039248  0.00039718  0.00040917  0.00041296  0.00042314  0.00042590
  0.00042867  0.00043167  0.00043260  0.00043635  0.00044115  0.00044218  0.00044581  0.00045877
  0.00046065  0.00046194  0.00046692  0.00046878  0.00048142  0.00049525  0.00050673  0.00051069
  0.00052300  0.00053380  0.00053440  0.00053453  0.00053481  0.00053717  0.00054378  0.00054403
  0.00055409  0.00055594  0.00055601  0.00055617  0.00055620  0.00055621  0.00055621  0.00057399
  0.00057841  0.00057844  0.00058777  0.00059395  0.00059446  0.00059632  0.00059795  0.00059848
  0.00059889  0.00059924  0.00059954  0.00059985  0.00060018  0.00060046  0.00060219  0.00061004
  0.00061665  0.00062245  0.00062496  0.00062540  0.00062871  0.00063426  0.00063624  0.00063710
  0.00064074  0.00064423  0.00064500  0.00064682  0.00065017  0.00065211  0.00067049  0.00067538
  0.00067590  0.00069393  0.00069771  0.00069850  0.00076775  0.00079754  0.00081272  0.00085073
  0.00090497  0.00093762  0.00098618  0.00098907  0.00099079  0.00106296  0.00107454  0.00107931
  0.00108979  0.00109322  0.00109416  0.00109485  0.00109535  0.00109838  0.00110632  0.00111007
  0.00112684  0.00113283  0.00113380  0.00113537  0.00114224  0.00114296  0.00114779  0.00115444
  0.00116539  0.00116552  0.00116586  0.00116609  0.00117115  0.00117172  0.00117174  0.00117375
  0.00117887  0.00117943  0.00117993  0.00118028  0.00118150  0.00118559  0.00120712  0.00126144
  0.00129530  0.00137282  0.00148180  0.00153377  0.00156039  0.00158479  0.00160998  0.00165984
  0.00166882  0.00166902  0.00171515  0.00172065  0.00178355  0.00190605  0.00191859  0.00203599
  0.00205397  0.00216177  0.00228016  0.00233896  0.00234125  0.00235177  0.00237136  0.00252139
  0.00252641  0.00256036  0.00278953  0.00292188  0.00302349  0.00302513  0.00302770  0.00303045
  0.00303395  0.00304208  0.00304290  0.00304670  0.00304673  0.00308128  0.00309184  0.00309212
  0.00309611  0.00312274  0.00341225  0.00341750  0.00364092  0.00366865  0.00367523  0.00367699
  0.00372191  0.00372360  0.00377222  0.00391696  0.00394499  0.00403915 21.80437745 34.85476940
398.17761485
 d1=
  80.5************ 826.2******1662.4 485.9 -69.4 120.1-228.4  -9.9-266.2-243.8-183.1  69.0  28.8 -64.5  37.8  34.2 -47.5
  17.3 -81.4  34.3 -48.8 -10.0 -31.1  13.2-151.7-165.7  87.1 -70.5-179.7   4.2 -83.2  27.6  30.1  41.1  42.6  46.2 -32.1
 -12.6 -57.1-180.4  10.2   9.0 -13.0 -46.1  99.3   0.0  77.8-104.6 190.1 -35.0   9.3 -20.7  -1.7  14.1   7.5 -21.8   8.9
  -4.4  -4.2 -33.2  37.2 -12.4  -9.2 115.2 -21.7 -87.3 -88.5 -47.7 -87.1 -29.2 -13.2  25.5 -30.3  -9.2  -1.5  17.3  30.1
  26.0 -10.7  59.4  15.1   5.6  -4.4   5.2  -6.5  12.4 -29.3  -2.6 -25.6  -6.7   3.1  -5.5  -3.1  -3.2  23.4  -0.1  -3.6
   0.4  -0.4   0.0  -0.9  -0.4   1.9   0.6  -1.2   4.0   0.2   2.3   2.5   5.4   2.2   1.7  -4.3 -14.5  -0.5  -1.7  -0.1
  -3.2  -0.0  -2.9  -4.2   0.3   1.4  -1.4   1.7   0.5  11.6  -2.0   0.4   0.3  -3.4   4.2   1.0  -0.9   2.9   3.4  -0.7
   0.9   2.1  -1.3  -1.0   0.0   1.6  -0.2   1.7   1.8  -8.8  -4.7  11.7   1.8   0.8   0.7   0.6  -1.2   0.8   0.9   0.1
  -0.4   0.9  -0.9  -0.9  -1.9   0.0   0.5   0.4   0.3   0.2  -3.6   2.3  -2.0  -0.1   5.0  22.7  -0.2   1.0   0.0   0.3
  -0.0   0.5   0.1  -8.5   0.0  -0.0  -0.1   0.5   0.2   1.0  -1.5  -0.2  -0.1   0.1  -0.1  -0.2  -0.4  -0.5   0.1  -2.9
 -10.7 -22.3  -0.2   0.1   2.9  -0.1  -0.2   0.7  -0.1   0.2  -0.0   0.1  -0.7   0.4   6.5  -0.1   0.1   6.1   0.1   1.3
   0.1  18.3   2.7   0.3  -0.8  -2.2  -0.0   0.2 -12.9  -0.1   0.1   0.1  -0.0  -0.0  -0.0  -0.1   0.1  -0.0   0.0  -0.6
  -0.0   0.1  -0.0   0.2   0.1  -0.1   0.3  -0.1   0.0  -0.1   0.0   0.2   0.1   0.4   0.8   0.2   0.1  -0.3   0.0   0.1
  -0.0   0.0   8.1   2.4  -0.6  -0.5  -5.2  -0.3   0.2   0.0   0.0  -0.2   0.3  -0.0  -0.0  -3.0  -0.1  -0.1   0.1  -0.0
  -0.1  -0.0  -0.0  -0.0  -0.1   4.2   0.0  -0.8  -0.0  -0.0  -0.0  -0.0   0.0  -0.0  -0.0  -0.0  -0.0  -0.1  -0.1  -0.1
  -0.0  -0.0  -0.3  -0.0  -0.1   0.1   0.0   0.0  -0.0  -0.2   0.2  -0.1  -0.0  -0.2  -3.4   0.1   0.1   0.0  -0.1  -0.0
   0.0
 d2=
 -78.5******-156.9******-960.6******-369.6-210.5  57.4 110.1 169.2-261.5-255.8 115.9 137.5 -14.1 -11.6 -32.0 -70.1  53.2
   7.0 -58.0 -59.2 -48.6 -15.0  21.6  -0.7 153.4-123.9 -87.4 173.0 -49.8 -20.8-150.4  13.8  62.7 -20.7   8.8 -17.4 -33.6
   6.9  56.7 173.7  19.8   4.3  11.0 -50.9  94.3   0.4  79.4 204.9 -54.4  34.0   3.7 -18.1 -28.7  -0.4   1.3 -27.1   8.2
  -4.6  13.9  20.2  22.2 -39.0  28.6  97.2 -85.5-104.8  63.9 -36.7   2.4  40.5  -9.7 -58.7 -26.3 -47.3  -6.0  60.2  -8.1
  -4.1  -7.6  55.6  23.6  10.2  -2.1  -1.0 -10.8  15.3   0.5 -30.6 -26.4   5.8 -11.5   0.7   2.8  -5.2  21.7   0.0  -3.5
  -0.4  -1.0   0.2   0.4   0.5  -2.1  -0.6   0.2  -3.8  -1.6   1.9  -2.5  -5.0   2.9  -2.2  -9.1  12.0   2.5   0.1   0.6
   3.8  -0.0   2.2  -2.3   0.1   4.3   0.2   1.8  11.0  -0.1  -0.1   2.0   1.9  -2.7   4.2  -0.7   2.5  -2.0  -0.4   3.4
  -0.5   0.2  -1.6  -0.2   0.7  -1.7  -0.1  -1.8  -1.2   1.3  14.5  -0.3   1.3  -0.8  -1.2  -0.7   1.7  -0.5   1.0  -0.1
   0.4  -0.9   0.5   0.7   1.5  -0.2   0.5   0.4  -0.4   0.6   3.7   0.5  -5.0  -0.1  -7.0  24.3   0.2   0.0   0.0  -0.1
  -0.3  -0.0   0.0  -4.6  -0.0   0.0   0.1   0.5  -0.2   0.8  -0.1   0.3   0.5   0.1   0.7   0.1   3.0  -1.5  -0.1   0.2
  -1.2   2.5 -23.3  -0.6  -1.5   2.6   0.2  -0.6  -0.1   0.1  -0.1   0.0   0.0  -0.2   7.1   0.1  -0.1  -6.5  -0.1  -0.4
  -0.1 -19.2   4.6  -0.0   0.7   2.1  -0.0 -13.9  -0.1  -0.1   0.1   0.1  -0.0   0.0  -0.0  -0.2  -0.0  -0.0  -0.0   0.7
  -0.1  -0.1   0.0  -0.1  -0.1  -0.1   0.3   0.1   0.0   0.0   0.2   0.1   0.1  -0.0   0.5   0.1  -0.3  -0.0   0.0  -0.0
  -0.6  -0.0   8.5  -2.2   0.6   0.6  -5.2   0.1  -0.1  -0.0  -0.0   0.0  -0.2   0.2   2.9  -0.1  -0.1   0.1  -0.1  -0.0
   0.1   0.0   0.0  -0.5   0.0   4.2   0.1  -0.8   0.0   0.0  -0.0   0.0  -0.0  -0.0  -0.0  -0.0  -0.0   0.1   0.0   0.1
   0.1  -0.0  -0.0  -0.1  -0.3  -0.1  -0.0  -0.0   0.0  -0.1   0.0   0.2  -0.0   0.2   3.4  -0.1  -0.1  -0.0   0.1  -0.1
  -0.0
 p1=

 p2=


 Displacement: in terms of nc of 1 THEN of nc of 2


 total reorg energy (cm**-1, kcal/mol)=        0.        0.      0.00      0.00
 Nber of molecules processed=           2
