 Enter ifcurve (0=recti, 1=orth curvi, 2=apprx curvi, -1 = skip
 And atom ordering flag, 0= never changes, 1= use the first order thenceforth,
  2= deduce it (does read on fail), 3= always read it
 Reading file: 
 ./CDT-BT_3_C0S1.log                                                            
                                          
  Entering Gaussian System, Link 0=g16                                          
  
 Gaussian format, type: g94, g98, g03= F F F
  #P Geom=AllCheck Guess=TCheck SCRF=Check GenChk RB3LYP TD(FC,Read)/6-3    
 energy type= TD      
 Original G94 input coords:
  6 -2.204443 -1.851785 -0.265628
  6 -2.542661 -1.265823  0.966766
  6 -1.620364 -0.489614  1.664450
  6 -0.356706 -0.309167  1.110938
 16  1.002111  0.598589  1.736178
  6  1.940859  0.118068  0.274632
  6  3.296237  0.543129  0.077842
  6  3.988893  1.361843  1.006721
  6  5.288607  1.748571  0.782879
  6  5.995338  1.346560 -0.386527
  6  7.343733  1.742911 -0.627262
  6  8.176850  1.432115 -1.726302
  6  9.439851  1.993975 -1.626126
  6 10.708501  2.013393 -2.458007
  6 11.618351  2.874637 -1.605680
  6 12.932159  3.364061 -1.663895
  6 13.250920  4.134229 -0.563719
 16 11.931843  4.274597  0.575436
  6 10.936572  3.281544 -0.445009
  6  9.627610  2.756283 -0.450471
 16  8.213177  2.779420  0.552543
  6  5.291392  0.522637 -1.316771
  6  3.994728  0.136350 -1.094213
  7  1.270961 -0.641366 -0.567028
  6  0.004553 -0.894931 -0.136871
  6 -0.948930 -1.675501 -0.820815
  1 -2.941504 -2.451463 -0.787889
  1 -3.532618 -1.418726  1.380731
  1 -1.884366 -0.039481  2.614031
  1  3.490000  1.691489  1.910805
  1  5.781450  2.374637  1.518502
  1  7.840914  0.817172 -2.548702
  1 11.113311  1.006533 -2.610759
  1 10.539897  2.444199 -3.451459
  1 13.633791  3.174806 -2.465879
  1 14.183703  4.632234 -0.347842
  1  5.786914  0.191515 -2.221179
  1  3.471302 -0.488071 -1.806057
  1 -0.676603 -2.121765 -1.769443
 nber atoms=          39
  Total Energy, E(TD-HF/TD-DFT) =  -2095.66621390                               
  
          32          49 "  -2095.66621390"
After scan for Atom:   Atom  AN      X      Y      Z        X      Y      Z        X      Y      Z   
After scan for Atom:   Atom  AN      X      Y      Z        X      Y      Z        X      Y      Z   
After scan for Atom:   Atom  AN      X      Y      Z        X      Y      Z        X      Y      Z   
After scan for Atom:   Atom  AN      X      Y      Z        X      Y      Z        X      Y      Z   
After scan for Atom:   Atom  AN      X      Y      Z        X      Y      Z        X      Y      Z   
After scan for Atom:   Atom  AN      X      Y      Z        X      Y      Z        X      Y      Z   
After scan for Atom:   Atom  AN      X      Y      Z        X      Y      Z        X      Y      Z   
After scan for Atom:   Atom  AN      X      Y      Z        X      Y      Z        X      Y      Z   
After scan for Atom:   Atom  AN      X      Y      Z        X      Y      Z        X      Y      Z   
After scan for Atom:   Atom  AN      X      Y      Z        X      Y      Z        X      Y      Z   
After scan for Atom:   Atom  AN      X      Y      Z        X      Y      Z        X      Y      Z   
After scan for Atom:   Atom  AN      X      Y      Z        X      Y      Z        X      Y      Z   
After scan for Atom:   Atom  AN      X      Y      Z        X      Y      Z        X      Y      Z   
After scan for Atom:   Atom  AN      X      Y      Z        X      Y      Z        X      Y      Z   
After scan for Atom:   Atom  AN      X      Y      Z        X      Y      Z        X      Y      Z   
After scan for Atom:   Atom  AN      X      Y      Z        X      Y      Z        X      Y      Z   
After scan for Atom:   Atom  AN      X      Y      Z        X      Y      Z        X      Y      Z   
After scan for Atom:   Atom  AN      X      Y      Z        X      Y      Z        X      Y      Z   
After scan for Atom:   Atom  AN      X      Y      Z        X      Y      Z        X      Y      Z   
After scan for Atom:   Atom  AN      X      Y      Z        X      Y      Z        X      Y      Z   
After scan for Atom:   Atom  AN      X      Y      Z        X      Y      Z        X      Y      Z   
After scan for Atom:   Atom  AN      X      Y      Z        X      Y      Z        X      Y      Z   
After scan for Atom:   Atom  AN      X      Y      Z        X      Y      Z        X      Y      Z   
After scan for Atom:   Atom  AN      X      Y      Z        X      Y      Z        X      Y      Z   
After scan for Atom:   Atom  AN      X      Y      Z        X      Y      Z        X      Y      Z   
After scan for Atom:   Atom  AN      X      Y      Z        X      Y      Z        X      Y      Z   
After scan for Atom:   Atom  AN      X      Y      Z        X      Y      Z        X      Y      Z   
After scan for Atom:   Atom  AN      X      Y      Z        X      Y      Z        X      Y      Z   
After scan for Atom:   Atom  AN      X      Y      Z        X      Y      Z        X      Y      Z   
After scan for Atom:   Atom  AN      X      Y      Z        X      Y      Z        X      Y      Z   
After scan for Atom:   Atom  AN      X      Y      Z        X      Y      Z        X      Y      Z   
After scan for Atom:   Atom  AN      X      Y      Z        X      Y      Z        X      Y      Z   
After scan for Atom:   Atom  AN      X      Y      Z        X      Y      Z        X      Y      Z   
After scan for Atom:   Atom  AN      X      Y      Z        X      Y      Z        X      Y      Z   
After scan for Atom:   Atom  AN      X      Y      Z        X      Y      Z        X      Y      Z   
After scan for Atom:   Atom  AN      X      Y      Z        X      Y      Z        X      Y      Z   
After scan for Atom:   Atom  AN      X      Y      Z        X      Y      Z        X      Y      Z   
 g94    frequencies=
     0.0    0.0    0.0    0.0    0.0    0.0   16.4   20.4   40.3   47.0
    60.2   88.7  100.3  136.9  146.5  148.1  189.7  203.9  221.7  240.8
   277.1  295.5  317.4  351.2  377.1  411.1  424.4  425.1  437.0  442.4
   455.2  504.5  519.0  520.4  541.8  559.1  568.6  578.9  594.2  602.0
   628.0  628.1  653.0  679.2  681.0  684.6  709.9  712.1  721.6  729.7
   765.4  781.0  787.9  807.5  815.7  855.9  868.9  876.0  896.6  935.4
   936.8  943.2  945.9  952.6  977.1  978.7  987.3  999.1 1013.8 1033.9
  1072.0 1100.7 1131.3 1141.1 1154.3 1179.5 1181.8 1194.2 1207.9 1223.6
  1256.0 1268.5 1276.7 1317.3 1320.8 1327.8 1339.9 1349.4 1355.9 1424.3
  1431.6 1443.9 1458.1 1465.0 1474.9 1479.1 1486.3 1492.9 1497.0 1500.3
  1537.4 1578.9 1618.9 1633.9 3021.0 3045.7 3162.6 3164.3 3175.6 3180.6
  3181.7 3187.8 3195.1 3201.2 3209.3 3219.3 3244.3
 g94    symmetries=
                                                 A      A      A      A
       A      A      A      A      A      A      A      A      A      A
       A      A      A      A      A      A      A      A      A      A
       A      A      A      A      A      A      A      A      A      A
       A      A      A      A      A      A      A      A      A      A
       A      A      A      A      A      A      A      A      A      A
       A      A      A      A      A      A      A      A      A      A
       A      A      A      A      A      A      A      A      A      A
       A      A      A      A      A      A      A      A      A      A
       A      A      A      A      A      A      A      A      A      A
       A      A      A      A      A      A      A      A      A      A
       A      A      A      A      A      A      A
 atomic masses:
 12.0000 12.0000 12.0000 12.0000 31.9721 12.0000 12.0000 12.0000 12.0000 12.0000
 12.0000 12.0000 12.0000 12.0000 12.0000 12.0000 12.0000 31.9721 12.0000 12.0000
 31.9721 12.0000 12.0000 14.0031 12.0000 12.0000  1.0078  1.0078  1.0078  1.0078
  1.0078  1.0078  1.0078  1.0078  1.0078  1.0078  1.0078  1.0078  1.0078
 looking for force constants in 
 ./CDT-BT_3_C0S1.fchk                                                           
  
 Cartesian Force Constants                  R   N=        6903                  
  
 n3=         117        6903
 g94-fc frequencies=
    -2.9   -0.3   -0.0   -0.0    0.0    0.1   16.4   20.4   40.3   47.0
    60.2   88.7  100.3  136.9  146.5  148.1  189.7  203.9  221.7  240.8
   277.1  295.5  317.4  351.2  377.1  411.1  424.5  425.1  437.0  442.4
   455.2  504.5  519.0  520.4  541.8  559.1  568.6  578.9  594.2  602.0
   628.0  628.1  653.0  679.2  681.1  684.6  709.9  712.1  721.6  729.7
   765.4  781.0  787.9  807.5  815.7  855.9  868.9  876.0  896.6  935.4
   936.8  943.2  945.9  952.6  977.1  978.7  987.3  999.1 1013.8 1033.9
  1072.0 1100.7 1131.3 1141.1 1154.4 1179.5 1181.8 1194.2 1207.9 1223.6
  1256.0 1268.5 1276.7 1317.3 1320.8 1327.8 1339.9 1349.4 1356.0 1424.4
  1431.6 1443.9 1458.1 1465.1 1475.0 1479.1 1486.4 1492.9 1497.0 1500.3
  1537.5 1579.0 1619.0 1633.9 3021.0 3045.7 3162.6 3164.3 3175.7 3180.7
  3181.7 3187.9 3195.2 3201.3 3209.4 3219.4 3244.4
 at 99999: n3=         117
 symm operator            1 :  F  nop=           0
 symm operator            2 :  F  nop=           0
 symm operator            3 :  F  nop=           0
 symm operator            4 :  F  nop=           0
 symm operator            5 :  F  nop=           0
 symm operator            6 :  F  nop=           0
 symm operator            7 :  F  nop=           0
 The point group of the molecule is  C1
 Symmetry rotation matrix:
   1.00000   0.00000   0.00000
   0.00000   1.00000   0.00000
   0.00000   0.00000   1.00000

 Projecting out zero-frequency components
 generating redundant internal coords
         300        3600          39
 search for int coords
   1 str   2   1   1.406
   2 str   3   2   1.393
   3 str   4   3   1.391
   4 str   5   4   1.750
   5 str   6   5   1.802
   6 str   7   6   1.434
   7 str   8   7   1.419
   8 str   9   8   1.374
   9 str  10   9   1.424
  10 str  11  10   1.426
  11 str  12  11   1.414
  12 str  13  12   1.386
  13 str  14  13   1.517
  14 str  15  14   1.515
  15 str  16  15   1.403
  16 str  17  16   1.380
  17 str  18  17   1.749
  18 str  19  15   1.406
  19 str  19  18   1.737
  20 str  20  13   1.414
  21 str  20  19   1.410
  22 str  21  11   1.795
  23 str  21  20   1.734
  24 str  22  10   1.428
  25 str  23   7   1.424
  26 str  23  22   1.371
  27 str  24   6   1.317
  28 str  25   4   1.425
  29 str  25  24   1.361
  30 str  26   1   1.384
  31 str  26  25   1.409
  32 str  27   1   1.084
  33 str  28   2   1.084
  34 str  29   3   1.084
  35 str  30   8   1.084
  36 str  31   9   1.084
  37 str  32  12   1.080
  38 str  33  14   1.096
  39 str  34  14   1.096
  40 str  35  16   1.082
  41 str  36  17   1.079
  42 str  37  22   1.083
  43 str  38  23   1.082
  44 str  39  26   1.083
 nber stretches=          44
  45 ben   1   2   3
  46 prop tor   1   2   3   4
  47 prop tor   1   2   3  29
  48 ben   1   2  28
  49 ben   1  26  25
  50 ben   1  26  39
  51 ben   2   1  26
  52 prop tor   2   1  26  25
  53 prop tor   2   1  26  39
  54 ben   2   1  27
  55 ben   2   3   4
  56 prop tor   2   3   4   5
  57 prop tor   2   3   4  25
  58 ben   2   3  29
  59 ben   3   2  28
  60 ben   3   4   5
  61 prop tor   3   4   5   6
  62 ben   3   4  25
  63 prop tor   3   4  25  24
  64 prop tor   3   4  25  26
  65 ben   4   3  29
  66 ben   4   5   6
  67 prop tor   4   5   6   7
  68 prop tor   4   5   6  24
  69 ben   4  25  24
  70 ben   4  25  26
  71 prop tor   4  25  26   1
  72 prop tor   4  25  26  39
  73 ben   5   4  25
  74 prop tor   5   4  25  24
  75 prop tor   5   4  25  26
  76 ben   5   6   7
  77 prop tor   5   6   7   8
  78 prop tor   5   6   7  23
  79 ben   5   6  24
  80 prop tor   5   6  24  25
  81 ben   6   7   8
  82 prop tor   6   7   8   9
  83 prop tor   6   7   8  30
  84 ben   6   7  23
  85 prop tor   6   7  23  22
  86 prop tor   6   7  23  38
  87 ben   6  24  25
  88 prop tor   6  24  25   4
  89 prop tor   6  24  25  26
  90 ben   7   6  24
  91 prop tor   7   6  24  25
  92 ben   7   8   9
  93 prop tor   7   8   9  10
  94 prop tor   7   8   9  31
  95 ben   7   8  30
  96 ben   7  23  22
  97 ben   7  23  38
  98 ben   8   7  23
  99 prop tor   8   7  23  22
 100 prop tor   8   7  23  38
 101 ben   8   9  10
 102 prop tor   8   9  10  11
 103 prop tor   8   9  10  22
 104 ben   8   9  31
 105 ben   9   8  30
 106 ben   9  10  11
 107 prop tor   9  10  11  12
 108 prop tor   9  10  11  21
 109 ben   9  10  22
 110 prop tor   9  10  22  23
 111 prop tor   9  10  22  37
 112 ben  10   9  31
 113 ben  10  11  12
 114 prop tor  10  11  12  13
 115 prop tor  10  11  12  32
 116 ben  10  11  21
 117 prop tor  10  11  21  20
 118 ben  10  22  23
 119 prop tor  10  22  23   7
 120 prop tor  10  22  23  38
 121 ben  10  22  37
 122 ben  11  10  22
 123 prop tor  11  10  22  23
 124 prop tor  11  10  22  37
 125 ben  11  12  13
 126 prop tor  11  12  13  14
 127 prop tor  11  12  13  20
 128 ben  11  12  32
 129 ben  11  21  20
 130 ben  12  11  21
 131 prop tor  12  11  21  20
 132 ben  12  13  14
 133 prop tor  12  13  14  15
 134 prop tor  12  13  14  33
 135 prop tor  12  13  14  34
 136 ben  12  13  20
 137 prop tor  12  13  20  19
 138 prop tor  12  13  20  21
 139 ben  13  12  32
 140 ben  13  14  15
 141 prop tor  13  14  15  16
 142 prop tor  13  14  15  19
 143 ben  13  14  33
 144 ben  13  14  34
 145 ben  13  20  19
 146 ben  13  20  21
 147 prop tor  13  20  21  11
 148 ben  14  13  20
 149 prop tor  14  13  20  19
 150 prop tor  14  13  20  21
 151 ben  14  15  16
 152 prop tor  14  15  16  17
 153 prop tor  14  15  16  35
 154 ben  14  15  19
 155 prop tor  14  15  19  18
 156 prop tor  14  15  19  20
 157 ben  15  14  33
 158 ben  15  14  34
 159 ben  15  16  17
 160 prop tor  15  16  17  18
 161 prop tor  15  16  17  36
 162 ben  15  16  35
 163 ben  15  19  18
 164 ben  15  19  20
 165 prop tor  15  19  20  13
 166 prop tor  15  19  20  21
 167 ben  16  15  19
 168 prop tor  16  15  19  18
 169 prop tor  16  15  19  20
 170 ben  16  17  18
 171 prop tor  16  17  18  19
 172 ben  16  17  36
 173 ben  17  16  35
 174 ben  17  18  19
 175 prop tor  17  18  19  15
 176 prop tor  17  18  19  20
 177 ben  18  17  36
 178 ben  18  19  20
 179 prop tor  18  19  20  13
 180 prop tor  18  19  20  21
 181 prop tor  19  15  16  17
 182 prop tor  19  15  16  35
 183 ben  19  20  21
 184 prop tor  19  20  21  11
 185 prop tor  20  13  14  15
 186 prop tor  20  13  14  33
 187 prop tor  20  13  14  34
 188 prop tor  21  11  12  13
 189 prop tor  21  11  12  32
 190 prop tor  22  10  11  12
 191 prop tor  22  10  11  21
 192 ben  22  23  38
 193 prop tor  23   7   8   9
 194 prop tor  23   7   8  30
 195 ben  23  22  37
 196 prop tor  24   6   7   8
 197 prop tor  24   6   7  23
 198 ben  24  25  26
 199 prop tor  24  25  26   1
 200 prop tor  24  25  26  39
 201 prop tor  25   4   5   6
 202 ben  25  26  39
 203 prop tor  26   1   2   3
 204 prop tor  26   1   2  28
 205 ben  26   1  27
 206 prop tor  27   1   2   3
 207 prop tor  27   1   2  28
 208 prop tor  27   1  26  25
 209 prop tor  27   1  26  39
 210 prop tor  28   2   3   4
 211 prop tor  28   2   3  29
 212 prop tor  29   3   4   5
 213 prop tor  29   3   4  25
 214 prop tor  30   8   9  10
 215 prop tor  30   8   9  31
 216 prop tor  31   9  10  11
 217 prop tor  31   9  10  22
 218 prop tor  32  12  13  14
 219 prop tor  32  12  13  20
 220 prop tor  33  14  15  16
 221 prop tor  33  14  15  19
 222 ben  33  14  34
 223 prop tor  34  14  15  16
 224 prop tor  34  14  15  19
 225 prop tor  35  16  17  18
 226 prop tor  35  16  17  36
 227 prop tor  36  17  18  19
 228 prop tor  37  22  23   7
 229 prop tor  37  22  23  38
 nber bend=              73
 nber lin bend=           0
 nber prop tor=         112
 nber impr tor=           0
 nber tot redund int=         229
 Eigenvalues of G in red int coords
    Gval -0.00000000 -0.00000000 -0.00000000 -0.00000000 -0.00000000 -0.00000000 -0.00000000 -0.00000000
    Gval -0.00000000 -0.00000000 -0.00000000 -0.00000000 -0.00000000 -0.00000000 -0.00000000 -0.00000000
    Gval -0.00000000 -0.00000000 -0.00000000 -0.00000000 -0.00000000 -0.00000000 -0.00000000 -0.00000000
    Gval -0.00000000 -0.00000000 -0.00000000 -0.00000000 -0.00000000 -0.00000000 -0.00000000 -0.00000000
    Gval -0.00000000 -0.00000000 -0.00000000 -0.00000000 -0.00000000 -0.00000000 -0.00000000 -0.00000000
    Gval -0.00000000 -0.00000000 -0.00000000 -0.00000000 -0.00000000 -0.00000000 -0.00000000 -0.00000000
    Gval -0.00000000 -0.00000000 -0.00000000 -0.00000000 -0.00000000 -0.00000000 -0.00000000 -0.00000000
    Gval -0.00000000 -0.00000000 -0.00000000 -0.00000000  0.00000000  0.00000000  0.00000000  0.00000000
    Gval  0.00000000  0.00000000  0.00000000  0.00000000  0.00000000  0.00000000  0.00000000  0.00000000
    Gval  0.00000000  0.00000000  0.00000000  0.00000000  0.00000000  0.00000000  0.00000000  0.00000000
    Gval  0.00000000  0.00000000  0.00000000  0.00000000  0.00000000  0.00000000  0.00000000  0.00000000
    Gval  0.00000000  0.00000000  0.00000000  0.00000000  0.00000000  0.00000000  0.00000000  0.00000000
    Gval  0.00000000  0.00000000  0.00000000  0.00000000  0.00000000  0.00000000  0.00000000  0.00000000
    Gval  0.00000000  0.00000000  0.00000000  0.00000000  0.00000000  0.00000000  0.00000000  0.00000000
    Gval  0.00000000  0.00000000  0.00000000  0.00000000  0.00000000  0.00000000  0.00000036  0.00000139
    Gval  0.00000152  0.00000245  0.00000679  0.00000775  0.00000986  0.00001025  0.00001428  0.00002023
    Gval  0.00002200  0.00002497  0.00002866  0.00003493  0.00003760  0.00003880  0.00003966  0.00004476
    Gval  0.00004736  0.00004804  0.00004929  0.00005409  0.00005869  0.00006044  0.00007013  0.00007346
    Gval  0.00007763  0.00008273  0.00008876  0.00009285  0.00009632  0.00010788  0.00011315  0.00011758
    Gval  0.00012010  0.00012469  0.00013150  0.00013514  0.00014592  0.00015550  0.00016254  0.00019590
    Gval  0.00020732  0.00020824  0.00021792  0.00025038  0.00028293  0.00029229  0.00029867  0.00030172
    Gval  0.00031492  0.00033591  0.00035525  0.00036443  0.00036876  0.00038021  0.00039161  0.00039605
    Gval  0.00041558  0.00042878  0.00044247  0.00057845  0.00058332  0.00058710  0.00059315  0.00059673
    Gval  0.00059746  0.00059777  0.00059988  0.00061830  0.00062399  0.00062447  0.00062701  0.00063933
    Gval  0.00064869  0.00065480  0.00066426  0.00083541  0.00097963  0.00105390  0.00107432  0.00108174
    Gval  0.00109331  0.00110467  0.00112163  0.00114311  0.00115294  0.00116243  0.00117042  0.00117085
    Gval  0.00118195  0.00121571  0.00132922  0.00138097  0.00162696  0.00166330  0.00179997  0.00180839
    Gval  0.00196070  0.00208329  0.00232853  0.00249704  0.00268176  0.00269632  0.00302465  0.00356275
    Gval  0.00360534  0.00371513  0.00375010  0.00401692  0.00406853
  3.587853841098839E-007  3.587853841098839E-007
  1.394578172273929E-006  3.587853841098839E-007
  1.524276490773005E-006  3.587853841098839E-007
  2.450062146488971E-006  3.587853841098839E-007
  6.794263900549316E-006  3.587853841098839E-007
  7.752634837607967E-006  3.587853841098839E-007
  9.864444636063983E-006  3.587853841098839E-007
  1.024539425601861E-005  3.587853841098839E-007
  1.428105383316579E-005  3.587853841098839E-007
  2.023282773106298E-005  3.587853841098839E-007
  2.199719946355859E-005  3.587853841098839E-007
  2.497128959966685E-005  3.587853841098839E-007
  2.865548241374940E-005  3.587853841098839E-007
  3.493213245380025E-005  3.587853841098839E-007
  3.759908205863730E-005  3.587853841098839E-007
  3.880033351568318E-005  3.587853841098839E-007
  3.965836636949009E-005  3.587853841098839E-007
  4.476458390015282E-005  3.587853841098839E-007
  4.735701769633628E-005  3.587853841098839E-007
  4.803634244457867E-005  3.587853841098839E-007
  4.928843698482215E-005  3.587853841098839E-007
  5.408883657084565E-005  3.587853841098839E-007
  5.868507196281788E-005  3.587853841098839E-007
  6.043658190260040E-005  3.587853841098839E-007
  7.013298848305414E-005  3.587853841098839E-007
  7.346423796503272E-005  3.587853841098839E-007
  7.762983539048838E-005  3.587853841098839E-007
  8.272500282888828E-005  3.587853841098839E-007
  8.876356789419162E-005  3.587853841098839E-007
  9.285450108353762E-005  3.587853841098839E-007
  9.631716855296291E-005  3.587853841098839E-007
  1.078782813832264E-004  3.587853841098839E-007
  1.131527544731526E-004  3.587853841098839E-007
  1.175790648062648E-004  3.587853841098839E-007
  1.201005642016557E-004  3.587853841098839E-007
  1.246879748564724E-004  3.587853841098839E-007
  1.314982967184371E-004  3.587853841098839E-007
  1.351366596718580E-004  3.587853841098839E-007
  1.459243122834940E-004  3.587853841098839E-007
  1.554953602213928E-004  3.587853841098839E-007
  1.625403720826358E-004  3.587853841098839E-007
  1.958982592597023E-004  3.587853841098839E-007
  2.073207911487620E-004  3.587853841098839E-007
  2.082415511328812E-004  3.587853841098839E-007
  2.179188189442199E-004  3.587853841098839E-007
  2.503791127877999E-004  3.587853841098839E-007
  2.829296381381395E-004  3.587853841098839E-007
  2.922917741477358E-004  3.587853841098839E-007
  2.986658616146561E-004  3.587853841098839E-007
  3.017183273960599E-004  3.587853841098839E-007
  3.149207937602663E-004  3.587853841098839E-007
  3.359070304022634E-004  3.587853841098839E-007
  3.552544524581254E-004  3.587853841098839E-007
  3.644316000305837E-004  3.587853841098839E-007
  3.687610052509243E-004  3.587853841098839E-007
  3.802134789502888E-004  3.587853841098839E-007
  3.916050837791851E-004  3.587853841098839E-007
  3.960517711296981E-004  3.587853841098839E-007
  4.155785992526215E-004  3.587853841098839E-007
  4.287822872644390E-004  3.587853841098839E-007
  4.424653843833185E-004  3.587853841098839E-007
  5.784540543371891E-004  3.587853841098839E-007
  5.833233161459666E-004  3.587853841098839E-007
  5.870975044853755E-004  3.587853841098839E-007
  5.931487655997376E-004  3.587853841098839E-007
  5.967289680370625E-004  3.587853841098839E-007
  5.974577303971483E-004  3.587853841098839E-007
  5.977737054545059E-004  3.587853841098839E-007
  5.998819146851475E-004  3.587853841098839E-007
  6.183030309816849E-004  3.587853841098839E-007
  6.239857135310662E-004  3.587853841098839E-007
  6.244737736447573E-004  3.587853841098839E-007
  6.270055213758170E-004  3.587853841098839E-007
  6.393254509817201E-004  3.587853841098839E-007
  6.486884775651285E-004  3.587853841098839E-007
  6.548003356744648E-004  3.587853841098839E-007
  6.642609450314427E-004  3.587853841098839E-007
  8.354124624920725E-004  3.587853841098839E-007
  9.796282096541198E-004  3.587853841098839E-007
  1.053902759861506E-003  3.587853841098839E-007
  1.074315700552530E-003  3.587853841098839E-007
  1.081737638144621E-003  3.587853841098839E-007
  1.093311424843234E-003  3.587853841098839E-007
  1.104672407515335E-003  3.587853841098839E-007
  1.121634243233152E-003  3.587853841098839E-007
  1.143112924354081E-003  3.587853841098839E-007
  1.152941727380147E-003  3.587853841098839E-007
  1.162434428302568E-003  3.587853841098839E-007
  1.170417183737519E-003  3.587853841098839E-007
  1.170847989139254E-003  3.587853841098839E-007
  1.181952768194214E-003  3.587853841098839E-007
  1.215705940208590E-003  3.587853841098839E-007
  1.329222651120816E-003  3.587853841098839E-007
  1.380971338572445E-003  3.587853841098839E-007
  1.626957326361375E-003  3.587853841098839E-007
  1.663295149545650E-003  3.587853841098839E-007
  1.799973776040699E-003  3.587853841098839E-007
  1.808390379244957E-003  3.587853841098839E-007
  1.960700752158616E-003  3.587853841098839E-007
  2.083285263231488E-003  3.587853841098839E-007
  2.328530169581851E-003  3.587853841098839E-007
  2.497040722862956E-003  3.587853841098839E-007
  2.681763624637219E-003  3.587853841098839E-007
  2.696324680241204E-003  3.587853841098839E-007
  3.024649766633389E-003  3.587853841098839E-007
  3.562747750110078E-003  3.587853841098839E-007
  3.605337156969382E-003  3.587853841098839E-007
  3.715125576608074E-003  3.587853841098839E-007
  3.750097352257711E-003  3.587853841098839E-007
  4.016921205270428E-003  3.587853841098839E-007
  4.068526562780441E-003  3.587853841098839E-007
 cut=1d-8, nber non-redundant internal coords=         111
 Check on Eigenvals of non-red overlap matrix:
  0.00000036  0.00000139  0.00000152  0.00000245  0.00000679  0.00000775  0.00000986  0.00001025
  0.00001428  0.00002023  0.00002200  0.00002497  0.00002866  0.00003493  0.00003760  0.00003880
  0.00003966  0.00004476  0.00004736  0.00004804  0.00004929  0.00005409  0.00005869  0.00006044
  0.00007013  0.00007346  0.00007763  0.00008273  0.00008876  0.00009285  0.00009632  0.00010788
  0.00011315  0.00011758  0.00012010  0.00012469  0.00013150  0.00013514  0.00014592  0.00015550
  0.00016254  0.00019590  0.00020732  0.00020824  0.00021792  0.00025038  0.00028293  0.00029229
  0.00029867  0.00030172  0.00031492  0.00033591  0.00035525  0.00036443  0.00036876  0.00038021
  0.00039161  0.00039605  0.00041558  0.00042878  0.00044247  0.00057845  0.00058332  0.00058710
  0.00059315  0.00059673  0.00059746  0.00059777  0.00059988  0.00061830  0.00062399  0.00062447
  0.00062701  0.00063933  0.00064869  0.00065480  0.00066426  0.00083541  0.00097963  0.00105390
  0.00107432  0.00108174  0.00109331  0.00110467  0.00112163  0.00114311  0.00115294  0.00116243
  0.00117042  0.00117085  0.00118195  0.00121571  0.00132922  0.00138097  0.00162696  0.00166330
  0.00179997  0.00180839  0.00196070  0.00208329  0.00232853  0.00249704  0.00268176  0.00269632
  0.00302465  0.00356275  0.00360534  0.00371513  0.00375010  0.00401692  0.00406853
 Checking for correct frequencies
 recalc frequencies=
    -0.0   -0.0   -0.0    0.0    0.0    0.0   16.4   20.4   40.3   47.0
    60.2   88.7  100.3  136.9  146.5  148.1  189.7  203.9  221.7  240.8
   277.1  295.5  317.4  351.2  377.1  411.1  424.5  425.1  437.0  442.4
   455.2  504.5  519.0  520.4  541.8  559.1  568.6  578.9  594.2  602.0
   628.0  628.1  653.0  679.2  681.1  684.6  709.9  712.1  721.6  729.7
   765.4  781.0  787.9  807.5  815.7  855.9  868.9  876.0  896.6  935.4
   936.8  943.2  945.9  952.6  977.1  978.7  987.3  999.1 1013.8 1033.9
  1072.0 1100.7 1131.3 1141.1 1154.4 1179.5 1181.8 1194.2 1207.9 1223.6
  1256.0 1268.5 1276.7 1317.3 1320.8 1327.8 1339.9 1349.4 1356.0 1424.4
  1431.6 1443.9 1458.1 1465.1 1475.0 1479.1 1486.4 1492.9 1497.0 1500.3
  1537.5 1579.0 1619.0 1633.9 3021.0 3045.7 3162.6 3164.3 3175.7 3180.7
  3181.7 3187.9 3195.2 3201.3 3209.4 3219.4 3244.4
 recalc symmetries=
                                                                       
                                                                       
                                                                       
                                                                       
                                                                       
                                                                       
                                                                       
                                                                       
                                                                       
                                                                       
                                                                       
                                                  
 recalc freqs check OK
 Zero-point lengths:
 10.0000 10.0000 10.0000 10.0000 10.0000 10.0000 61.1384 54.8888 39.0414 36.1790
 31.9638 26.3243 24.7489 21.1861 20.4853 20.3731 18.0007 17.3625 16.6498 15.9766
 14.8926 14.4219 13.9154 13.2285 12.7657 12.2272 12.0331 12.0242 11.8586 11.7870
 11.6192 11.0374 10.8820 10.8674 10.6505 10.4846 10.3965 10.3036 10.1702 10.1042
  9.8924  9.8920  9.7012  9.5126  9.4995  9.4747  9.3044  9.2903  9.2287  9.1772
  8.9607  8.8708  8.8321  8.7243  8.6803  8.4739  8.4103  8.3760  8.2791  8.1058
  8.0997  8.0722  8.0605  8.0322  7.9309  7.9243  7.8897  7.8433  7.7859  7.7099
  7.5717  7.4724  7.3705  7.3388  7.2967  7.2185  7.2113  7.1739  7.1330  7.0871
  6.9951  6.9607  6.9381  6.8305  6.8214  6.8035  6.7727  6.7488  6.7324  6.5688
  6.5521  6.5242  6.4924  6.4769  6.4551  6.4461  6.4303  6.4162  6.4074  6.4004
  6.3225  6.2389  6.1614  6.1332  4.5104  4.4921  4.4083  4.4071  4.3992  4.3958
  4.3951  4.3908  4.3858  4.3816  4.3761  4.3693  4.3524
 highest evec of mol 1
 -0.0001 -0.0001 -0.0001
 -0.0000  0.0000  0.0001
 -0.0001  0.0000  0.0001
  0.0001  0.0000 -0.0000
 -0.0000 -0.0000 -0.0000
 -0.0001 -0.0001 -0.0000
  0.0001  0.0000 -0.0000
 -0.0000 -0.0000 -0.0000
  0.0001  0.0001  0.0002
  0.0001 -0.0000 -0.0000
  0.0000  0.0001  0.0001
  0.0002  0.0002  0.0002
 -0.0003 -0.0003 -0.0003
 -0.0002 -0.0001 -0.0001
  0.0064  0.0020 -0.0009
 -0.0352  0.0185  0.0556
 -0.2444 -0.1371 -0.0680
  0.0014 -0.0003 -0.0015
  0.0029  0.0015  0.0006
  0.0001  0.0002  0.0003
 -0.0000 -0.0000 -0.0000
  0.0001 -0.0001 -0.0002
 -0.0000 -0.0000  0.0000
  0.0001  0.0001  0.0000
 -0.0001 -0.0000  0.0000
  0.0000 -0.0000 -0.0001
  0.0004  0.0003  0.0003
  0.0002  0.0000 -0.0001
  0.0001 -0.0002 -0.0004
  0.0000  0.0000  0.0000
 -0.0003 -0.0004 -0.0005
 -0.0002 -0.0005 -0.0007
 -0.0004  0.0001 -0.0000
 -0.0002 -0.0003  0.0002
  0.1177 -0.0338 -0.1381
  0.8086  0.4335  0.1903
 -0.0003  0.0002  0.0006
  0.0000  0.0000  0.0000
 -0.0001  0.0001  0.0003
 generating redundant internal coords
         300        3600          39
 Adding extra bonds for z output only
           6           6           6           6          16           6
           6           6           6           6           6           6
           6           6           6           6           6          16
           6           6          16           6           6           7
           6           6           1           1           1           1
           1           1           1           1           1           1
           1           1           1
 search for int coords
   1 str   2   1   1.406
   2 str   3   2   1.393
   3 str   4   3   1.391
   4 str   5   4   1.750
   5 str   6   5   1.802
   6 str   7   6   1.434
   7 str   8   7   1.419
   8 str   9   8   1.374
   9 str  10   9   1.424
  10 str  11  10   1.426
  11 str  12  11   1.414
  12 str  13  12   1.386
  13 str  14  13   1.517
  14 str  15  14   1.515
  15 str  16  15   1.403
  16 str  17  16   1.380
  17 str  18  17   1.749
  18 str  19  15   1.406
  19 str  19  18   1.737
  20 str  20  13   1.414
  21 str  20  19   1.410
  22 str  21  11   1.795
  23 str  21  20   1.734
  24 str  22  10   1.428
  25 str  23   7   1.424
  26 str  23  22   1.371
  27 str  24   6   1.317
  28 str  25   4   1.425
  29 str  25  24   1.361
  30 str  26   1   1.384
  31 str  26  25   1.409
  32 str  27   1   1.084
  33 str  28   2   1.084
  34 str  29   3   1.084
  35 str  30   8   1.084
  36 str  31   9   1.084
  37 str  32  12   1.080
  38 str  33  14   1.096
  39 str  34  14   1.096
  40 str  35  16   1.082
  41 str  36  17   1.079
  42 str  37  22   1.083
  43 str  38  23   1.082
  44 str  39  26   1.083
 nber stretches=          44
  45 ben   1   2   3
  46 prop tor   1   2   3   4
  47 prop tor   1   2   3  29
  48 ben   1   2  28
  49 ben   1  26  25
  50 ben   1  26  39
  51 ben   2   1  26
  52 prop tor   2   1  26  25
  53 prop tor   2   1  26  39
  54 ben   2   1  27
  55 ben   2   3   4
  56 prop tor   2   3   4   5
  57 prop tor   2   3   4  25
  58 ben   2   3  29
  59 ben   3   2  28
  60 ben   3   4   5
  61 prop tor   3   4   5   6
  62 ben   3   4  25
  63 prop tor   3   4  25  24
  64 prop tor   3   4  25  26
  65 ben   4   3  29
  66 ben   4   5   6
  67 prop tor   4   5   6   7
  68 prop tor   4   5   6  24
  69 ben   4  25  24
  70 ben   4  25  26
  71 prop tor   4  25  26   1
  72 prop tor   4  25  26  39
  73 ben   5   4  25
  74 prop tor   5   4  25  24
  75 prop tor   5   4  25  26
  76 ben   5   6   7
  77 prop tor   5   6   7   8
  78 prop tor   5   6   7  23
  79 ben   5   6  24
  80 prop tor   5   6  24  25
  81 ben   6   7   8
  82 prop tor   6   7   8   9
  83 prop tor   6   7   8  30
  84 ben   6   7  23
  85 prop tor   6   7  23  22
  86 prop tor   6   7  23  38
  87 ben   6  24  25
  88 prop tor   6  24  25   4
  89 prop tor   6  24  25  26
  90 ben   7   6  24
  91 prop tor   7   6  24  25
  92 ben   7   8   9
  93 prop tor   7   8   9  10
  94 prop tor   7   8   9  31
  95 ben   7   8  30
  96 ben   7  23  22
  97 ben   7  23  38
  98 ben   8   7  23
  99 prop tor   8   7  23  22
 100 prop tor   8   7  23  38
 101 ben   8   9  10
 102 prop tor   8   9  10  11
 103 prop tor   8   9  10  22
 104 ben   8   9  31
 105 ben   9   8  30
 106 ben   9  10  11
 107 prop tor   9  10  11  12
 108 prop tor   9  10  11  21
 109 ben   9  10  22
 110 prop tor   9  10  22  23
 111 prop tor   9  10  22  37
 112 ben  10   9  31
 113 ben  10  11  12
 114 prop tor  10  11  12  13
 115 prop tor  10  11  12  32
 116 ben  10  11  21
 117 prop tor  10  11  21  20
 118 ben  10  22  23
 119 prop tor  10  22  23   7
 120 prop tor  10  22  23  38
 121 ben  10  22  37
 122 ben  11  10  22
 123 prop tor  11  10  22  23
 124 prop tor  11  10  22  37
 125 ben  11  12  13
 126 prop tor  11  12  13  14
 127 prop tor  11  12  13  20
 128 ben  11  12  32
 129 ben  11  21  20
 130 ben  12  11  21
 131 prop tor  12  11  21  20
 132 ben  12  13  14
 133 prop tor  12  13  14  15
 134 prop tor  12  13  14  33
 135 prop tor  12  13  14  34
 136 ben  12  13  20
 137 prop tor  12  13  20  19
 138 prop tor  12  13  20  21
 139 ben  13  12  32
 140 ben  13  14  15
 141 prop tor  13  14  15  16
 142 prop tor  13  14  15  19
 143 ben  13  14  33
 144 ben  13  14  34
 145 ben  13  20  19
 146 ben  13  20  21
 147 prop tor  13  20  21  11
 148 ben  14  13  20
 149 prop tor  14  13  20  19
 150 prop tor  14  13  20  21
 151 ben  14  15  16
 152 prop tor  14  15  16  17
 153 prop tor  14  15  16  35
 154 ben  14  15  19
 155 prop tor  14  15  19  18
 156 prop tor  14  15  19  20
 157 ben  15  14  33
 158 ben  15  14  34
 159 ben  15  16  17
 160 prop tor  15  16  17  18
 161 prop tor  15  16  17  36
 162 ben  15  16  35
 163 ben  15  19  18
 164 ben  15  19  20
 165 prop tor  15  19  20  13
 166 prop tor  15  19  20  21
 167 ben  16  15  19
 168 prop tor  16  15  19  18
 169 prop tor  16  15  19  20
 170 ben  16  17  18
 171 prop tor  16  17  18  19
 172 ben  16  17  36
 173 ben  17  16  35
 174 ben  17  18  19
 175 prop tor  17  18  19  15
 176 prop tor  17  18  19  20
 177 ben  18  17  36
 178 ben  18  19  20
 179 prop tor  18  19  20  13
 180 prop tor  18  19  20  21
 181 prop tor  19  15  16  17
 182 prop tor  19  15  16  35
 183 ben  19  20  21
 184 prop tor  19  20  21  11
 185 prop tor  20  13  14  15
 186 prop tor  20  13  14  33
 187 prop tor  20  13  14  34
 188 prop tor  21  11  12  13
 189 prop tor  21  11  12  32
 190 prop tor  22  10  11  12
 191 prop tor  22  10  11  21
 192 ben  22  23  38
 193 prop tor  23   7   8   9
 194 prop tor  23   7   8  30
 195 ben  23  22  37
 196 prop tor  24   6   7   8
 197 prop tor  24   6   7  23
 198 ben  24  25  26
 199 prop tor  24  25  26   1
 200 prop tor  24  25  26  39
 201 prop tor  25   4   5   6
 202 ben  25  26  39
 203 prop tor  26   1   2   3
 204 prop tor  26   1   2  28
 205 ben  26   1  27
 206 prop tor  27   1   2   3
 207 prop tor  27   1   2  28
 208 prop tor  27   1  26  25
 209 prop tor  27   1  26  39
 210 prop tor  28   2   3   4
 211 prop tor  28   2   3  29
 212 prop tor  29   3   4   5
 213 prop tor  29   3   4  25
 214 prop tor  30   8   9  10
 215 prop tor  30   8   9  31
 216 prop tor  31   9  10  11
 217 prop tor  31   9  10  22
 218 prop tor  32  12  13  14
 219 prop tor  32  12  13  20
 220 prop tor  33  14  15  16
 221 prop tor  33  14  15  19
 222 ben  33  14  34
 223 prop tor  34  14  15  16
 224 prop tor  34  14  15  19
 225 prop tor  35  16  17  18
 226 prop tor  35  16  17  36
 227 prop tor  36  17  18  19
 228 prop tor  37  22  23   7
 229 prop tor  37  22  23  38
 nber bend=              73
 nber lin bend=           0
 nber prop tor=         112
 nber impr tor=           0
 nber tot redund int=         229
 Reading file: 
 ./CDT-BT_3_C0S0.log                                                            
                                          
  Entering Gaussian System, Link 0=g16                                          
  
 Gaussian format, type: g94, g98, g03= F F F
  #P Geom=AllCheck Guess=TCheck SCRF=Check GenChk RB3LYP/6-311G(d,p) Fre    
 energy type= B3LYP   
 Original G94 input coords:
  6 -2.166350 -1.990244 -0.179456
  6 -2.571489 -1.243441  0.938046
  6 -1.700514 -0.357536  1.561197
  6 -0.411789 -0.231489  1.044605
 16  0.906214  0.781460  1.590954
  6  1.909321  0.119314  0.264057
  6  3.294661  0.550707  0.067605
  6  3.911344  1.502701  0.890251
  6  5.223848  1.890642  0.671589
  6  5.982672  1.336380 -0.374154
  6  7.363854  1.738023 -0.621812
  6  8.086685  1.651498 -1.796517
  6  9.404408  2.137196 -1.672279
  6 10.614163  2.308597 -2.568583
  6 11.620073  2.923049 -1.616630
  6 12.963058  3.372429 -1.670480
  6 13.390064  3.858132 -0.462737
 16 12.153322  3.775072  0.769282
  6 11.051668  3.076635 -0.364640
  6  9.693463  2.597171 -0.399328
 16  8.351319  2.434125  0.672365
  6  5.358895  0.372383 -1.191166
  6  4.045933 -0.007016 -0.980761
  7  1.309277 -0.752775 -0.483348
  6  0.010465 -0.977327 -0.080592
  6 -0.884883 -1.864709 -0.693019
  1 -2.866731 -2.673668 -0.645332
  1 -3.578377 -1.357914  1.322492
  1 -2.017859  0.216436  2.423308
  1  3.360475  1.957754  1.705842
  1  5.661124  2.649868  1.309557
  1  7.656352  1.274539 -2.714943
  1 10.963225  1.352639 -2.974688
  1 10.403537  2.962314 -3.422368
  1 13.594308  3.345195 -2.549097
  1 14.356363  4.264157 -0.207163
  1  5.923063 -0.099928 -1.986268
  1  3.578148 -0.750941 -1.612544
  1 -0.556979 -2.433627 -1.554326
 nber atoms=          39
  SCF Done:  E(RB3LYP) =  -2095.76767366     A.U. after    1 cycles             
  
          23          40 "  -2095.76767366"
After scan for Atom:   Atom  AN      X      Y      Z        X      Y      Z        X      Y      Z   
After scan for Atom:   Atom  AN      X      Y      Z        X      Y      Z        X      Y      Z   
After scan for Atom:   Atom  AN      X      Y      Z        X      Y      Z        X      Y      Z   
After scan for Atom:   Atom  AN      X      Y      Z        X      Y      Z        X      Y      Z   
After scan for Atom:   Atom  AN      X      Y      Z        X      Y      Z        X      Y      Z   
After scan for Atom:   Atom  AN      X      Y      Z        X      Y      Z        X      Y      Z   
After scan for Atom:   Atom  AN      X      Y      Z        X      Y      Z        X      Y      Z   
After scan for Atom:   Atom  AN      X      Y      Z        X      Y      Z        X      Y      Z   
After scan for Atom:   Atom  AN      X      Y      Z        X      Y      Z        X      Y      Z   
After scan for Atom:   Atom  AN      X      Y      Z        X      Y      Z        X      Y      Z   
After scan for Atom:   Atom  AN      X      Y      Z        X      Y      Z        X      Y      Z   
After scan for Atom:   Atom  AN      X      Y      Z        X      Y      Z        X      Y      Z   
After scan for Atom:   Atom  AN      X      Y      Z        X      Y      Z        X      Y      Z   
After scan for Atom:   Atom  AN      X      Y      Z        X      Y      Z        X      Y      Z   
After scan for Atom:   Atom  AN      X      Y      Z        X      Y      Z        X      Y      Z   
After scan for Atom:   Atom  AN      X      Y      Z        X      Y      Z        X      Y      Z   
After scan for Atom:   Atom  AN      X      Y      Z        X      Y      Z        X      Y      Z   
After scan for Atom:   Atom  AN      X      Y      Z        X      Y      Z        X      Y      Z   
After scan for Atom:   Atom  AN      X      Y      Z        X      Y      Z        X      Y      Z   
After scan for Atom:   Atom  AN      X      Y      Z        X      Y      Z        X      Y      Z   
After scan for Atom:   Atom  AN      X      Y      Z        X      Y      Z        X      Y      Z   
After scan for Atom:   Atom  AN      X      Y      Z        X      Y      Z        X      Y      Z   
After scan for Atom:   Atom  AN      X      Y      Z        X      Y      Z        X      Y      Z   
After scan for Atom:   Atom  AN      X      Y      Z        X      Y      Z        X      Y      Z   
After scan for Atom:   Atom  AN      X      Y      Z        X      Y      Z        X      Y      Z   
After scan for Atom:   Atom  AN      X      Y      Z        X      Y      Z        X      Y      Z   
After scan for Atom:   Atom  AN      X      Y      Z        X      Y      Z        X      Y      Z   
After scan for Atom:   Atom  AN      X      Y      Z        X      Y      Z        X      Y      Z   
After scan for Atom:   Atom  AN      X      Y      Z        X      Y      Z        X      Y      Z   
After scan for Atom:   Atom  AN      X      Y      Z        X      Y      Z        X      Y      Z   
After scan for Atom:   Atom  AN      X      Y      Z        X      Y      Z        X      Y      Z   
After scan for Atom:   Atom  AN      X      Y      Z        X      Y      Z        X      Y      Z   
After scan for Atom:   Atom  AN      X      Y      Z        X      Y      Z        X      Y      Z   
After scan for Atom:   Atom  AN      X      Y      Z        X      Y      Z        X      Y      Z   
After scan for Atom:   Atom  AN      X      Y      Z        X      Y      Z        X      Y      Z   
After scan for Atom:   Atom  AN      X      Y      Z        X      Y      Z        X      Y      Z   
After scan for Atom:   Atom  AN      X      Y      Z        X      Y      Z        X      Y      Z   
 g94    frequencies=
     0.0    0.0    0.0    0.0    0.0    0.0   16.4   19.9   36.0   44.2
    55.5   91.0  109.8  143.4  146.3  162.2  192.3  204.1  237.0  253.8
   283.2  293.4  349.9  357.3  376.8  411.0  425.9  436.2  441.7  468.5
   486.7  509.4  520.2  545.5  564.6  570.7  582.7  590.2  616.1  625.1
   633.8  641.5  672.1  693.5  698.6  708.5  717.0  721.7  736.1  745.3
   773.0  817.7  832.0  848.3  860.6  866.8  871.8  878.2  921.8  937.1
   951.4  958.2  963.3  969.5  989.9  997.1 1002.1 1027.4 1035.0 1038.6
  1082.2 1110.1 1142.9 1144.6 1149.6 1177.5 1184.0 1209.5 1212.8 1237.7
  1254.5 1269.6 1275.4 1311.5 1323.8 1340.0 1346.0 1360.7 1404.3 1420.9
  1439.2 1448.5 1458.3 1463.2 1469.2 1488.7 1521.7 1530.6 1542.2 1557.2
  1592.4 1596.6 1637.6 1645.0 3028.3 3055.9 3166.8 3168.4 3180.2 3181.0
  3183.5 3190.9 3198.0 3200.0 3202.5 3206.7 3246.3
 g94    symmetries=
                                                 A      A      A      A
       A      A      A      A      A      A      A      A      A      A
       A      A      A      A      A      A      A      A      A      A
       A      A      A      A      A      A      A      A      A      A
       A      A      A      A      A      A      A      A      A      A
       A      A      A      A      A      A      A      A      A      A
       A      A      A      A      A      A      A      A      A      A
       A      A      A      A      A      A      A      A      A      A
       A      A      A      A      A      A      A      A      A      A
       A      A      A      A      A      A      A      A      A      A
       A      A      A      A      A      A      A      A      A      A
       A      A      A      A      A      A      A
 atomic masses:
 12.0000 12.0000 12.0000 12.0000 31.9721 12.0000 12.0000 12.0000 12.0000 12.0000
 12.0000 12.0000 12.0000 12.0000 12.0000 12.0000 12.0000 31.9721 12.0000 12.0000
 31.9721 12.0000 12.0000 14.0031 12.0000 12.0000  1.0078  1.0078  1.0078  1.0078
  1.0078  1.0078  1.0078  1.0078  1.0078  1.0078  1.0078  1.0078  1.0078
 looking for force constants in 
 ./CDT-BT_3_C0S0.fchk                                                           
  
 Cartesian Force Constants                  R   N=        6903                  
  
 n3=         117        6903
 g94-fc frequencies=
    -1.5   -0.0    0.0    0.0    0.8    1.2   16.4   19.9   36.0   44.2
    55.5   91.0  109.9  143.4  146.3  162.2  192.3  204.1  237.0  253.8
   283.3  293.4  349.9  357.3  376.8  411.1  425.9  436.2  441.7  468.5
   486.7  509.4  520.2  545.5  564.6  570.8  582.7  590.2  616.1  625.1
   633.8  641.5  672.1  693.5  698.7  708.5  717.0  721.7  736.2  745.4
   773.0  817.7  832.0  848.3  860.6  866.9  871.8  878.2  921.8  937.1
   951.5  958.2  963.3  969.5  989.9  997.1 1002.2 1027.5 1035.0 1038.6
  1082.2 1110.1 1142.9 1144.6 1149.6 1177.5 1184.0 1209.5 1212.8 1237.7
  1254.5 1269.7 1275.4 1311.5 1323.8 1340.1 1346.0 1360.7 1404.4 1420.9
  1439.3 1448.5 1458.3 1463.2 1469.2 1488.7 1521.7 1530.7 1542.2 1557.2
  1592.4 1596.6 1637.7 1645.0 3028.3 3056.0 3166.9 3168.5 3180.2 3181.1
  3183.6 3191.0 3198.1 3200.1 3202.6 3206.7 3246.4
 at 99999: n3=         117
 symm operator            1 :  F  nop=           0
 symm operator            2 :  F  nop=           0
 symm operator            3 :  F  nop=           0
 symm operator            4 :  F  nop=           0
 symm operator            5 :  F  nop=           0
 symm operator            6 :  F  nop=           0
 symm operator            7 :  F  nop=           0
 The point group of the molecule is  C1
 Symmetry rotation matrix:
   1.00000   0.00000   0.00000
   0.00000   1.00000   0.00000
   0.00000   0.00000   1.00000

 Projecting out zero-frequency components
 generating redundant internal coords
         300        3600          39
 search for int coords
   1 str   2   1   1.404
   2 str   3   2   1.390
   3 str   4   3   1.394
   4 str   5   4   1.750
   5 str   6   5   1.790
   6 str   7   6   1.464
   7 str   8   7   1.401
   8 str   9   8   1.386
   9 str  10   9   1.406
  10 str  11  10   1.460
  11 str  12  11   1.382
  12 str  13  12   1.410
  13 str  14  13   1.515
  14 str  15  14   1.515
  15 str  16  15   1.417
  16 str  17  16   1.370
  17 str  18  17   1.748
  18 str  19  15   1.384
  19 str  19  18   1.728
  20 str  20  13   1.384
  21 str  20  19   1.441
  22 str  21  11   1.770
  23 str  21  20   1.725
  24 str  22  10   1.409
  25 str  23   7   1.405
  26 str  23  22   1.383
  27 str  24   6   1.296
  28 str  25   4   1.414
  29 str  25  24   1.378
  30 str  26   1   1.386
  31 str  26  25   1.401
  32 str  27   1   1.084
  33 str  28   2   1.084
  34 str  29   3   1.083
  35 str  30   8   1.084
  36 str  31   9   1.084
  37 str  32  12   1.082
  38 str  33  14   1.096
  39 str  34  14   1.096
  40 str  35  16   1.082
  41 str  36  17   1.079
  42 str  37  22   1.083
  43 str  38  23   1.082
  44 str  39  26   1.083
 nber stretches=          44
  45 ben   1   2   3
  46 prop tor   1   2   3   4
  47 prop tor   1   2   3  29
  48 ben   1   2  28
  49 ben   1  26  25
  50 ben   1  26  39
  51 ben   2   1  26
  52 prop tor   2   1  26  25
  53 prop tor   2   1  26  39
  54 ben   2   1  27
  55 ben   2   3   4
  56 prop tor   2   3   4   5
  57 prop tor   2   3   4  25
  58 ben   2   3  29
  59 ben   3   2  28
  60 ben   3   4   5
  61 prop tor   3   4   5   6
  62 ben   3   4  25
  63 prop tor   3   4  25  24
  64 prop tor   3   4  25  26
  65 ben   4   3  29
  66 ben   4   5   6
  67 prop tor   4   5   6   7
  68 prop tor   4   5   6  24
  69 ben   4  25  24
  70 ben   4  25  26
  71 prop tor   4  25  26   1
  72 prop tor   4  25  26  39
  73 ben   5   4  25
  74 prop tor   5   4  25  24
  75 prop tor   5   4  25  26
  76 ben   5   6   7
  77 prop tor   5   6   7   8
  78 prop tor   5   6   7  23
  79 ben   5   6  24
  80 prop tor   5   6  24  25
  81 ben   6   7   8
  82 prop tor   6   7   8   9
  83 prop tor   6   7   8  30
  84 ben   6   7  23
  85 prop tor   6   7  23  22
  86 prop tor   6   7  23  38
  87 ben   6  24  25
  88 prop tor   6  24  25   4
  89 prop tor   6  24  25  26
  90 ben   7   6  24
  91 prop tor   7   6  24  25
  92 ben   7   8   9
  93 prop tor   7   8   9  10
  94 prop tor   7   8   9  31
  95 ben   7   8  30
  96 ben   7  23  22
  97 ben   7  23  38
  98 ben   8   7  23
  99 prop tor   8   7  23  22
 100 prop tor   8   7  23  38
 101 ben   8   9  10
 102 prop tor   8   9  10  11
 103 prop tor   8   9  10  22
 104 ben   8   9  31
 105 ben   9   8  30
 106 ben   9  10  11
 107 prop tor   9  10  11  12
 108 prop tor   9  10  11  21
 109 ben   9  10  22
 110 prop tor   9  10  22  23
 111 prop tor   9  10  22  37
 112 ben  10   9  31
 113 ben  10  11  12
 114 prop tor  10  11  12  13
 115 prop tor  10  11  12  32
 116 ben  10  11  21
 117 prop tor  10  11  21  20
 118 ben  10  22  23
 119 prop tor  10  22  23   7
 120 prop tor  10  22  23  38
 121 ben  10  22  37
 122 ben  11  10  22
 123 prop tor  11  10  22  23
 124 prop tor  11  10  22  37
 125 ben  11  12  13
 126 prop tor  11  12  13  14
 127 prop tor  11  12  13  20
 128 ben  11  12  32
 129 ben  11  21  20
 130 ben  12  11  21
 131 prop tor  12  11  21  20
 132 ben  12  13  14
 133 prop tor  12  13  14  15
 134 prop tor  12  13  14  33
 135 prop tor  12  13  14  34
 136 ben  12  13  20
 137 prop tor  12  13  20  19
 138 prop tor  12  13  20  21
 139 ben  13  12  32
 140 ben  13  14  15
 141 prop tor  13  14  15  16
 142 prop tor  13  14  15  19
 143 ben  13  14  33
 144 ben  13  14  34
 145 ben  13  20  19
 146 ben  13  20  21
 147 prop tor  13  20  21  11
 148 ben  14  13  20
 149 prop tor  14  13  20  19
 150 prop tor  14  13  20  21
 151 ben  14  15  16
 152 prop tor  14  15  16  17
 153 prop tor  14  15  16  35
 154 ben  14  15  19
 155 prop tor  14  15  19  18
 156 prop tor  14  15  19  20
 157 ben  15  14  33
 158 ben  15  14  34
 159 ben  15  16  17
 160 prop tor  15  16  17  18
 161 prop tor  15  16  17  36
 162 ben  15  16  35
 163 ben  15  19  18
 164 ben  15  19  20
 165 prop tor  15  19  20  13
 166 prop tor  15  19  20  21
 167 ben  16  15  19
 168 prop tor  16  15  19  18
 169 prop tor  16  15  19  20
 170 ben  16  17  18
 171 prop tor  16  17  18  19
 172 ben  16  17  36
 173 ben  17  16  35
 174 ben  17  18  19
 175 prop tor  17  18  19  15
 176 prop tor  17  18  19  20
 177 ben  18  17  36
 178 ben  18  19  20
 179 prop tor  18  19  20  13
 180 prop tor  18  19  20  21
 181 prop tor  19  15  16  17
 182 prop tor  19  15  16  35
 183 ben  19  20  21
 184 prop tor  19  20  21  11
 185 prop tor  20  13  14  15
 186 prop tor  20  13  14  33
 187 prop tor  20  13  14  34
 188 prop tor  21  11  12  13
 189 prop tor  21  11  12  32
 190 prop tor  22  10  11  12
 191 prop tor  22  10  11  21
 192 ben  22  23  38
 193 prop tor  23   7   8   9
 194 prop tor  23   7   8  30
 195 ben  23  22  37
 196 prop tor  24   6   7   8
 197 prop tor  24   6   7  23
 198 ben  24  25  26
 199 prop tor  24  25  26   1
 200 prop tor  24  25  26  39
 201 prop tor  25   4   5   6
 202 ben  25  26  39
 203 prop tor  26   1   2   3
 204 prop tor  26   1   2  28
 205 ben  26   1  27
 206 prop tor  27   1   2   3
 207 prop tor  27   1   2  28
 208 prop tor  27   1  26  25
 209 prop tor  27   1  26  39
 210 prop tor  28   2   3   4
 211 prop tor  28   2   3  29
 212 prop tor  29   3   4   5
 213 prop tor  29   3   4  25
 214 prop tor  30   8   9  10
 215 prop tor  30   8   9  31
 216 prop tor  31   9  10  11
 217 prop tor  31   9  10  22
 218 prop tor  32  12  13  14
 219 prop tor  32  12  13  20
 220 prop tor  33  14  15  16
 221 prop tor  33  14  15  19
 222 ben  33  14  34
 223 prop tor  34  14  15  16
 224 prop tor  34  14  15  19
 225 prop tor  35  16  17  18
 226 prop tor  35  16  17  36
 227 prop tor  36  17  18  19
 228 prop tor  37  22  23   7
 229 prop tor  37  22  23  38
 nber bend=              73
 nber lin bend=           0
 nber prop tor=         112
 nber impr tor=           0
 nber tot redund int=         229
 Eigenvalues of G in red int coords
    Gval -0.00000000 -0.00000000 -0.00000000 -0.00000000 -0.00000000 -0.00000000 -0.00000000 -0.00000000
    Gval -0.00000000 -0.00000000 -0.00000000 -0.00000000 -0.00000000 -0.00000000 -0.00000000 -0.00000000
    Gval -0.00000000 -0.00000000 -0.00000000 -0.00000000 -0.00000000 -0.00000000 -0.00000000 -0.00000000
    Gval -0.00000000 -0.00000000 -0.00000000 -0.00000000 -0.00000000 -0.00000000 -0.00000000 -0.00000000
    Gval -0.00000000 -0.00000000 -0.00000000 -0.00000000 -0.00000000 -0.00000000 -0.00000000 -0.00000000
    Gval -0.00000000 -0.00000000 -0.00000000 -0.00000000 -0.00000000 -0.00000000 -0.00000000 -0.00000000
    Gval -0.00000000 -0.00000000 -0.00000000 -0.00000000 -0.00000000 -0.00000000 -0.00000000 -0.00000000
    Gval -0.00000000 -0.00000000  0.00000000  0.00000000  0.00000000  0.00000000  0.00000000  0.00000000
    Gval  0.00000000  0.00000000  0.00000000  0.00000000  0.00000000  0.00000000  0.00000000  0.00000000
    Gval  0.00000000  0.00000000  0.00000000  0.00000000  0.00000000  0.00000000  0.00000000  0.00000000
    Gval  0.00000000  0.00000000  0.00000000  0.00000000  0.00000000  0.00000000  0.00000000  0.00000000
    Gval  0.00000000  0.00000000  0.00000000  0.00000000  0.00000000  0.00000000  0.00000000  0.00000000
    Gval  0.00000000  0.00000000  0.00000000  0.00000000  0.00000000  0.00000000  0.00000000  0.00000000
    Gval  0.00000000  0.00000000  0.00000000  0.00000000  0.00000000  0.00000000  0.00000000  0.00000000
    Gval  0.00000000  0.00000000  0.00000000  0.00000000  0.00000000  0.00000000  0.00000037  0.00000121
    Gval  0.00000157  0.00000262  0.00000661  0.00000776  0.00000900  0.00001126  0.00001434  0.00002025
    Gval  0.00002206  0.00002520  0.00002869  0.00003490  0.00003767  0.00003854  0.00003917  0.00004492
    Gval  0.00004745  0.00004815  0.00004942  0.00005439  0.00005865  0.00006094  0.00007020  0.00007313
    Gval  0.00007821  0.00008270  0.00008869  0.00009306  0.00009628  0.00010656  0.00011239  0.00011844
    Gval  0.00012083  0.00012464  0.00013179  0.00013487  0.00014663  0.00015549  0.00016297  0.00019318
    Gval  0.00020625  0.00020880  0.00022499  0.00025188  0.00028362  0.00029517  0.00030244  0.00030367
    Gval  0.00031563  0.00032634  0.00035764  0.00036680  0.00037305  0.00038363  0.00039045  0.00039830
    Gval  0.00041450  0.00042545  0.00044058  0.00057270  0.00058331  0.00059315  0.00059659  0.00059676
    Gval  0.00059751  0.00060018  0.00060116  0.00061831  0.00062370  0.00062663  0.00063177  0.00064622
    Gval  0.00065015  0.00065506  0.00066857  0.00083528  0.00097909  0.00105444  0.00107495  0.00108144
    Gval  0.00108615  0.00110753  0.00112255  0.00114124  0.00115188  0.00116318  0.00117044  0.00117163
    Gval  0.00118432  0.00120404  0.00133635  0.00138273  0.00163514  0.00166058  0.00180162  0.00180537
    Gval  0.00195762  0.00208671  0.00233956  0.00249252  0.00267373  0.00270207  0.00302576  0.00357022
    Gval  0.00360766  0.00371646  0.00373962  0.00402224  0.00407984
  3.681580060770035E-007  3.681580060770035E-007
  1.212029450877567E-006  3.681580060770035E-007
  1.573801313218231E-006  3.681580060770035E-007
  2.621482831998946E-006  3.681580060770035E-007
  6.612562101093676E-006  3.681580060770035E-007
  7.764833815634535E-006  3.681580060770035E-007
  9.000593054118432E-006  3.681580060770035E-007
  1.125719899744362E-005  3.681580060770035E-007
  1.434474404052997E-005  3.681580060770035E-007
  2.024665580361198E-005  3.681580060770035E-007
  2.206411692453826E-005  3.681580060770035E-007
  2.520301154956635E-005  3.681580060770035E-007
  2.868657491053467E-005  3.681580060770035E-007
  3.489892126365541E-005  3.681580060770035E-007
  3.767276856482523E-005  3.681580060770035E-007
  3.854235585257099E-005  3.681580060770035E-007
  3.916800262476249E-005  3.681580060770035E-007
  4.492376755603107E-005  3.681580060770035E-007
  4.745245812499624E-005  3.681580060770035E-007
  4.814741652866753E-005  3.681580060770035E-007
  4.941679953976075E-005  3.681580060770035E-007
  5.439046511416016E-005  3.681580060770035E-007
  5.865273742993669E-005  3.681580060770035E-007
  6.093647573351320E-005  3.681580060770035E-007
  7.020000674839510E-005  3.681580060770035E-007
  7.312505596751101E-005  3.681580060770035E-007
  7.821494450118991E-005  3.681580060770035E-007
  8.270100048151975E-005  3.681580060770035E-007
  8.868666915701484E-005  3.681580060770035E-007
  9.306447549154456E-005  3.681580060770035E-007
  9.627954296450677E-005  3.681580060770035E-007
  1.065606589051885E-004  3.681580060770035E-007
  1.123860189559512E-004  3.681580060770035E-007
  1.184436873606816E-004  3.681580060770035E-007
  1.208328147607517E-004  3.681580060770035E-007
  1.246408207067006E-004  3.681580060770035E-007
  1.317939558735998E-004  3.681580060770035E-007
  1.348712226767454E-004  3.681580060770035E-007
  1.466326546435472E-004  3.681580060770035E-007
  1.554870175694076E-004  3.681580060770035E-007
  1.629718017486060E-004  3.681580060770035E-007
  1.931835871909473E-004  3.681580060770035E-007
  2.062475079401468E-004  3.681580060770035E-007
  2.088027255000573E-004  3.681580060770035E-007
  2.249871870555775E-004  3.681580060770035E-007
  2.518823156867593E-004  3.681580060770035E-007
  2.836245789955634E-004  3.681580060770035E-007
  2.951749274973234E-004  3.681580060770035E-007
  3.024446039976950E-004  3.681580060770035E-007
  3.036670408927551E-004  3.681580060770035E-007
  3.156311917941957E-004  3.681580060770035E-007
  3.263426351639673E-004  3.681580060770035E-007
  3.576408730157777E-004  3.681580060770035E-007
  3.668010723588703E-004  3.681580060770035E-007
  3.730484159249400E-004  3.681580060770035E-007
  3.836316853352453E-004  3.681580060770035E-007
  3.904504941243089E-004  3.681580060770035E-007
  3.982950686423646E-004  3.681580060770035E-007
  4.144993875672205E-004  3.681580060770035E-007
  4.254513771713443E-004  3.681580060770035E-007
  4.405812405846183E-004  3.681580060770035E-007
  5.726983705891933E-004  3.681580060770035E-007
  5.833141852227833E-004  3.681580060770035E-007
  5.931539701588507E-004  3.681580060770035E-007
  5.965914652979242E-004  3.681580060770035E-007
  5.967560449266114E-004  3.681580060770035E-007
  5.975120176081451E-004  3.681580060770035E-007
  6.001848991017739E-004  3.681580060770035E-007
  6.011612722821168E-004  3.681580060770035E-007
  6.183062806657790E-004  3.681580060770035E-007
  6.236958268995358E-004  3.681580060770035E-007
  6.266337907623586E-004  3.681580060770035E-007
  6.317684166700962E-004  3.681580060770035E-007
  6.462175487023439E-004  3.681580060770035E-007
  6.501507208584020E-004  3.681580060770035E-007
  6.550645416536887E-004  3.681580060770035E-007
  6.685724237478231E-004  3.681580060770035E-007
  8.352847547360341E-004  3.681580060770035E-007
  9.790927645892274E-004  3.681580060770035E-007
  1.054442119182259E-003  3.681580060770035E-007
  1.074948201988830E-003  3.681580060770035E-007
  1.081441031800369E-003  3.681580060770035E-007
  1.086152969294357E-003  3.681580060770035E-007
  1.107531935618765E-003  3.681580060770035E-007
  1.122553077324123E-003  3.681580060770035E-007
  1.141238003348167E-003  3.681580060770035E-007
  1.151877110493948E-003  3.681580060770035E-007
  1.163181711731470E-003  3.681580060770035E-007
  1.170439457956367E-003  3.681580060770035E-007
  1.171632507523401E-003  3.681580060770035E-007
  1.184322887726525E-003  3.681580060770035E-007
  1.204042826444948E-003  3.681580060770035E-007
  1.336349197039226E-003  3.681580060770035E-007
  1.382727381155088E-003  3.681580060770035E-007
  1.635136887983869E-003  3.681580060770035E-007
  1.660577235127471E-003  3.681580060770035E-007
  1.801620464019518E-003  3.681580060770035E-007
  1.805371373463267E-003  3.681580060770035E-007
  1.957618724076384E-003  3.681580060770035E-007
  2.086705437407496E-003  3.681580060770035E-007
  2.339557140584747E-003  3.681580060770035E-007
  2.492518227905862E-003  3.681580060770035E-007
  2.673726463745523E-003  3.681580060770035E-007
  2.702069585264398E-003  3.681580060770035E-007
  3.025761022285241E-003  3.681580060770035E-007
  3.570215907181479E-003  3.681580060770035E-007
  3.607658269753191E-003  3.681580060770035E-007
  3.716460330505818E-003  3.681580060770035E-007
  3.739616460815351E-003  3.681580060770035E-007
  4.022237162813211E-003  3.681580060770035E-007
  4.079837808325305E-003  3.681580060770035E-007
 cut=1d-8, nber non-redundant internal coords=         111
 Check on Eigenvals of non-red overlap matrix:
  0.00000037  0.00000121  0.00000157  0.00000262  0.00000661  0.00000776  0.00000900  0.00001126
  0.00001434  0.00002025  0.00002206  0.00002520  0.00002869  0.00003490  0.00003767  0.00003854
  0.00003917  0.00004492  0.00004745  0.00004815  0.00004942  0.00005439  0.00005865  0.00006094
  0.00007020  0.00007313  0.00007821  0.00008270  0.00008869  0.00009306  0.00009628  0.00010656
  0.00011239  0.00011844  0.00012083  0.00012464  0.00013179  0.00013487  0.00014663  0.00015549
  0.00016297  0.00019318  0.00020625  0.00020880  0.00022499  0.00025188  0.00028362  0.00029517
  0.00030244  0.00030367  0.00031563  0.00032634  0.00035764  0.00036680  0.00037305  0.00038363
  0.00039045  0.00039830  0.00041450  0.00042545  0.00044058  0.00057270  0.00058331  0.00059315
  0.00059659  0.00059676  0.00059751  0.00060018  0.00060116  0.00061831  0.00062370  0.00062663
  0.00063177  0.00064622  0.00065015  0.00065506  0.00066857  0.00083528  0.00097909  0.00105444
  0.00107495  0.00108144  0.00108615  0.00110753  0.00112255  0.00114124  0.00115188  0.00116318
  0.00117044  0.00117163  0.00118432  0.00120404  0.00133635  0.00138273  0.00163514  0.00166058
  0.00180162  0.00180537  0.00195762  0.00208671  0.00233956  0.00249252  0.00267373  0.00270207
  0.00302576  0.00357022  0.00360766  0.00371646  0.00373962  0.00402224  0.00407984
 Checking for correct frequencies
 recalc frequencies=
    -0.0   -0.0   -0.0   -0.0    0.0    0.0   16.4   19.9   36.0   44.2
    55.5   91.0  109.9  143.4  146.3  162.2  192.3  204.1  237.0  253.8
   283.3  293.4  349.9  357.3  376.8  411.1  425.9  436.2  441.7  468.5
   486.7  509.4  520.2  545.5  564.6  570.8  582.7  590.2  616.1  625.1
   633.8  641.5  672.1  693.5  698.7  708.5  717.0  721.7  736.2  745.4
   773.0  817.7  832.0  848.3  860.6  866.9  871.8  878.2  921.8  937.1
   951.5  958.2  963.3  969.5  989.9  997.1 1002.2 1027.5 1035.0 1038.6
  1082.2 1110.1 1142.9 1144.6 1149.6 1177.5 1184.0 1209.5 1212.8 1237.7
  1254.5 1269.7 1275.4 1311.5 1323.8 1340.1 1346.0 1360.7 1404.4 1420.9
  1439.3 1448.5 1458.3 1463.2 1469.2 1488.7 1521.7 1530.7 1542.2 1557.2
  1592.4 1596.6 1637.7 1645.0 3028.3 3056.0 3166.9 3168.5 3180.2 3181.1
  3183.6 3191.0 3198.1 3200.1 3202.6 3206.7 3246.4
 recalc symmetries=
                                                                       
                                                                       
                                                                       
                                                                       
                                                                       
                                                                       
                                                                       
                                                                       
                                                                       
                                                                       
                                                                       
                                                  
 recalc freqs check OK
 Zero-point lengths:
 10.0000 10.0000 10.0000 10.0000 10.0000 10.0000 61.1548 55.5808 41.2967 37.2817
 33.2683 25.9820 23.6534 20.7017 20.4931 19.4680 17.8770 17.3535 16.1022 15.5614
 14.7302 14.4726 13.2528 13.1153 12.7709 12.2277 12.0123 11.8697 11.7954 11.4539
 11.2371 10.9845 10.8692 10.6147 10.4337 10.3770 10.2699 10.2048  9.9877  9.9156
  9.8471  9.7881  9.5623  9.4138  9.3792  9.3135  9.2582  9.2279  9.1372  9.0805
  8.9169  8.6697  8.5947  8.5117  8.4509  8.4202  8.3962  8.3655  8.1652  8.0984
  8.0371  8.0086  7.9876  7.9620  7.8796  7.8511  7.8311  7.7342  7.7060  7.6926
  7.5359  7.4406  7.3331  7.3277  7.3117  7.2245  7.2047  7.1284  7.1186  7.0467
  6.9993  6.9574  6.9417  6.8456  6.8137  6.7722  6.7573  6.7207  6.6154  6.5768
  6.5347  6.5137  6.4919  6.4810  6.4678  6.4253  6.3552  6.3366  6.3129  6.2823
  6.2125  6.2043  6.1261  6.1123  4.5050  4.4846  4.4054  4.4042  4.3961  4.3955
  4.3938  4.3887  4.3838  4.3824  4.3807  4.3779  4.3511
 highest evec of mol 2
 -0.0000 -0.0000 -0.0000
 -0.0000  0.0000  0.0000
 -0.0000  0.0000  0.0000
  0.0000  0.0000 -0.0000
  0.0000 -0.0000 -0.0000
 -0.0000 -0.0000  0.0000
  0.0000  0.0000 -0.0000
 -0.0001  0.0000  0.0001
  0.0001  0.0001  0.0000
 -0.0001 -0.0000  0.0000
  0.0001  0.0001  0.0001
 -0.0001 -0.0001 -0.0002
 -0.0002 -0.0001 -0.0003
 -0.0002 -0.0001  0.0001
  0.0063  0.0018 -0.0015
 -0.0293  0.0072  0.0622
 -0.2548 -0.1108 -0.0808
  0.0012 -0.0001 -0.0018
  0.0030  0.0014  0.0013
  0.0002  0.0002  0.0003
 -0.0001 -0.0000  0.0000
  0.0001 -0.0000 -0.0000
 -0.0001 -0.0001 -0.0000
  0.0000  0.0000  0.0000
  0.0000  0.0000  0.0000
  0.0000 -0.0000 -0.0000
  0.0001  0.0001  0.0001
  0.0001  0.0000 -0.0000
  0.0000 -0.0001 -0.0001
  0.0002 -0.0001 -0.0002
 -0.0001 -0.0001 -0.0001
  0.0003  0.0002  0.0005
 -0.0002 -0.0002 -0.0001
 -0.0003 -0.0000 -0.0002
  0.1047 -0.0057 -0.1501
  0.8381  0.3532  0.2251
 -0.0001  0.0001  0.0001
  0.0001  0.0002  0.0002
 -0.0000  0.0000  0.0001
 Enter nber and list of atoms to keep of mol #2
 keep list:          39           1           2           3           4
           5           6           7           8           9          10
          11          12          13          14          15          16
          17          18          19          20          21          22
          23          24          25          26          27          28
          29          30          31          32          33          34
          35          36          37          38          39
 reordering atoms
           1   8.36186472553295     
           2   8.62088950437972     
           3   7.58244259567414     
           4   6.27495335562345     
           5   4.76697281420862     
           6   3.89608025340439     
           7   2.43332927254289     
           8   1.63412306144972     
           9  0.251629304523674     
          10 -0.394790430337766     
          11  -1.84921522273838     
          12  -2.61516670426232     
          13  -4.00116103821352     
          14  -5.28197509008166     
          15  -6.33617493194193     
          16  -7.75126969883117     
          17  -8.19409043989609     
          18  -6.88402394747111     
          19  -5.73003556648466     
          20  -4.29940914738688     
          21  -2.87964307742861     
          22  0.415298847216370     
          23   1.79488498064058     
          24   4.66208052655751     
          25   5.99870383940824     
          26   7.06168995592738     
          27   9.19132151879814     
          28   9.64555207098317     
          29   7.78747411318497     
          30   2.09252261889317     
          31 -0.335662807806832     
          32  -2.17593850915746     
          33  -5.35976449942650     
          34  -5.35809974703604     
          35  -8.42148098439088     
          36  -9.21065951785907     
          37 -4.861708623351521E-002
          38   2.40703188331354     
          39   6.84518228392294     
           1           1
           2           2
           3           3
           4           4
           5           5
           6           6
           7           7
           8           8
           9           9
          10          10
          11          11
          12          12
          13          13
          14          14
          15          15
          16          16
          17          17
          18          18
          19          19
          20          20
          21          21
          22          22
          23          23
          24          24
          25          25
          26          26
          27          27
          28          28
          29          29
          30          30
          31          31
          32          32
          33          33
          34          34
          35          35
          36          36
          37          37
          38          38
          39          39
 initial cartes coords mol 1
   6   0.00095   1.14882   8.34972
   6   0.00091  -0.23432   8.60162
   6   0.00038  -1.15035   7.55244
   6  -0.00006  -0.66187   6.24969
  16  -0.00054  -1.54621   4.73996
   6  -0.00060   0.02999   3.86598
   6  -0.00059   0.09580   2.43346
   6  -0.00015  -1.05933   1.60971
   6   0.00012  -0.95549   0.23926
   6  -0.00004   0.31087  -0.41260
   6   0.00015   0.42837  -1.83366
   6   0.00023   1.59855  -2.62692
   6   0.00028   1.33239  -3.98708
   6   0.00003   2.14190  -5.27027
   6  -0.00014   1.04895  -6.31979
   6  -0.00004   0.95971  -7.72016
   6   0.00016  -0.34886  -8.15926
  16   0.00026  -1.50736  -6.84960
   6  -0.00002  -0.21032  -5.69386
   6   0.00031  -0.04785  -4.29282
  16   0.00010  -1.03793  -2.86912
   6  -0.00055   1.46888   0.42332
   6  -0.00081   1.36617   1.79063
   7  -0.00039   1.08206   4.65785
   6  -0.00004   0.73632   5.97451
   6   0.00046   1.64018   7.05582
   1   0.00137   1.84011   9.18504
   1   0.00129  -0.59428   9.62397
   1   0.00036  -2.21568   7.75017
   1   0.00004  -2.04400   2.06289
   1   0.00056  -1.86360  -0.35347
   1   0.00033   2.58851  -2.19410
   1   0.88067   2.78977  -5.34574
   1  -0.88071   2.78970  -5.34529
   1  -0.00014   1.80234  -8.39932
   1   0.00014  -0.70935  -9.17648
   1  -0.00080   2.45429  -0.02624
   1  -0.00119   2.25049   2.41398
   1   0.00049   2.70342   6.84910
 initial cartes coords mol 2
   6   0.28663   1.13503   8.36186
   6   0.03158  -0.22089   8.62089
   6  -0.16332  -1.12388   7.58244
   6  -0.09819  -0.64451   6.27495
  16  -0.29482  -1.50997   4.76697
   6  -0.01800   0.02959   3.89608
   6  -0.03647   0.09187   2.43333
   6  -0.27711  -1.03361   1.63412
   6  -0.29166  -0.93626   0.25163
   6  -0.05617   0.28982  -0.39479
   6  -0.07378   0.41088  -1.84922
   6  -0.29957   1.53881  -2.61517
   6  -0.24178   1.28700  -4.00116
   6  -0.40848   2.07944  -5.28198
   6  -0.18702   1.01397  -6.33617
   6  -0.17023   0.93863  -7.75127
   6   0.09309  -0.33080  -8.19409
  16   0.32682  -1.46367  -6.88402
   6   0.06498  -0.20392  -5.73004
   6   0.02925  -0.03706  -4.29941
  16   0.22588  -0.99730  -2.87964
   6   0.19484   1.41528   0.41530
   6   0.19841   1.32140   1.79488
   7   0.19426   1.05301   4.66208
   6   0.15795   0.71884   5.99870
   6   0.35128   1.61150   7.06169
   1   0.43474   1.81672   9.19132
   1  -0.01443  -0.57114   9.64555
   1  -0.35977  -2.16923   7.78747
   1  -0.46714  -1.99770   2.09252
   1  -0.50861  -1.82094  -0.33566
   1  -0.52630   2.50134  -2.17594
   1   0.32165   2.89275  -5.35976
   1  -1.40319   2.53269  -5.35810
   1  -0.34238   1.77072  -8.42148
   1   0.16690  -0.68442  -9.21066
   1   0.41263   2.36969  -0.04862
   1   0.39577   2.19187   2.40703
   1   0.54713   2.65448   6.84518
 loop 1 0
 mod cartes coords mol 2
   6   0.28663   1.13503   8.36186
   6   0.03158  -0.22089   8.62089
   6  -0.16332  -1.12388   7.58244
   6  -0.09819  -0.64451   6.27495
  16  -0.29482  -1.50997   4.76697
   6  -0.01800   0.02959   3.89608
   6  -0.03647   0.09187   2.43333
   6  -0.27711  -1.03361   1.63412
   6  -0.29166  -0.93626   0.25163
   6  -0.05617   0.28982  -0.39479
   6  -0.07378   0.41088  -1.84922
   6  -0.29957   1.53881  -2.61517
   6  -0.24178   1.28700  -4.00116
   6  -0.40848   2.07944  -5.28198
   6  -0.18702   1.01397  -6.33617
   6  -0.17023   0.93863  -7.75127
   6   0.09309  -0.33080  -8.19409
  16   0.32682  -1.46367  -6.88402
   6   0.06498  -0.20392  -5.73004
   6   0.02925  -0.03706  -4.29941
  16   0.22588  -0.99730  -2.87964
   6   0.19484   1.41528   0.41530
   6   0.19841   1.32140   1.79488
   7   0.19426   1.05301   4.66208
   6   0.15795   0.71884   5.99870
   6   0.35128   1.61150   7.06169
   1   0.43474   1.81672   9.19132
   1  -0.01443  -0.57114   9.64555
   1  -0.35977  -2.16923   7.78747
   1  -0.46714  -1.99770   2.09252
   1  -0.50861  -1.82094  -0.33566
   1  -0.52630   2.50134  -2.17594
   1   0.32165   2.89275  -5.35976
   1  -1.40319   2.53269  -5.35810
   1  -0.34238   1.77072  -8.42148
   1   0.16690  -0.68442  -9.21066
   1   0.41263   2.36969  -0.04862
   1   0.39577   2.19187   2.40703
   1   0.54713   2.65448   6.84518
 read in order, maxerr=  0.58 for atom  34
 loop 1 1
 mod cartes coords mol 2
   6  -0.28663   1.13503   8.36186
   6  -0.03158  -0.22089   8.62089
   6   0.16332  -1.12388   7.58244
   6   0.09819  -0.64451   6.27495
  16   0.29482  -1.50997   4.76697
   6   0.01800   0.02959   3.89608
   6   0.03647   0.09187   2.43333
   6   0.27711  -1.03361   1.63412
   6   0.29166  -0.93626   0.25163
   6   0.05617   0.28982  -0.39479
   6   0.07378   0.41088  -1.84922
   6   0.29957   1.53881  -2.61517
   6   0.24178   1.28700  -4.00116
   6   0.40848   2.07944  -5.28198
   6   0.18702   1.01397  -6.33617
   6   0.17023   0.93863  -7.75127
   6  -0.09309  -0.33080  -8.19409
  16  -0.32682  -1.46367  -6.88402
   6  -0.06498  -0.20392  -5.73004
   6  -0.02925  -0.03706  -4.29941
  16  -0.22588  -0.99730  -2.87964
   6  -0.19484   1.41528   0.41530
   6  -0.19841   1.32140   1.79488
   7  -0.19426   1.05301   4.66208
   6  -0.15795   0.71884   5.99870
   6  -0.35128   1.61150   7.06169
   1  -0.43474   1.81672   9.19132
   1   0.01443  -0.57114   9.64555
   1   0.35977  -2.16923   7.78747
   1   0.46714  -1.99770   2.09252
   1   0.50861  -1.82094  -0.33566
   1   0.52630   2.50134  -2.17594
   1  -0.32165   2.89275  -5.35976
   1   1.40319   2.53269  -5.35810
   1   0.34238   1.77072  -8.42148
   1  -0.16690  -0.68442  -9.21066
   1  -0.41263   2.36969  -0.04862
   1  -0.39577   2.19187   2.40703
   1  -0.54713   2.65448   6.84518
 read in order, maxerr=  2.30 for atom  34
 loop 1 2
 mod cartes coords mol 2
   6   0.28663  -1.13503   8.36186
   6   0.03158   0.22089   8.62089
   6  -0.16332   1.12388   7.58244
   6  -0.09819   0.64451   6.27495
  16  -0.29482   1.50997   4.76697
   6  -0.01800  -0.02959   3.89608
   6  -0.03647  -0.09187   2.43333
   6  -0.27711   1.03361   1.63412
   6  -0.29166   0.93626   0.25163
   6  -0.05617  -0.28982  -0.39479
   6  -0.07378  -0.41088  -1.84922
   6  -0.29957  -1.53881  -2.61517
   6  -0.24178  -1.28700  -4.00116
   6  -0.40848  -2.07944  -5.28198
   6  -0.18702  -1.01397  -6.33617
   6  -0.17023  -0.93863  -7.75127
   6   0.09309   0.33080  -8.19409
  16   0.32682   1.46367  -6.88402
   6   0.06498   0.20392  -5.73004
   6   0.02925   0.03706  -4.29941
  16   0.22588   0.99730  -2.87964
   6   0.19484  -1.41528   0.41530
   6   0.19841  -1.32140   1.79488
   7   0.19426  -1.05301   4.66208
   6   0.15795  -0.71884   5.99870
   6   0.35128  -1.61150   7.06169
   1   0.43474  -1.81672   9.19132
   1  -0.01443   0.57114   9.64555
   1  -0.35977   2.16923   7.78747
   1  -0.46714   1.99770   2.09252
   1  -0.50861   1.82094  -0.33566
   1  -0.52630  -2.50134  -2.17594
   1   0.32165  -2.89275  -5.35976
   1  -1.40319  -2.53269  -5.35810
   1  -0.34238  -1.77072  -8.42148
   1   0.16690   0.68442  -9.21066
   1   0.41263  -2.36969  -0.04862
   1   0.39577  -2.19187   2.40703
   1   0.54713  -2.65448   6.84518
 read in order, maxerr=  5.71 for atom  33
 loop 1 3
 mod cartes coords mol 2
   6  -0.28663  -1.13503   8.36186
   6  -0.03158   0.22089   8.62089
   6   0.16332   1.12388   7.58244
   6   0.09819   0.64451   6.27495
  16   0.29482   1.50997   4.76697
   6   0.01800  -0.02959   3.89608
   6   0.03647  -0.09187   2.43333
   6   0.27711   1.03361   1.63412
   6   0.29166   0.93626   0.25163
   6   0.05617  -0.28982  -0.39479
   6   0.07378  -0.41088  -1.84922
   6   0.29957  -1.53881  -2.61517
   6   0.24178  -1.28700  -4.00116
   6   0.40848  -2.07944  -5.28198
   6   0.18702  -1.01397  -6.33617
   6   0.17023  -0.93863  -7.75127
   6  -0.09309   0.33080  -8.19409
  16  -0.32682   1.46367  -6.88402
   6  -0.06498   0.20392  -5.73004
   6  -0.02925   0.03706  -4.29941
  16  -0.22588   0.99730  -2.87964
   6  -0.19484  -1.41528   0.41530
   6  -0.19841  -1.32140   1.79488
   7  -0.19426  -1.05301   4.66208
   6  -0.15795  -0.71884   5.99870
   6  -0.35128  -1.61150   7.06169
   1  -0.43474  -1.81672   9.19132
   1   0.01443   0.57114   9.64555
   1   0.35977   2.16923   7.78747
   1   0.46714   1.99770   2.09252
   1   0.50861   1.82094  -0.33566
   1   0.52630  -2.50134  -2.17594
   1  -0.32165  -2.89275  -5.35976
   1   1.40319  -2.53269  -5.35810
   1   0.34238  -1.77072  -8.42148
   1  -0.16690   0.68442  -9.21066
   1  -0.41263  -2.36969  -0.04862
   1  -0.39577  -2.19187   2.40703
   1  -0.54713  -2.65448   6.84518
 read in order, maxerr=  5.81 for atom  33
 loop 1 4
 mod cartes coords mol 2
   6   0.28663   1.13503  -8.36186
   6   0.03158  -0.22089  -8.62089
   6  -0.16332  -1.12388  -7.58244
   6  -0.09819  -0.64451  -6.27495
  16  -0.29482  -1.50997  -4.76697
   6  -0.01800   0.02959  -3.89608
   6  -0.03647   0.09187  -2.43333
   6  -0.27711  -1.03361  -1.63412
   6  -0.29166  -0.93626  -0.25163
   6  -0.05617   0.28982   0.39479
   6  -0.07378   0.41088   1.84922
   6  -0.29957   1.53881   2.61517
   6  -0.24178   1.28700   4.00116
   6  -0.40848   2.07944   5.28198
   6  -0.18702   1.01397   6.33617
   6  -0.17023   0.93863   7.75127
   6   0.09309  -0.33080   8.19409
  16   0.32682  -1.46367   6.88402
   6   0.06498  -0.20392   5.73004
   6   0.02925  -0.03706   4.29941
  16   0.22588  -0.99730   2.87964
   6   0.19484   1.41528  -0.41530
   6   0.19841   1.32140  -1.79488
   7   0.19426   1.05301  -4.66208
   6   0.15795   0.71884  -5.99870
   6   0.35128   1.61150  -7.06169
   1   0.43474   1.81672  -9.19132
   1  -0.01443  -0.57114  -9.64555
   1  -0.35977  -2.16923  -7.78747
   1  -0.46714  -1.99770  -2.09252
   1  -0.50861  -1.82094   0.33566
   1  -0.52630   2.50134   2.17594
   1   0.32165   2.89275   5.35976
   1  -1.40319   2.53269   5.35810
   1  -0.34238   1.77072   8.42148
   1   0.16690  -0.68442   9.21066
   1   0.41263   2.36969   0.04862
   1   0.39577   2.19187  -2.40703
   1   0.54713   2.65448  -6.84518
 read in order, maxerr= 19.27 for atom  28
 loop 1 5
 mod cartes coords mol 2
   6  -0.28663   1.13503  -8.36186
   6  -0.03158  -0.22089  -8.62089
   6   0.16332  -1.12388  -7.58244
   6   0.09819  -0.64451  -6.27495
  16   0.29482  -1.50997  -4.76697
   6   0.01800   0.02959  -3.89608
   6   0.03647   0.09187  -2.43333
   6   0.27711  -1.03361  -1.63412
   6   0.29166  -0.93626  -0.25163
   6   0.05617   0.28982   0.39479
   6   0.07378   0.41088   1.84922
   6   0.29957   1.53881   2.61517
   6   0.24178   1.28700   4.00116
   6   0.40848   2.07944   5.28198
   6   0.18702   1.01397   6.33617
   6   0.17023   0.93863   7.75127
   6  -0.09309  -0.33080   8.19409
  16  -0.32682  -1.46367   6.88402
   6  -0.06498  -0.20392   5.73004
   6  -0.02925  -0.03706   4.29941
  16  -0.22588  -0.99730   2.87964
   6  -0.19484   1.41528  -0.41530
   6  -0.19841   1.32140  -1.79488
   7  -0.19426   1.05301  -4.66208
   6  -0.15795   0.71884  -5.99870
   6  -0.35128   1.61150  -7.06169
   1  -0.43474   1.81672  -9.19132
   1   0.01443  -0.57114  -9.64555
   1   0.35977  -2.16923  -7.78747
   1   0.46714  -1.99770  -2.09252
   1   0.50861  -1.82094   0.33566
   1   0.52630   2.50134   2.17594
   1  -0.32165   2.89275   5.35976
   1   1.40319   2.53269   5.35810
   1   0.34238   1.77072   8.42148
   1  -0.16690  -0.68442   9.21066
   1  -0.41263   2.36969   0.04862
[...]
                 0.3522    12.4          93      1458.
                 0.3910    15.3          98      1531.
  93      1458. -0.5507    30.3   100.1  89      1404.
                 0.5139    26.4          94      1463.
  94      1465.  0.4123    17.0   100.1  93      1458.
                -0.5575    31.1          94      1463.
                 0.3574    12.8          95      1469.
                 0.3888    15.1          98      1531.
  95      1475.  0.5740    32.9   100.3  92      1449.
                 0.3398    11.5          97      1522.
  96      1479. -0.7719    59.6   100.2  96      1489.
  97      1486. -0.4290    18.4    99.9  98      1531.
                -0.4766    22.7          99      1542.
  98      1493.  0.3954    15.6    99.9  97      1522.
                 0.6594    43.5         100      1557.
                -0.3613    13.1         101      1592.
  99      1497. -0.4595    21.1   100.4  95      1469.
                -0.5440    29.6          96      1489.
                 0.3289    10.8         100      1557.
 100      1500.  0.4120    17.0   100.2  93      1458.
                -0.6383    40.7          98      1531.
 101      1537.  0.4545    20.7   100.4  95      1469.
                 0.3655    13.4          97      1522.
                 0.3751    14.1          99      1542.
                 0.4263    18.2         101      1592.
 102      1579.  0.9757    95.2   100.0 102      1597.
 103      1619.  0.9780    95.6   100.1 103      1638.
 104      1634. -0.9738    94.8   100.3 104      1645.
 105      3021.  1.0000   100.0   100.0 105      3028.
 106      3046.  1.0000   100.0   100.0 106      3056.
 107      3163. -0.9375    87.9   100.0 107      3167.
                -0.3315    11.0         111      3184.
 108      3164.  0.9904    98.1   100.0 108      3168.
 109      3176.  0.9908    98.2   100.0 109      3180.
 110      3181. -0.8871    78.7   100.0 110      3181.
                 0.4028    16.2         111      3184.
 111      3182.  0.4526    20.5   100.0 110      3181.
                 0.8525    72.7         111      3184.
 112      3188. -0.9957    99.1   100.0 112      3191.
 113      3195.  0.9988    99.8   100.0 113      3198.
 114      3201.  0.9988    99.8   100.0 114      3200.
 115      3209.  0.3866    14.9   100.0 115      3203.
                 0.9219    85.0         116      3207.
 116      3219. -0.9205    84.7   100.0 115      3203.
                 0.3868    15.0         116      3207.
 117      3244.  1.0000   100.0   100.0 117      3246.
 nber times 1st assigned=           1           0
 nber times 1st assigned=           2           0
 nber times 1st assigned=           3           0
 nber times 1st assigned=           4           0
 nber times 1st assigned=           5           0
 nber times 1st assigned=           6           0
 nber times 1st assigned=           7           0
 nber times 1st assigned=           8           0
 nber times 1st assigned=           9           0
 nber times 1st assigned=          10           0
 nber times 1st assigned=          11           0
 nber times 1st assigned=          12           0
 nber times 1st assigned=          13           0
 nber times 1st assigned=          14           0
 nber times 1st assigned=          15           0
 nber times 1st assigned=          16           0
 nber times 1st assigned=          17           0
 nber times 1st assigned=          18           0
 nber times 1st assigned=          19           0
 nber times 1st assigned=          20           0
 nber times 1st assigned=          21           0
 nber times 1st assigned=          22           0
 nber times 1st assigned=          23           0
 nber times 1st assigned=          24           0
 nber times 1st assigned=          25           0
 nber times 1st assigned=          26           0
 nber times 1st assigned=          27           0
 nber times 1st assigned=          28           0
 nber times 1st assigned=          29           0
 nber times 1st assigned=          30           0
 nber times 1st assigned=          31           0
 nber times 1st assigned=          32           0
 nber times 1st assigned=          33           0
 nber times 1st assigned=          34           0
 nber times 1st assigned=          35           0
 nber times 1st assigned=          36           0
 nber times 1st assigned=          37           0
 nber times 1st assigned=          38           0
 nber times 1st assigned=          39           0
 nber times 1st assigned=          40           0
 nber times 1st assigned=          41           0
 nber times 1st assigned=          42           0
 nber times 1st assigned=          43           0
 nber times 1st assigned=          44           0
 nber times 1st assigned=          45           0
 nber times 1st assigned=          46           0
 nber times 1st assigned=          47           0
 nber times 1st assigned=          48           0
 nber times 1st assigned=          49           0
 nber times 1st assigned=          50           0
 nber times 1st assigned=          51           0
 nber times 1st assigned=          52           0
 nber times 1st assigned=          53           0
 nber times 1st assigned=          54           0
 nber times 1st assigned=          55           0
 nber times 1st assigned=          56           0
 nber times 1st assigned=          57           0
 nber times 1st assigned=          58           0
 nber times 1st assigned=          59           0
 nber times 1st assigned=          60           0
 nber times 1st assigned=          61           0
 nber times 1st assigned=          62           0
 nber times 1st assigned=          63           0
 nber times 1st assigned=          64           0
 nber times 1st assigned=          65           0
 nber times 1st assigned=          66           0
 nber times 1st assigned=          67           0
 nber times 1st assigned=          68           0
 nber times 1st assigned=          69           0
 nber times 1st assigned=          70           0
 nber times 1st assigned=          71           0
 nber times 1st assigned=          72           0
 nber times 1st assigned=          73           0
 nber times 1st assigned=          74           0
 nber times 1st assigned=          75           0
 nber times 1st assigned=          76           0
 nber times 1st assigned=          77           0
 nber times 1st assigned=          78           0
 nber times 1st assigned=          79           0
 nber times 1st assigned=          80           0
 nber times 1st assigned=          81           0
 nber times 1st assigned=          82           0
 nber times 1st assigned=          83           0
 nber times 1st assigned=          84           0
 nber times 1st assigned=          85           0
 nber times 1st assigned=          86           0
 nber times 1st assigned=          87           0
 nber times 1st assigned=          88           0
 nber times 1st assigned=          89           0
 nber times 1st assigned=          90           0
 nber times 1st assigned=          91           0
 nber times 1st assigned=          92           0
 nber times 1st assigned=          93           0
 nber times 1st assigned=          94           0
 nber times 1st assigned=          95           0
 nber times 1st assigned=          96           0
 nber times 1st assigned=          97           0
 nber times 1st assigned=          98           0
 nber times 1st assigned=          99           0
 nber times 1st assigned=         100           0
 nber times 1st assigned=         101           0
 nber times 1st assigned=         102           0
 nber times 1st assigned=         103           0
 nber times 1st assigned=         104           0
 nber times 1st assigned=         105           0
 nber times 1st assigned=         106           0
 nber times 1st assigned=         107           0
 nber times 1st assigned=         108           0
 nber times 1st assigned=         109           0
 nber times 1st assigned=         110           0
 nber times 1st assigned=         111           0
 nber times 1st assigned=         112           0
 nber times 1st assigned=         113           0
 nber times 1st assigned=         114           0
 nber times 1st assigned=         115           0
 nber times 1st assigned=         116           0
 nber times 1st assigned=         117           0
 modes represented=   127.577694881228     
 p1=
   -0.   -0.    0.   -0.    0.   -0.   98.  173.    6.  -12.   30.   -7.   -6.    2.    0.   14.   -1.    1.    2.   -0.
   -2.   -3.   -0.    4.   -2.    2.   -1.    0.    1.   -1.    0.    1.    1.   -1.   -0.    2.    1.   -3.   -0.    4.
   -1.    0.    3.    0.   -0.    2.    1.    3.   -0.   -0.    0.    2.   -0.    0.   -0.   -0.    1.   -0.    1.    0.
   -0.    0.    0.   -1.   -0.    0.   -1.   -0.    1.    0.   -1.   -0.   -0.   -1.    0.   -1.    1.    0.   -2.    1.
   -0.   -0.   -0.    1.   -1.    2.    1.    1.   -2.   -1.   -1.    0.    2.   -1.    1.   -0.    2.   -0.    1.   -3.
   -3.    0.    1.   -2.   -0.   -0.   -0.   -0.    0.   -0.   -0.   -0.   -0.    0.   -0.   -0.    0.
 p2=
    0.    0.    0.   -0.   -0.   -0. -162.  -63.  -19.   97.   -8.   -2.   -7.    2.   17.   -7.    1.   -1.   -1.    1.
   -2.   -2.    4.   -1.    1.   -2.    0.   -0.    0.   -0.    1.    2.   -0.   -0.   -0.   -1.   -1.    3.   -5.    0.
   -0.    0.   -2.    0.    0.    3.   -0.    3.   -0.   -1.   -0.   -0.   -1.    0.   -0.   -0.    1.   -0.   -1.    0.
    0.   -0.    0.    1.    0.    0.   -1.   -1.    1.   -0.   -1.   -0.   -0.    1.   -0.    0.    0.   -2.    1.    0.
   -1.   -0.    0.   -0.   -1.   -0.    0.    2.    2.   -2.    1.   -0.   -0.   -2.    3.    1.   -0.   -1.    3.   -0.
    0.   -0.   -0.   -2.   -0.   -0.   -0.    0.   -0.   -0.    0.   -0.   -0.    0.   -0.    0.   -0.

 Displacement: in terms of nc of 1 THEN of nc of 2

   1     freq=    -0. Q= -0.000 lam=    -0.0     freq=    -0. Q= -0.000 lam=    -0.0
   2     freq=    -0. Q= -0.000 lam=    -0.0     freq=    -0. Q= -0.000 lam=    -0.0
   3     freq=    -0. Q=  0.000 lam=    -0.0     freq=    -0. Q=  0.000 lam=    -0.0
   4     freq=     0. Q= -0.000 lam=     0.0     freq=    -0. Q= -0.000 lam=    -0.0
   5     freq=     0. Q=  0.000 lam=     0.0     freq=     0. Q=  0.000 lam=     0.0
   6     freq=     0. Q= -0.000 lam=     0.0     freq=     0. Q= -0.000 lam=     0.0
   7     freq=    16. Q=  1.610 lam=    21.3     freq=    16. Q=  2.653 lam=    57.8
   8     freq=    20. Q=  3.157 lam=   101.6     freq=    20. Q=  1.127 lam=    12.6
   9     freq=    40. Q=  0.155 lam=     0.5     freq=    36. Q=  0.449 lam=     3.6
  10     freq=    47. Q= -0.334 lam=     2.6     freq=    44. Q= -2.613 lam=   151.0
  11     freq=    60. Q=  0.953 lam=    27.3     freq=    56. Q=  0.245 lam=     1.7
  12     freq=    89. Q= -0.262 lam=     3.0     freq=    91. Q= -0.059 lam=     0.2
  13     freq=   100. Q= -0.248 lam=     3.1     freq=   110. Q= -0.277 lam=     4.2
  14     freq=   137. Q=  0.107 lam=     0.8     freq=   143. Q=  0.104 lam=     0.8
  15     freq=   146. Q=  0.014 lam=     0.0     freq=   146. Q=  0.845 lam=    52.3
  16     freq=   148. Q=  0.673 lam=    33.5     freq=   162. Q=  0.356 lam=    10.3
  17     freq=   190. Q= -0.048 lam=     0.2     freq=   192. Q= -0.036 lam=     0.1
  18     freq=   204. Q=  0.046 lam=     0.2     freq=   204. Q=  0.054 lam=     0.3
  19     freq=   222. Q=  0.118 lam=     1.6     freq=   237. Q=  0.037 lam=     0.2
  20     freq=   241. Q= -0.011 lam=     0.0     freq=   254. Q= -0.064 lam=     0.5
  21     freq=   277. Q= -0.131 lam=     2.4     freq=   283. Q= -0.152 lam=     3.3
  22     freq=   295. Q= -0.199 lam=     5.9     freq=   293. Q= -0.112 lam=     1.8
  23     freq=   317. Q= -0.018 lam=     0.0     freq=   350. Q= -0.323 lam=    18.2
  24     freq=   351. Q=  0.314 lam=    17.3     freq=   357. Q=  0.052 lam=     0.5
  25     freq=   377. Q= -0.152 lam=     4.4     freq=   377. Q= -0.092 lam=     1.6
  26     freq=   411. Q=  0.164 lam=     5.5     freq=   411. Q=  0.161 lam=     5.3
  27     freq=   424. Q= -0.057 lam=     0.7     freq=   426. Q= -0.035 lam=     0.3
  28     freq=   425. Q=  0.000 lam=     0.0     freq=   436. Q=  0.006 lam=     0.0
  29     freq=   437. Q=  0.084 lam=     1.5     freq=   442. Q=  0.025 lam=     0.1
  30     freq=   442. Q= -0.061 lam=     0.8     freq=   468. Q= -0.013 lam=     0.0
  31     freq=   455. Q=  0.025 lam=     0.1     freq=   487. Q=  0.078 lam=     1.5
  32     freq=   504. Q=  0.130 lam=     4.3     freq=   509. Q=  0.146 lam=     5.4
  33     freq=   519. Q=  0.048 lam=     0.6     freq=   520. Q=  0.016 lam=     0.1
  34     freq=   520. Q= -0.076 lam=     1.5     freq=   545. Q= -0.017 lam=     0.1
  35     freq=   542. Q= -0.024 lam=     0.2     freq=   565. Q= -0.047 lam=     0.6
  36     freq=   559. Q=  0.237 lam=    15.7     freq=   571. Q=  0.118 lam=     3.9
  37     freq=   569. Q=  0.071 lam=     1.5     freq=   583. Q=  0.074 lam=     1.6
  38     freq=   579. Q= -0.335 lam=    32.5     freq=   590. Q= -0.257 lam=    19.4
  39     freq=   594. Q= -0.007 lam=     0.0     freq=   616. Q= -0.481 lam=    71.3
  40     freq=   602. Q=  0.357 lam=    38.4     freq=   625. Q=  0.032 lam=     0.3
  41     freq=   628. Q= -0.103 lam=     3.4     freq=   634. Q= -0.020 lam=     0.1
  42     freq=   628. Q=  0.032 lam=     0.3     freq=   641. Q=  0.042 lam=     0.6
  43     freq=   653. Q=  0.345 lam=    39.0     freq=   672. Q=  0.255 lam=    21.8
  44     freq=   679. Q=  0.001 lam=     0.0     freq=   694. Q=  0.009 lam=     0.0
  45     freq=   681. Q= -0.011 lam=     0.0     freq=   699. Q= -0.000 lam=     0.0
  46     freq=   685. Q=  0.259 lam=    23.0     freq=   709. Q=  0.280 lam=    27.7
  47     freq=   710. Q=  0.125 lam=     5.5     freq=   717. Q=  0.014 lam=     0.1
  48     freq=   712. Q=  0.272 lam=    26.3     freq=   722. Q=  0.338 lam=    41.3
  49     freq=   722. Q= -0.025 lam=     0.2     freq=   736. Q= -0.037 lam=     0.5
  50     freq=   730. Q= -0.009 lam=     0.0     freq=   745. Q= -0.100 lam=     3.7
  51     freq=   765. Q=  0.009 lam=     0.0     freq=   773. Q=  0.006 lam=     0.0
  52     freq=   781. Q=  0.185 lam=    13.4     freq=   818. Q=  0.040 lam=     0.7
  53     freq=   788. Q= -0.000 lam=     0.0     freq=   832. Q= -0.093 lam=     3.6
  54     freq=   807. Q=  0.056 lam=     1.2     freq=   848. Q=  0.009 lam=     0.0
  55     freq=   816. Q= -0.034 lam=     0.5     freq=   861. Q= -0.025 lam=     0.3
  56     freq=   856. Q= -0.000 lam=     0.0     freq=   867. Q= -0.001 lam=     0.0
  57     freq=   869. Q=  0.061 lam=     1.6     freq=   872. Q=  0.085 lam=     3.2
  58     freq=   876. Q= -0.002 lam=     0.0     freq=   878. Q= -0.008 lam=     0.0
  59     freq=   897. Q=  0.122 lam=     6.7     freq=   922. Q=  0.087 lam=     3.5
  60     freq=   935. Q=  0.005 lam=     0.0     freq=   937. Q=  0.001 lam=     0.0
  61     freq=   937. Q= -0.039 lam=     0.7     freq=   951. Q= -0.001 lam=     0.0
  62     freq=   943. Q=  0.002 lam=     0.0     freq=   958. Q=  0.004 lam=     0.0
  63     freq=   946. Q=  0.042 lam=     0.8     freq=   963. Q=  0.008 lam=     0.0
  64     freq=   953. Q= -0.132 lam=     8.3     freq=   969. Q= -0.159 lam=    12.2
  65     freq=   977. Q= -0.027 lam=     0.4     freq=   990. Q= -0.000 lam=     0.0
  66     freq=   979. Q=  0.002 lam=     0.0     freq=   997. Q=  0.022 lam=     0.2
  67     freq=   987. Q= -0.110 lam=     6.0     freq=  1002. Q= -0.107 lam=     5.8
  68     freq=   999. Q= -0.014 lam=     0.1     freq=  1027. Q= -0.152 lam=    11.9
  69     freq=  1014. Q=  0.124 lam=     7.7     freq=  1035. Q=  0.122 lam=     7.7
  70     freq=  1034. Q=  0.047 lam=     1.2     freq=  1039. Q=  0.016 lam=     0.1
  71     freq=  1072. Q= -0.138 lam=    10.2     freq=  1082. Q= -0.120 lam=     7.8
  72     freq=  1101. Q= -0.049 lam=     1.3     freq=  1110. Q= -0.041 lam=     0.9
  73     freq=  1131. Q= -0.043 lam=     1.0     freq=  1143. Q= -0.057 lam=     1.8
  74     freq=  1141. Q= -0.101 lam=     5.8     freq=  1145. Q= -0.087 lam=     4.3
  75     freq=  1154. Q=  0.006 lam=     0.0     freq=  1150. Q=  0.001 lam=     0.0
  76     freq=  1179. Q= -0.119 lam=     8.4     freq=  1178. Q= -0.065 lam=     2.5
  77     freq=  1182. Q=  0.144 lam=    12.3     freq=  1184. Q=  0.005 lam=     0.0
  78     freq=  1194. Q=  0.060 lam=     2.1     freq=  1209. Q=  0.280 lam=    47.4
  79     freq=  1208. Q= -0.265 lam=    42.3     freq=  1213. Q= -0.082 lam=     4.1
  80     freq=  1224. Q=  0.204 lam=    25.5     freq=  1238. Q=  0.061 lam=     2.3
  81     freq=  1256. Q= -0.004 lam=     0.0     freq=  1255. Q= -0.176 lam=    19.4
  82     freq=  1268. Q= -0.009 lam=     0.1     freq=  1270. Q= -0.008 lam=     0.0
  83     freq=  1277. Q= -0.020 lam=     0.2     freq=  1275. Q= -0.019 lam=     0.2
  84     freq=  1317. Q=  0.127 lam=    10.6     freq=  1311. Q=  0.000 lam=     0.0
  85     freq=  1321. Q= -0.080 lam=     4.2     freq=  1324. Q= -0.096 lam=     6.1
  86     freq=  1328. Q=  0.239 lam=    38.0     freq=  1340. Q=  0.030 lam=     0.6
  87     freq=  1340. Q=  0.094 lam=     5.9     freq=  1346. Q=  0.063 lam=     2.7
  88     freq=  1349. Q=  0.114 lam=     8.7     freq=  1361. Q=  0.290 lam=    57.2
  89     freq=  1356. Q= -0.356 lam=    85.9     freq=  1404. Q= -0.351 lam=    86.4
  90     freq=  1424. Q= -0.081 lam=     4.7     freq=  1421. Q= -0.372 lam=    98.5
  91     freq=  1432. Q= -0.089 lam=     5.6     freq=  1439. Q= -0.152 lam=    16.7
  92     freq=  1444. Q=  0.025 lam=     0.5     freq=  1449. Q=  0.017 lam=     0.2
  93     freq=  1458. Q=  0.327 lam=    78.1     freq=  1458. Q=  0.028 lam=     0.6
  94     freq=  1465. Q= -0.139 lam=    14.2     freq=  1463. Q= -0.266 lam=    51.6
  95     freq=  1475. Q=  0.198 lam=    28.8     freq=  1469. Q=  0.409 lam=   122.6
  96     freq=  1479. Q= -0.004 lam=     0.0     freq=  1489. Q= -0.087 lam=     5.6
  97     freq=  1486. Q=  0.239 lam=    42.5     freq=  1522. Q=  0.044 lam=     1.5
  98     freq=  1493. Q= -0.075 lam=     4.2     freq=  1531. Q= -0.143 lam=    15.7
  99     freq=  1497. Q=  0.095 lam=     6.8     freq=  1542. Q=  0.427 lam=   140.5
 100     freq=  1500. Q= -0.471 lam=   166.1     freq=  1557. Q= -0.027 lam=     0.6
 101     freq=  1537. Q= -0.454 lam=   158.7     freq=  1592. Q= -0.047 lam=     1.8
 102     freq=  1579. Q=  0.038 lam=     1.2     freq=  1597. Q=  0.014 lam=     0.2
 103     freq=  1619. Q=  0.091 lam=     6.7     freq=  1638. Q=  0.080 lam=     5.2
 104     freq=  1634. Q= -0.401 lam=   131.5     freq=  1645. Q= -0.300 lam=    74.2
 105     freq=  3021. Q= -0.005 lam=     0.0     freq=  3028. Q= -0.000 lam=     0.0
 106     freq=  3046. Q= -0.000 lam=     0.0     freq=  3056. Q= -0.000 lam=     0.0
 107     freq=  3163. Q= -0.011 lam=     0.2     freq=  3167. Q= -0.007 lam=     0.1
 108     freq=  3164. Q= -0.004 lam=     0.0     freq=  3168. Q= -0.003 lam=     0.0
 109     freq=  3176. Q=  0.001 lam=     0.0     freq=  3180. Q=  0.001 lam=     0.0
 110     freq=  3181. Q= -0.004 lam=     0.0     freq=  3181. Q= -0.006 lam=     0.1
 111     freq=  3182. Q= -0.002 lam=     0.0     freq=  3184. Q= -0.003 lam=     0.0
 112     freq=  3188. Q= -0.002 lam=     0.0     freq=  3191. Q= -0.001 lam=     0.0
 113     freq=  3195. Q= -0.001 lam=     0.0     freq=  3198. Q= -0.001 lam=     0.0
 114     freq=  3201. Q=  0.003 lam=     0.0     freq=  3200. Q=  0.000 lam=     0.0
 115     freq=  3209. Q= -0.003 lam=     0.0     freq=  3203. Q= -0.013 lam=     0.3
 116     freq=  3219. Q= -0.026 lam=     1.1     freq=  3207. Q= -0.009 lam=     0.1
 117     freq=  3244. Q=  0.000 lam=     0.0     freq=  3246. Q=  0.001 lam=     0.0

 total reorg energy (cm**-1, kcal/mol)=     1389.     1356.      3.97      3.88
 Nber of molecules processed=           2
