 Enter ifcurve (0=recti, 1=orth curvi, 2=apprx curvi, -1 = skip
 And atom ordering flag, 0= never changes, 1= use the first order thenceforth,
  2= deduce it (does read on fail), 3= always read it
 Reading file: 
 ./conjugated_carbonyls_3_C-2S0.log                                             
                                          
  Entering Gaussian System, Link 0=g16                                          
  
 Gaussian format, type: g94, g98, g03= F F F
  #P Geom=AllCheck Guess=TCheck SCRF=Check Test GenChk UB3LYP/6-311G(d,p    
 energy type= B3LYP   
 Original G94 input coords:
  8  1.390846 -3.270405  0.000000
  6  0.737490 -2.191738  0.000000
  6 -0.737490 -2.191738  0.000000
  8 -1.390846 -3.270405  0.000000
  6 -1.442159 -0.883752  0.000000
  6 -2.838739 -0.882546  0.000000
  6 -3.588660  0.318621  0.000000
  6 -2.894356  1.532333  0.000000
  6 -1.502728  1.568389  0.000000
  6 -0.714453  0.359590  0.000000
  6  0.714453  0.359590  0.000000
  6  1.502728  1.568389  0.000000
  6  2.894356  1.532333  0.000000
  6  3.588660  0.318621  0.000000
  6  2.838739 -0.882546  0.000000
  6  1.442159 -0.883752  0.000000
  1 -3.321035 -1.855007  0.000000
  1 -4.677371  0.297371  0.000000
  1 -3.448024  2.474314  0.000000
  1 -1.005927  2.532829  0.000000
  1  1.005927  2.532829  0.000000
  1  3.448024  2.474314  0.000000
  1  4.677371  0.297371  0.000000
  1  3.321035 -1.855007  0.000000
 nber atoms=          24
  SCF Done:  E(UB3LYP) =  -688.849413208     A.U. after    1 cycles             
  
          23          40 "  -688.849413208"
After scan for Atom:   Atom  AN      X      Y      Z        X      Y      Z        X      Y      Z   
After scan for Atom:   Atom  AN      X      Y      Z        X      Y      Z        X      Y      Z   
After scan for Atom:   Atom  AN      X      Y      Z        X      Y      Z        X      Y      Z   
After scan for Atom:   Atom  AN      X      Y      Z        X      Y      Z        X      Y      Z   
After scan for Atom:   Atom  AN      X      Y      Z        X      Y      Z        X      Y      Z   
After scan for Atom:   Atom  AN      X      Y      Z        X      Y      Z        X      Y      Z   
After scan for Atom:   Atom  AN      X      Y      Z        X      Y      Z        X      Y      Z   
After scan for Atom:   Atom  AN      X      Y      Z        X      Y      Z        X      Y      Z   
After scan for Atom:   Atom  AN      X      Y      Z        X      Y      Z        X      Y      Z   
After scan for Atom:   Atom  AN      X      Y      Z        X      Y      Z        X      Y      Z   
After scan for Atom:   Atom  AN      X      Y      Z        X      Y      Z        X      Y      Z   
After scan for Atom:   Atom  AN      X      Y      Z        X      Y      Z        X      Y      Z   
After scan for Atom:   Atom  AN      X      Y      Z        X      Y      Z        X      Y      Z   
After scan for Atom:   Atom  AN      X      Y      Z        X      Y      Z        X      Y      Z   
After scan for Atom:   Atom  AN      X      Y      Z        X      Y      Z        X      Y      Z   
After scan for Atom:   Atom  AN      X      Y      Z        X      Y      Z        X      Y      Z   
After scan for Atom:   Atom  AN      X      Y      Z        X      Y      Z        X      Y      Z   
After scan for Atom:   Atom  AN      X      Y      Z        X      Y      Z        X      Y      Z   
After scan for Atom:   Atom  AN      X      Y      Z        X      Y      Z        X      Y      Z   
After scan for Atom:   Atom  AN      X      Y      Z        X      Y      Z        X      Y      Z   
After scan for Atom:   Atom  AN      X      Y      Z        X      Y      Z        X      Y      Z   
After scan for Atom:   Atom  AN      X      Y      Z        X      Y      Z        X      Y      Z   
 g94    frequencies=
     0.0    0.0    0.0    0.0    0.0    0.0   49.8   83.3   99.9  155.2
   240.2  247.5  316.9  371.3  380.2  385.1  409.1  414.1  450.8  455.6
   508.6  558.2  562.4  596.3  607.1  612.9  631.1  657.3  670.4  676.0
   691.9  704.6  753.0  788.9  839.5  845.0  847.3  851.1  916.8  990.8
  1023.1 1033.0 1051.2 1078.2 1087.3 1126.8 1142.7 1180.4 1215.6 1247.3
  1264.1 1329.0 1337.0 1356.1 1408.8 1440.6 1450.4 1461.3 1477.0 1489.6
  1512.6 1546.5 1558.8 1590.3 3051.3 3053.0 3097.1 3098.9 3137.6 3153.6
  3154.0 3159.3
 g94    symmetries=
                                                 A      A      A      A
       A      A      A      A      A      A      A      A      A      A
       A      A      A      A      A      A      A      A      A      A
       A      A      A      A      A      A      A      A      A      A
       A      A      A      A      A      A      A      A      A      A
       A      A      A      A      A      A      A      A      A      A
       A      A      A      A      A      A      A      A      A      A
       A      A
 atomic masses:
 15.9949 12.0000 12.0000 15.9949 12.0000 12.0000 12.0000 12.0000 12.0000 12.0000
 12.0000 12.0000 12.0000 12.0000 12.0000 12.0000  1.0078  1.0078  1.0078  1.0078
  1.0078  1.0078  1.0078  1.0078
 looking for force constants in 
 ./conjugated_carbonyls_3_C-2S0.fchk                                            
  
 Cartesian Force Constants                  R   N=        2628                  
  
 n3=          72        2628
 g94-fc frequencies=
    -3.2   -3.1   -1.2   -0.0    0.0    0.0   49.8   83.3   99.9  155.2
   240.2  247.5  316.9  371.3  380.2  385.1  409.1  414.1  450.8  455.6
   508.6  558.2  562.4  596.3  607.1  612.9  631.1  657.3  670.4  676.0
   691.9  704.6  753.1  789.0  839.5  845.0  847.3  851.2  916.8  990.8
  1023.1 1033.0 1051.3 1078.2 1087.3 1126.8 1142.7 1180.4 1215.6 1247.3
  1264.2 1329.1 1337.1 1356.1 1408.8 1440.6 1450.4 1461.3 1477.1 1489.6
  1512.6 1546.5 1558.8 1590.3 3051.4 3053.0 3097.2 3098.9 3137.7 3153.7
  3154.1 3159.4
 at 99999: n3=          72
 symm operator            1 :  F  nop=           0
 symm operator            2 :  T  nop=           1
 symm operator            3 :  F  nop=           1
 symm operator            4 :  F  nop=           1
 symm operator            5 :  T  nop=           2
 symm operator            6 :  F  nop=           2
 symm operator            7 :  T  nop=           3
 swap           2           3
   1   1.39085   0.00000  -3.27040
   2   0.73749   0.00000  -2.19174
   3  -0.73749   0.00000  -2.19174
   4  -1.39085   0.00000  -3.27040
   5  -1.44216   0.00000  -0.88375
   6  -2.83874   0.00000  -0.88255
   7  -3.58866   0.00000   0.31862
   8  -2.89436   0.00000   1.53233
   9  -1.50273   0.00000   1.56839
  10  -0.71445   0.00000   0.35959
  11   0.71445   0.00000   0.35959
  12   1.50273   0.00000   1.56839
  13   2.89436   0.00000   1.53233
  14   3.58866   0.00000   0.31862
  15   2.83874   0.00000  -0.88255
  16   1.44216   0.00000  -0.88375
  17  -3.32104   0.00000  -1.85501
  18  -4.67737   0.00000   0.29737
  19  -3.44802   0.00000   2.47431
  20  -1.00593   0.00000   2.53283
  21   1.00593   0.00000   2.53283
  22   3.44802   0.00000   2.47431
  23   4.67737   0.00000   0.29737
  24   3.32104   0.00000  -1.85501
 swap           1           2
   1   0.00000   1.39085  -3.27040
   2   0.00000   0.73749  -2.19174
   3   0.00000  -0.73749  -2.19174
   4   0.00000  -1.39085  -3.27040
   5   0.00000  -1.44216  -0.88375
   6   0.00000  -2.83874  -0.88255
   7   0.00000  -3.58866   0.31862
   8   0.00000  -2.89436   1.53233
   9   0.00000  -1.50273   1.56839
  10   0.00000  -0.71445   0.35959
  11   0.00000   0.71445   0.35959
  12   0.00000   1.50273   1.56839
  13   0.00000   2.89436   1.53233
  14   0.00000   3.58866   0.31862
  15   0.00000   2.83874  -0.88255
  16   0.00000   1.44216  -0.88375
  17   0.00000  -3.32104  -1.85501
  18   0.00000  -4.67737   0.29737
  19   0.00000  -3.44802   2.47431
  20   0.00000  -1.00593   2.53283
  21   0.00000   1.00593   2.53283
  22   0.00000   3.44802   2.47431
  23   0.00000   4.67737   0.29737
  24   0.00000   3.32104  -1.85501
 The point group of the molecule is C2V
 enforcing symm op           1  jsymt=          -1          -1           1
 enforcing symm op           6  jsymt=           1          -1           1
 enforcing symm op           7  jsymt=          -1           1           1
 cartesian coord symmetries:
 A1 :   24 A2 :   12 B1 :   12 B2 :   24
 Symmetry rotation matrix:
   0.00000   0.00000   1.00000
  -1.00000   0.00000   0.00000
   0.00000  -1.00000   0.00000

 Projecting out zero-frequency components
 generating redundant internal coords
         300        3600          24
 search for int coords
   1 str   2   1   1.261
   2 str   3   2   1.475
   3 str   4   3   1.261
   4 str   5   3   1.486
   5 str   6   5   1.397
   6 str   7   6   1.416
   7 str   8   7   1.398
   8 str   9   8   1.392
   9 str  10   5   1.441
  10 str  10   9   1.443
  11 str  11  10   1.429
  12 str  12  11   1.443
  13 str  13  12   1.392
  14 str  14  13   1.398
  15 str  15  14   1.416
  16 str  16   2   1.486
  17 str  16  11   1.441
  18 str  16  15   1.397
  19 str  17   6   1.085
  20 str  18   7   1.089
  21 str  19   8   1.093
  22 str  20   9   1.085
  23 str  21  12   1.085
  24 str  22  13   1.093
  25 str  23  14   1.089
  26 str  24  15   1.085
 nber stretches=          26
  27 ben   1   2   3
  28 prop tor   1   2   3   4
  29 prop tor   1   2   3   5
  30 ben   1   2  16
  31 prop tor   1   2  16  11
  32 prop tor   1   2  16  15
  33 ben   2   3   4
  34 ben   2   3   5
  35 prop tor   2   3   5   6
  36 prop tor   2   3   5  10
  37 ben   2  16  11
  38 ben   2  16  15
  39 ben   3   2  16
  40 prop tor   3   2  16  11
  41 prop tor   3   2  16  15
  42 ben   3   5   6
  43 prop tor   3   5   6   7
  44 prop tor   3   5   6  17
  45 ben   3   5  10
  46 prop tor   3   5  10   9
  47 prop tor   3   5  10  11
  48 ben   4   3   5
  49 prop tor   4   3   5   6
  50 prop tor   4   3   5  10
  51 ben   5   6   7
  52 prop tor   5   6   7   8
  53 prop tor   5   6   7  18
  54 ben   5   6  17
  55 ben   5  10   9
  56 ben   5  10  11
  57 prop tor   5  10  11  12
  58 prop tor   5  10  11  16
  59 ben   6   5  10
  60 prop tor   6   5  10   9
  61 prop tor   6   5  10  11
  62 ben   6   7   8
  63 prop tor   6   7   8   9
  64 prop tor   6   7   8  19
  65 ben   6   7  18
  66 ben   7   6  17
  67 ben   7   8   9
  68 prop tor   7   8   9  10
  69 prop tor   7   8   9  20
  70 ben   7   8  19
  71 ben   8   7  18
  72 ben   8   9  10
  73 prop tor   8   9  10   5
  74 prop tor   8   9  10  11
  75 ben   8   9  20
  76 ben   9   8  19
  77 ben   9  10  11
  78 prop tor   9  10  11  12
  79 prop tor   9  10  11  16
  80 prop tor  10   5   6   7
  81 prop tor  10   5   6  17
  82 ben  10   9  20
  83 ben  10  11  12
  84 prop tor  10  11  12  13
  85 prop tor  10  11  12  21
  86 ben  10  11  16
  87 prop tor  10  11  16   2
  88 prop tor  10  11  16  15
  89 ben  11  12  13
  90 prop tor  11  12  13  14
  91 prop tor  11  12  13  22
  92 ben  11  12  21
  93 ben  11  16  15
  94 ben  12  11  16
  95 prop tor  12  11  16   2
  96 prop tor  12  11  16  15
  97 ben  12  13  14
  98 prop tor  12  13  14  15
  99 prop tor  12  13  14  23
 100 ben  12  13  22
 101 ben  13  12  21
 102 ben  13  14  15
 103 prop tor  13  14  15  16
 104 prop tor  13  14  15  24
 105 ben  13  14  23
 106 ben  14  13  22
 107 ben  14  15  16
 108 prop tor  14  15  16   2
 109 prop tor  14  15  16  11
 110 ben  14  15  24
 111 ben  15  14  23
 112 prop tor  16   2   3   4
 113 prop tor  16   2   3   5
 114 prop tor  16  11  12  13
 115 prop tor  16  11  12  21
 116 ben  16  15  24
 117 prop tor  17   6   7   8
 118 prop tor  17   6   7  18
 119 prop tor  18   7   8   9
 120 prop tor  18   7   8  19
 121 prop tor  19   8   9  10
 122 prop tor  19   8   9  20
 123 prop tor  20   9  10   5
 124 prop tor  20   9  10  11
 125 prop tor  21  12  13  14
 126 prop tor  21  12  13  22
 127 prop tor  22  13  14  15
 128 prop tor  22  13  14  23
 129 prop tor  23  14  15  16
 130 prop tor  23  14  15  24
 131 prop tor  24  15  16   2
 132 prop tor  24  15  16  11
 nber bend=              42
 nber lin bend=           0
 nber prop tor=          64
 nber impr tor=           0
 nber tot redund int=         132
 Eigenvalues of G in red int coords
    Gval -0.00000000 -0.00000000 -0.00000000 -0.00000000 -0.00000000 -0.00000000 -0.00000000 -0.00000000
    Gval -0.00000000 -0.00000000 -0.00000000 -0.00000000 -0.00000000 -0.00000000 -0.00000000 -0.00000000
    Gval -0.00000000 -0.00000000 -0.00000000 -0.00000000 -0.00000000 -0.00000000 -0.00000000 -0.00000000
    Gval -0.00000000 -0.00000000 -0.00000000 -0.00000000 -0.00000000 -0.00000000 -0.00000000 -0.00000000
    Gval -0.00000000  0.00000000  0.00000000  0.00000000  0.00000000  0.00000000  0.00000000  0.00000000
    Gval  0.00000000  0.00000000  0.00000000  0.00000000  0.00000000  0.00000000  0.00000000  0.00000000
    Gval  0.00000000  0.00000000  0.00000000  0.00000000  0.00000000  0.00000000  0.00000000  0.00000000
    Gval  0.00000000  0.00000000  0.00000000  0.00000000  0.00000000  0.00000000  0.00000000  0.00000000
    Gval  0.00000000  0.00000000  0.00000679  0.00001095  0.00001159  0.00002019  0.00002156  0.00002582
    Gval  0.00003561  0.00004712  0.00004760  0.00004933  0.00005470  0.00005951  0.00006070  0.00007770
    Gval  0.00007809  0.00009362  0.00010021  0.00010892  0.00011226  0.00012779  0.00012830  0.00013083
    Gval  0.00015499  0.00020155  0.00022891  0.00026045  0.00026429  0.00029382  0.00031909  0.00037036
    Gval  0.00037695  0.00040372  0.00042826  0.00042903  0.00045064  0.00059318  0.00059323  0.00059713
    Gval  0.00059734  0.00059947  0.00061689  0.00062122  0.00065307  0.00065351  0.00069817  0.00088076
    Gval  0.00095368  0.00104291  0.00104411  0.00111210  0.00111235  0.00114910  0.00114930  0.00116111
    Gval  0.00116114  0.00120150  0.00162903  0.00180734  0.00184456  0.00214420  0.00260651  0.00278457
    Gval  0.00344445  0.00350167  0.00398972  0.00399332
  6.792023272182236E-006  6.792023272182236E-006
  1.095340624737539E-005  6.792023272182236E-006
  1.159481325249906E-005  6.792023272182236E-006
  2.018867648494504E-005  6.792023272182236E-006
  2.155761530014714E-005  6.792023272182236E-006
  2.582394931005987E-005  6.792023272182236E-006
  3.560611648761237E-005  6.792023272182236E-006
  4.712103863095269E-005  6.792023272182236E-006
  4.760481071570090E-005  6.792023272182236E-006
  4.933499133055263E-005  6.792023272182236E-006
  5.469895477973783E-005  6.792023272182236E-006
  5.951312694238083E-005  6.792023272182236E-006
  6.070040721973849E-005  6.792023272182236E-006
  7.769697976973694E-005  6.792023272182236E-006
  7.808794471423112E-005  6.792023272182236E-006
  9.362228567754686E-005  6.792023272182236E-006
  1.002095744283499E-004  6.792023272182236E-006
  1.089223890271681E-004  6.792023272182236E-006
  1.122620695155688E-004  6.792023272182236E-006
  1.277919055178375E-004  6.792023272182236E-006
  1.283028508832835E-004  6.792023272182236E-006
  1.308326768678703E-004  6.792023272182236E-006
  1.549895942664950E-004  6.792023272182236E-006
  2.015462132017598E-004  6.792023272182236E-006
  2.289062220123836E-004  6.792023272182236E-006
  2.604479321620775E-004  6.792023272182236E-006
  2.642907853066749E-004  6.792023272182236E-006
  2.938231552297243E-004  6.792023272182236E-006
  3.190901674294222E-004  6.792023272182236E-006
  3.703560895396105E-004  6.792023272182236E-006
  3.769540180654857E-004  6.792023272182236E-006
  4.037225661123388E-004  6.792023272182236E-006
  4.282599582197591E-004  6.792023272182236E-006
  4.290268378571810E-004  6.792023272182236E-006
  4.506403435020946E-004  6.792023272182236E-006
  5.931814537111717E-004  6.792023272182236E-006
  5.932261209948759E-004  6.792023272182236E-006
  5.971269783682542E-004  6.792023272182236E-006
  5.973363511870120E-004  6.792023272182236E-006
  5.994707637846646E-004  6.792023272182236E-006
  6.168875161228642E-004  6.792023272182236E-006
  6.212226562912025E-004  6.792023272182236E-006
  6.530749467671406E-004  6.792023272182236E-006
  6.535139171276541E-004  6.792023272182236E-006
  6.981653254001837E-004  6.792023272182236E-006
  8.807604523279940E-004  6.792023272182236E-006
  9.536810335468611E-004  6.792023272182236E-006
  1.042914561907079E-003  6.792023272182236E-006
  1.044109109658180E-003  6.792023272182236E-006
  1.112102317661753E-003  6.792023272182236E-006
  1.112346228241165E-003  6.792023272182236E-006
  1.149095415049334E-003  6.792023272182236E-006
  1.149304404106494E-003  6.792023272182236E-006
  1.161106634067274E-003  6.792023272182236E-006
  1.161135724558001E-003  6.792023272182236E-006
  1.201500413089461E-003  6.792023272182236E-006
  1.629031616804808E-003  6.792023272182236E-006
  1.807335897767947E-003  6.792023272182236E-006
  1.844564867289166E-003  6.792023272182236E-006
  2.144195334781966E-003  6.792023272182236E-006
  2.606509830357253E-003  6.792023272182236E-006
  2.784567467243637E-003  6.792023272182236E-006
  3.444451481037135E-003  6.792023272182236E-006
  3.501673570404814E-003  6.792023272182236E-006
  3.989724395875795E-003  6.792023272182236E-006
  3.993323888581366E-003  6.792023272182236E-006
 cut=1d-8, nber non-redundant internal coords=          66
 Check on Eigenvals of non-red overlap matrix:
  0.00000679  0.00001095  0.00001159  0.00002019  0.00002156  0.00002582  0.00003561  0.00004712
  0.00004760  0.00004933  0.00005470  0.00005951  0.00006070  0.00007770  0.00007809  0.00009362
  0.00010021  0.00010892  0.00011226  0.00012779  0.00012830  0.00013083  0.00015499  0.00020155
  0.00022891  0.00026045  0.00026429  0.00029382  0.00031909  0.00037036  0.00037695  0.00040372
  0.00042826  0.00042903  0.00045064  0.00059318  0.00059323  0.00059713  0.00059734  0.00059947
  0.00061689  0.00062122  0.00065307  0.00065351  0.00069817  0.00088076  0.00095368  0.00104291
  0.00104411  0.00111210  0.00111235  0.00114910  0.00114930  0.00116111  0.00116114  0.00120150
  0.00162903  0.00180734  0.00184456  0.00214420  0.00260651  0.00278457  0.00344445  0.00350167
  0.00398972  0.00399332
 Checking for correct frequencies
 recalc frequencies=
    -0.0    0.0    0.0    0.0    0.0    0.0   49.8   83.3   99.9  155.2
   240.2  247.5  316.9  371.3  380.2  385.1  409.1  414.1  450.8  455.6
   508.6  558.2  562.4  596.3  607.1  612.9  631.1  657.3  670.4  676.0
   691.9  704.6  753.1  789.0  839.5  845.0  847.3  851.2  916.8  990.8
  1023.1 1033.0 1051.3 1078.2 1087.3 1126.8 1142.7 1180.4 1215.6 1247.3
  1264.2 1329.1 1337.1 1356.1 1408.8 1440.6 1450.4 1461.3 1477.1 1489.6
  1512.6 1546.5 1558.8 1590.3 3051.4 3053.0 3097.2 3098.9 3137.7 3153.7
  3154.1 3159.4
 recalc symmetries=
     B2     B1     B1     A2     B2     A1     A2     B1     A2     B1 
     A1     A2     B2     A1     B1     B2     B1     A1     A2     A1 
     A2     A2     B1     B2     B1     B2     A2     B1     B2     A1 
     A2     B1     A2     A1     A2     B1     B1     A2     B2     B2 
     A1     B2     A1     A1     B2     B2     A1     B2     A1     B2 
     A1     A1     B2     A1     B2     B2     A1     B2     A1     B2 
     A1     A1     B2     A1     B2     A1     B2     A1     B2     B2 
     A1     A1 
 recalc freqs check OK
 Zero-point lengths:
 10.0000 10.0000 10.0000 10.0000 10.0000 10.0000 35.1270 27.1596 24.8082 19.8995
 15.9949 15.7588 13.9264 12.8659 12.7140 12.6333 12.2570 12.1829 11.6763 11.6148
 10.9930 10.4927 10.4540 10.1523 10.0618 10.0141  9.8684  9.6697  9.5750  9.5348
  9.4248  9.3397  9.0340  8.8261  8.5564  8.5283  8.5169  8.4975  8.1877  7.8759
  7.7507  7.7135  7.6461  7.5500  7.5184  7.3853  7.3337  7.2156  7.1105  7.0196
  6.9726  6.8002  6.7798  6.7321  6.6050  6.5316  6.5095  6.4853  6.4506  6.4233
  6.3743  6.3040  6.2791  6.2166  4.4879  4.4867  4.4546  4.4534  4.4258  4.4145
  4.4143  4.4106
 highest evec of mol 1
  0.0000  0.0008 -0.0009
  0.0000  0.0010  0.0020
  0.0000 -0.0010  0.0020
  0.0000 -0.0008 -0.0009
  0.0000  0.0017  0.0018
  0.0000  0.0307  0.0634
  0.0000  0.0283  0.0021
  0.0000  0.0186 -0.0289
  0.0000 -0.0839 -0.1599
  0.0000 -0.0049 -0.0004
  0.0000  0.0049 -0.0004
  0.0000  0.0839 -0.1599
  0.0000 -0.0186 -0.0289
  0.0000 -0.0283  0.0021
  0.0000 -0.0307  0.0634
  0.0000 -0.0017  0.0018
  0.0000 -0.1089 -0.2129
  0.0000 -0.0834 -0.0022
  0.0000 -0.0512  0.0841
  0.0000  0.2932  0.5483
  0.0000 -0.2932  0.5483
  0.0000  0.0512  0.0841
  0.0000  0.0834 -0.0022
  0.0000  0.1089 -0.2129
 generating redundant internal coords
         300        3600          24
 Adding extra bonds for z output only
           8           6           6           8           6           6
           6           6           6           6           6           6
           6           6           6           6           1           1
           1           1           1           1           1           1
 search for int coords
   1 str   2   1   1.261
   2 str   3   2   1.475
   3 str   4   3   1.261
   4 str   5   3   1.486
   5 str   6   5   1.397
   6 str   7   6   1.416
   7 str   8   7   1.398
   8 str   9   8   1.392
   9 str  10   5   1.441
  10 str  10   9   1.443
  11 str  11  10   1.429
  12 str  12  11   1.443
  13 str  13  12   1.392
  14 str  14  13   1.398
  15 str  15  14   1.416
  16 str  16   2   1.486
  17 str  16  11   1.441
  18 str  16  15   1.397
  19 str  17   6   1.085
  20 str  18   7   1.089
  21 str  19   8   1.093
  22 str  20   9   1.085
  23 str  21  12   1.085
  24 str  22  13   1.093
  25 str  23  14   1.089
  26 str  24  15   1.085
 nber stretches=          26
  27 ben   1   2   3
  28 prop tor   1   2   3   4
  29 prop tor   1   2   3   5
  30 ben   1   2  16
  31 prop tor   1   2  16  11
  32 prop tor   1   2  16  15
  33 ben   2   3   4
  34 ben   2   3   5
  35 prop tor   2   3   5   6
  36 prop tor   2   3   5  10
  37 ben   2  16  11
  38 ben   2  16  15
  39 ben   3   2  16
  40 prop tor   3   2  16  11
  41 prop tor   3   2  16  15
  42 ben   3   5   6
  43 prop tor   3   5   6   7
  44 prop tor   3   5   6  17
  45 ben   3   5  10
  46 prop tor   3   5  10   9
  47 prop tor   3   5  10  11
  48 ben   4   3   5
  49 prop tor   4   3   5   6
  50 prop tor   4   3   5  10
  51 ben   5   6   7
  52 prop tor   5   6   7   8
  53 prop tor   5   6   7  18
  54 ben   5   6  17
  55 ben   5  10   9
  56 ben   5  10  11
  57 prop tor   5  10  11  12
  58 prop tor   5  10  11  16
  59 ben   6   5  10
  60 prop tor   6   5  10   9
  61 prop tor   6   5  10  11
  62 ben   6   7   8
  63 prop tor   6   7   8   9
  64 prop tor   6   7   8  19
  65 ben   6   7  18
  66 ben   7   6  17
  67 ben   7   8   9
  68 prop tor   7   8   9  10
  69 prop tor   7   8   9  20
  70 ben   7   8  19
  71 ben   8   7  18
  72 ben   8   9  10
  73 prop tor   8   9  10   5
  74 prop tor   8   9  10  11
  75 ben   8   9  20
  76 ben   9   8  19
  77 ben   9  10  11
  78 prop tor   9  10  11  12
  79 prop tor   9  10  11  16
  80 prop tor  10   5   6   7
  81 prop tor  10   5   6  17
  82 ben  10   9  20
  83 ben  10  11  12
  84 prop tor  10  11  12  13
  85 prop tor  10  11  12  21
  86 ben  10  11  16
  87 prop tor  10  11  16   2
  88 prop tor  10  11  16  15
  89 ben  11  12  13
  90 prop tor  11  12  13  14
  91 prop tor  11  12  13  22
  92 ben  11  12  21
  93 ben  11  16  15
  94 ben  12  11  16
  95 prop tor  12  11  16   2
  96 prop tor  12  11  16  15
  97 ben  12  13  14
  98 prop tor  12  13  14  15
  99 prop tor  12  13  14  23
 100 ben  12  13  22
 101 ben  13  12  21
 102 ben  13  14  15
 103 prop tor  13  14  15  16
 104 prop tor  13  14  15  24
 105 ben  13  14  23
 106 ben  14  13  22
 107 ben  14  15  16
 108 prop tor  14  15  16   2
 109 prop tor  14  15  16  11
 110 ben  14  15  24
 111 ben  15  14  23
 112 prop tor  16   2   3   4
 113 prop tor  16   2   3   5
 114 prop tor  16  11  12  13
 115 prop tor  16  11  12  21
 116 ben  16  15  24
 117 prop tor  17   6   7   8
 118 prop tor  17   6   7  18
 119 prop tor  18   7   8   9
 120 prop tor  18   7   8  19
 121 prop tor  19   8   9  10
 122 prop tor  19   8   9  20
 123 prop tor  20   9  10   5
 124 prop tor  20   9  10  11
 125 prop tor  21  12  13  14
 126 prop tor  21  12  13  22
 127 prop tor  22  13  14  15
 128 prop tor  22  13  14  23
 129 prop tor  23  14  15  16
 130 prop tor  23  14  15  24
 131 prop tor  24  15  16   2
 132 prop tor  24  15  16  11
 nber bend=              42
 nber lin bend=           0
 nber prop tor=          64
 nber impr tor=           0
 nber tot redund int=         132
 Reading file: 
 ./conjugated_carbonyls_3_C-3S0.log                                             
                                          
  Entering Gaussian System, Link 0=g16                                          
  
 Gaussian format, type: g94, g98, g03= F F F
  #P Geom=AllCheck Guess=TCheck SCRF=Check Test GenChk UB3LYP/6-311G(d,p    
 energy type= B3LYP   
 Original G94 input coords:
  8  1.387112 -3.290465 -0.000083
  6  0.737563 -2.199550  0.000069
  6 -0.737563 -2.199550 -0.000063
  8 -1.387112 -3.290465  0.000079
  6 -1.449313 -0.891787 -0.000008
  6 -2.849293 -0.880955  0.000110
  6 -3.599713  0.321668  0.000024
  6 -2.899268  1.528265 -0.000061
  6 -1.511905  1.563411  0.000011
  6 -0.716308  0.353149  0.000010
  6  0.716308  0.353149 -0.000006
  6  1.511905  1.563411 -0.000009
  6  2.899268  1.528265  0.000061
  6  3.599713  0.321668 -0.000027
  6  2.849293 -0.880955 -0.000110
  6  1.449313 -0.891787  0.000011
  1 -3.340093 -1.853629  0.000203
  1 -4.706459  0.320306 -0.000011
  1 -3.467382  2.487250 -0.000271
  1 -1.019852  2.542336 -0.000005
  1  1.019852  2.542336  0.000006
  1  3.467382  2.487250  0.000270
  1  4.706459  0.320306  0.000005
  1  3.340093 -1.853629 -0.000204
 nber atoms=          24
  SCF Done:  E(UB3LYP) =  -688.536281232     A.U. after    1 cycles             
  
          23          40 "  -688.536281232"
After scan for Atom:   Atom  AN      X      Y      Z        X      Y      Z        X      Y      Z   
After scan for Atom:   Atom  AN      X      Y      Z        X      Y      Z        X      Y      Z   
After scan for Atom:   Atom  AN      X      Y      Z        X      Y      Z        X      Y      Z   
After scan for Atom:   Atom  AN      X      Y      Z        X      Y      Z        X      Y      Z   
After scan for Atom:   Atom  AN      X      Y      Z        X      Y      Z        X      Y      Z   
After scan for Atom:   Atom  AN      X      Y      Z        X      Y      Z        X      Y      Z   
After scan for Atom:   Atom  AN      X      Y      Z        X      Y      Z        X      Y      Z   
After scan for Atom:   Atom  AN      X      Y      Z        X      Y      Z        X      Y      Z   
After scan for Atom:   Atom  AN      X      Y      Z        X      Y      Z        X      Y      Z   
After scan for Atom:   Atom  AN      X      Y      Z        X      Y      Z        X      Y      Z   
After scan for Atom:   Atom  AN      X      Y      Z        X      Y      Z        X      Y      Z   
After scan for Atom:   Atom  AN      X      Y      Z        X      Y      Z        X      Y      Z   
After scan for Atom:   Atom  AN      X      Y      Z        X      Y      Z        X      Y      Z   
After scan for Atom:   Atom  AN      X      Y      Z        X      Y      Z        X      Y      Z   
After scan for Atom:   Atom  AN      X      Y      Z        X      Y      Z        X      Y      Z   
After scan for Atom:   Atom  AN      X      Y      Z        X      Y      Z        X      Y      Z   
After scan for Atom:   Atom  AN      X      Y      Z        X      Y      Z        X      Y      Z   
After scan for Atom:   Atom  AN      X      Y      Z        X      Y      Z        X      Y      Z   
After scan for Atom:   Atom  AN      X      Y      Z        X      Y      Z        X      Y      Z   
After scan for Atom:   Atom  AN      X      Y      Z        X      Y      Z        X      Y      Z   
After scan for Atom:   Atom  AN      X      Y      Z        X      Y      Z        X      Y      Z   
After scan for Atom:   Atom  AN      X      Y      Z        X      Y      Z        X      Y      Z   
 g94    frequencies=
     0.0    0.0    0.0    0.0    0.0    0.0   61.9   85.3  100.5  159.0
   236.3  250.5  313.9  372.6  381.2  389.2  412.7  413.6  451.7  475.7
   523.7  570.5  584.2  586.1  608.8  610.8  635.2  650.3  671.6  694.7
   708.9  719.3  750.5  754.7  839.9  842.0  850.2  870.7  919.7  950.4
  1001.2 1011.2 1024.3 1059.9 1071.6 1084.0 1090.0 1157.8 1189.1 1236.2
  1254.1 1297.1 1316.0 1350.2 1375.2 1421.7 1444.5 1455.9 1461.7 1479.1
  1499.4 1528.1 1535.8 1576.6 2582.7 2740.6 2778.2 2830.4 2963.6 2983.4
  3090.0 3096.1
 g94    symmetries=
                                                 A      A      A      A
       A      A      A      A      A      A      A      A      A      A
       A      A      A      A      A      A      A      A      A      A
       A      A      A      A      A      A      A      A      A      A
       A      A      A      A      A      A      A      A      A      A
       A      A      A      A      A      A      A      A      A      A
       A      A      A      A      A      A      A      A      A      A
       A      A
 atomic masses:
 15.9949 12.0000 12.0000 15.9949 12.0000 12.0000 12.0000 12.0000 12.0000 12.0000
 12.0000 12.0000 12.0000 12.0000 12.0000 12.0000  1.0078  1.0078  1.0078  1.0078
  1.0078  1.0078  1.0078  1.0078
 looking for force constants in 
 ./conjugated_carbonyls_3_C-3S0.fchk                                            
  
 Cartesian Force Constants                  R   N=        2628                  
  
 n3=          72        2628
 g94-fc frequencies=
    -0.0   -0.0    0.0    1.8    2.3    4.2   61.9   85.3  100.5  159.0
   236.3  250.5  313.9  372.6  381.3  389.3  412.7  413.6  451.7  475.7
   523.8  570.5  584.2  586.1  608.8  610.8  635.2  650.3  671.6  694.7
   708.9  719.3  750.6  754.7  839.9  842.0  850.2  870.8  919.8  950.4
  1001.2 1011.2 1024.4 1059.9 1071.6 1084.0 1090.0 1157.8 1189.2 1236.2
  1254.1 1297.2 1316.0 1350.3 1375.2 1421.8 1444.5 1455.9 1461.7 1479.2
  1499.5 1528.1 1535.9 1576.7 2582.7 2740.7 2778.3 2830.5 2963.6 2983.5
  3090.0 3096.2
 at 99999: n3=          72
 symm operator            1 :  F  nop=           0
 symm operator            2 :  T  nop=           1
 symm operator            3 :  F  nop=           1
 symm operator            4 :  F  nop=           1
 symm operator            5 :  F  nop=           1
 symm operator            6 :  F  nop=           1
 symm operator            7 :  F  nop=           1
 swap           2           3
   1   1.38711  -0.00008  -3.29047
   2   0.73756   0.00007  -2.19955
   3  -0.73756  -0.00006  -2.19955
   4  -1.38711   0.00008  -3.29047
   5  -1.44931  -0.00001  -0.89179
   6  -2.84929   0.00011  -0.88096
   7  -3.59971   0.00002   0.32167
   8  -2.89927  -0.00006   1.52826
   9  -1.51191   0.00001   1.56341
  10  -0.71631   0.00001   0.35315
  11   0.71631  -0.00001   0.35315
  12   1.51191  -0.00001   1.56341
  13   2.89927   0.00006   1.52826
  14   3.59971  -0.00003   0.32167
  15   2.84929  -0.00011  -0.88096
  16   1.44931   0.00001  -0.89179
  17  -3.34009   0.00020  -1.85363
  18  -4.70646  -0.00001   0.32031
  19  -3.46738  -0.00027   2.48725
  20  -1.01985  -0.00001   2.54234
  21   1.01985   0.00001   2.54234
  22   3.46738   0.00027   2.48725
  23   4.70646   0.00001   0.32031
  24   3.34009  -0.00020  -1.85363
 The point group of the molecule is  C2
 enforcing symm op           1  jsymt=          -1          -1           1
 cartesian coord symmetries:
 A  :   36 B  :   36
 Symmetry rotation matrix:
   1.00000   0.00000   0.00000
   0.00000   0.00000   1.00000
   0.00000  -1.00000   0.00000

 Projecting out zero-frequency components
 generating redundant internal coords
         300        3600          24
 search for int coords
   1 str   2   1   1.270
   2 str   3   2   1.475
   3 str   4   3   1.270
   4 str   5   3   1.489
   5 str   6   5   1.400
   6 str   7   6   1.418
   7 str   8   7   1.395
   8 str   9   8   1.388
   9 str  10   5   1.445
  10 str  10   9   1.448
  11 str  11  10   1.433
  12 str  12  11   1.448
  13 str  13  12   1.388
  14 str  14  13   1.395
  15 str  15  14   1.418
  16 str  16   2   1.489
  17 str  16  11   1.445
  18 str  16  15   1.400
  19 str  17   6   1.089
  20 str  18   7   1.107
  21 str  19   8   1.115
  22 str  20   9   1.096
  23 str  21  12   1.096
  24 str  22  13   1.115
  25 str  23  14   1.107
  26 str  24  15   1.089
 nber stretches=          26
  27 ben   1   2   3
  28 prop tor   1   2   3   4
  29 prop tor   1   2   3   5
  30 ben   1   2  16
  31 prop tor   1   2  16  11
  32 prop tor   1   2  16  15
  33 ben   2   3   4
  34 ben   2   3   5
  35 prop tor   2   3   5   6
  36 prop tor   2   3   5  10
  37 ben   2  16  11
  38 ben   2  16  15
  39 ben   3   2  16
  40 prop tor   3   2  16  11
  41 prop tor   3   2  16  15
  42 ben   3   5   6
  43 prop tor   3   5   6   7
  44 prop tor   3   5   6  17
  45 ben   3   5  10
  46 prop tor   3   5  10   9
  47 prop tor   3   5  10  11
  48 ben   4   3   5
  49 prop tor   4   3   5   6
  50 prop tor   4   3   5  10
  51 ben   5   6   7
  52 prop tor   5   6   7   8
  53 prop tor   5   6   7  18
  54 ben   5   6  17
  55 ben   5  10   9
  56 ben   5  10  11
  57 prop tor   5  10  11  12
  58 prop tor   5  10  11  16
  59 ben   6   5  10
  60 prop tor   6   5  10   9
  61 prop tor   6   5  10  11
  62 ben   6   7   8
  63 prop tor   6   7   8   9
  64 prop tor   6   7   8  19
  65 ben   6   7  18
  66 ben   7   6  17
  67 ben   7   8   9
  68 prop tor   7   8   9  10
  69 prop tor   7   8   9  20
  70 ben   7   8  19
  71 ben   8   7  18
  72 ben   8   9  10
  73 prop tor   8   9  10   5
  74 prop tor   8   9  10  11
  75 ben   8   9  20
  76 ben   9   8  19
  77 ben   9  10  11
  78 prop tor   9  10  11  12
  79 prop tor   9  10  11  16
  80 prop tor  10   5   6   7
  81 prop tor  10   5   6  17
  82 ben  10   9  20
  83 ben  10  11  12
  84 prop tor  10  11  12  13
  85 prop tor  10  11  12  21
  86 ben  10  11  16
  87 prop tor  10  11  16   2
  88 prop tor  10  11  16  15
  89 ben  11  12  13
  90 prop tor  11  12  13  14
  91 prop tor  11  12  13  22
  92 ben  11  12  21
  93 ben  11  16  15
  94 ben  12  11  16
  95 prop tor  12  11  16   2
  96 prop tor  12  11  16  15
  97 ben  12  13  14
  98 prop tor  12  13  14  15
  99 prop tor  12  13  14  23
 100 ben  12  13  22
 101 ben  13  12  21
 102 ben  13  14  15
 103 prop tor  13  14  15  16
 104 prop tor  13  14  15  24
 105 ben  13  14  23
 106 ben  14  13  22
 107 ben  14  15  16
 108 prop tor  14  15  16   2
 109 prop tor  14  15  16  11
 110 ben  14  15  24
 111 ben  15  14  23
 112 prop tor  16   2   3   4
 113 prop tor  16   2   3   5
 114 prop tor  16  11  12  13
 115 prop tor  16  11  12  21
 116 ben  16  15  24
 117 prop tor  17   6   7   8
 118 prop tor  17   6   7  18
 119 prop tor  18   7   8   9
 120 prop tor  18   7   8  19
 121 prop tor  19   8   9  10
 122 prop tor  19   8   9  20
 123 prop tor  20   9  10   5
 124 prop tor  20   9  10  11
 125 prop tor  21  12  13  14
 126 prop tor  21  12  13  22
 127 prop tor  22  13  14  15
 128 prop tor  22  13  14  23
 129 prop tor  23  14  15  16
 130 prop tor  23  14  15  24
 131 prop tor  24  15  16   2
 132 prop tor  24  15  16  11
 nber bend=              42
 nber lin bend=           0
 nber prop tor=          64
 nber impr tor=           0
 nber tot redund int=         132
 Eigenvalues of G in red int coords
    Gval -0.00000000 -0.00000000 -0.00000000 -0.00000000 -0.00000000 -0.00000000 -0.00000000 -0.00000000
    Gval -0.00000000 -0.00000000 -0.00000000 -0.00000000 -0.00000000 -0.00000000 -0.00000000 -0.00000000
    Gval -0.00000000 -0.00000000 -0.00000000 -0.00000000 -0.00000000 -0.00000000 -0.00000000 -0.00000000
    Gval -0.00000000 -0.00000000 -0.00000000 -0.00000000 -0.00000000 -0.00000000 -0.00000000 -0.00000000
    Gval -0.00000000 -0.00000000 -0.00000000 -0.00000000  0.00000000  0.00000000  0.00000000  0.00000000
    Gval  0.00000000  0.00000000  0.00000000  0.00000000  0.00000000  0.00000000  0.00000000  0.00000000
    Gval  0.00000000  0.00000000  0.00000000  0.00000000  0.00000000  0.00000000  0.00000000  0.00000000
    Gval  0.00000000  0.00000000  0.00000000  0.00000000  0.00000000  0.00000000  0.00000000  0.00000000
    Gval  0.00000000  0.00000000  0.00000675  0.00001095  0.00001155  0.00002019  0.00002150  0.00002577
    Gval  0.00003561  0.00004715  0.00004757  0.00004946  0.00005465  0.00005947  0.00006066  0.00007750
    Gval  0.00007799  0.00009258  0.00010006  0.00010868  0.00011221  0.00012760  0.00012822  0.00012993
    Gval  0.00015454  0.00020086  0.00022815  0.00025949  0.00026327  0.00029383  0.00031772  0.00036919
    Gval  0.00037636  0.00040335  0.00042671  0.00042764  0.00044897  0.00059308  0.00059312  0.00059549
    Gval  0.00059678  0.00059699  0.00061617  0.00062037  0.00065323  0.00065373  0.00069737  0.00088468
    Gval  0.00095193  0.00101440  0.00101561  0.00109184  0.00109201  0.00112288  0.00112289  0.00113761
    Gval  0.00113776  0.00119501  0.00160342  0.00177982  0.00180936  0.00211660  0.00255460  0.00274213
    Gval  0.00337711  0.00343956  0.00387723  0.00388076
  6.754672485025515E-006  6.754672485025515E-006
  1.094513444760663E-005  6.754672485025515E-006
  1.154657415724955E-005  6.754672485025515E-006
  2.018844912033339E-005  6.754672485025515E-006
  2.149584384298090E-005  6.754672485025515E-006
  2.576557569888551E-005  6.754672485025515E-006
  3.560822830596119E-005  6.754672485025515E-006
  4.715425099771545E-005  6.754672485025515E-006
  4.756798021724642E-005  6.754672485025515E-006
  4.946333364845247E-005  6.754672485025515E-006
  5.464952631377098E-005  6.754672485025515E-006
  5.947248242070975E-005  6.754672485025515E-006
  6.066418064340169E-005  6.754672485025515E-006
  7.750397161038612E-005  6.754672485025515E-006
  7.798871506866705E-005  6.754672485025515E-006
  9.258357971956821E-005  6.754672485025515E-006
  1.000611069786322E-004  6.754672485025515E-006
  1.086822374926649E-004  6.754672485025515E-006
  1.122067170001914E-004  6.754672485025515E-006
  1.275954889954644E-004  6.754672485025515E-006
  1.282201829044320E-004  6.754672485025515E-006
  1.299266828206421E-004  6.754672485025515E-006
  1.545416362197264E-004  6.754672485025515E-006
  2.008593224609407E-004  6.754672485025515E-006
  2.281519785637402E-004  6.754672485025515E-006
  2.594876094592267E-004  6.754672485025515E-006
  2.632681579620008E-004  6.754672485025515E-006
  2.938279690536507E-004  6.754672485025515E-006
  3.177220687272741E-004  6.754672485025515E-006
  3.691858592474867E-004  6.754672485025515E-006
  3.763628843900655E-004  6.754672485025515E-006
  4.033516991270144E-004  6.754672485025515E-006
  4.267070173048622E-004  6.754672485025515E-006
  4.276404819581121E-004  6.754672485025515E-006
  4.489667502708162E-004  6.754672485025515E-006
  5.930797147945902E-004  6.754672485025515E-006
  5.931192730212541E-004  6.754672485025515E-006
  5.954873764606001E-004  6.754672485025515E-006
  5.967760415996106E-004  6.754672485025515E-006
  5.969939857860949E-004  6.754672485025515E-006
  6.161685929924593E-004  6.754672485025515E-006
  6.203714349810752E-004  6.754672485025515E-006
  6.532343455034102E-004  6.754672485025515E-006
  6.537303674493517E-004  6.754672485025515E-006
  6.973715309721541E-004  6.754672485025515E-006
  8.846778150688716E-004  6.754672485025515E-006
  9.519347022866415E-004  6.754672485025515E-006
  1.014401349896772E-003  6.754672485025515E-006
  1.015610050395489E-003  6.754672485025515E-006
  1.091837792200311E-003  6.754672485025515E-006
  1.092010757296682E-003  6.754672485025515E-006
  1.122880951170012E-003  6.754672485025515E-006
  1.122894606214392E-003  6.754672485025515E-006
  1.137606864120321E-003  6.754672485025515E-006
  1.137763386843455E-003  6.754672485025515E-006
  1.195013962715413E-003  6.754672485025515E-006
  1.603417347223649E-003  6.754672485025515E-006
  1.779821119925843E-003  6.754672485025515E-006
  1.809362171037464E-003  6.754672485025515E-006
  2.116598224133990E-003  6.754672485025515E-006
  2.554604006382905E-003  6.754672485025515E-006
  2.742130316601644E-003  6.754672485025515E-006
  3.377107348936097E-003  6.754672485025515E-006
  3.439561189071316E-003  6.754672485025515E-006
  3.877229738883682E-003  6.754672485025515E-006
  3.880761455847519E-003  6.754672485025515E-006
 cut=1d-8, nber non-redundant internal coords=          66
 Check on Eigenvals of non-red overlap matrix:
  0.00000675  0.00001095  0.00001155  0.00002019  0.00002150  0.00002577  0.00003561  0.00004715
  0.00004757  0.00004946  0.00005465  0.00005947  0.00006066  0.00007750  0.00007799  0.00009258
  0.00010006  0.00010868  0.00011221  0.00012760  0.00012822  0.00012993  0.00015454  0.00020086
  0.00022815  0.00025949  0.00026327  0.00029383  0.00031772  0.00036919  0.00037636  0.00040335
  0.00042671  0.00042764  0.00044897  0.00059308  0.00059312  0.00059549  0.00059678  0.00059699
  0.00061617  0.00062037  0.00065323  0.00065373  0.00069737  0.00088468  0.00095193  0.00101440
  0.00101561  0.00109184  0.00109201  0.00112288  0.00112289  0.00113761  0.00113776  0.00119501
  0.00160342  0.00177982  0.00180936  0.00211660  0.00255460  0.00274213  0.00337711  0.00343956
  0.00387723  0.00388076
 Checking for correct frequencies
 recalc frequencies=
    -0.0   -0.0   -0.0    0.0    0.0    0.0   61.9   85.3  100.5  159.0
   236.3  250.5  313.9  372.6  381.3  389.3  412.7  413.6  451.7  475.7
   523.8  570.5  584.2  586.1  608.8  610.8  635.2  650.3  671.6  694.7
   708.9  719.3  750.6  754.7  839.9  842.0  850.2  870.8  919.8  950.4
  1001.2 1011.2 1024.4 1059.9 1071.6 1084.0 1090.0 1157.8 1189.2 1236.2
  1254.1 1297.2 1316.0 1350.3 1375.2 1421.8 1444.5 1455.9 1461.7 1479.2
  1499.5 1528.1 1535.9 1576.7 2582.7 2740.7 2778.3 2830.5 2963.6 2983.5
  3090.0 3096.2
 recalc symmetries=
     B      A      B      B      A      B      A      B      A      B  
     A      A      B      A      B      B      A      B      A      A  
     A      B      B      A      B      B      A      B      A      B  
     A      B      A      A      A      B      B      B      B      A  
     B      A      A      B      A      B      A      B      A      B  
     A      B      A      A      B      B      A      B      A      B  
     A      A      B      A      B      A      B      A      B      A  
     B      A  
 recalc freqs check OK
 Zero-point lengths:
 10.0000 10.0000 10.0000 10.0000 10.0000 10.0000 31.5163 26.8425 24.7325 19.6590
 16.1264 15.6627 13.9932 12.8435 12.6966 12.5655 12.2033 12.1896 11.6643 11.3663
 10.8325 10.3790 10.2565 10.2398 10.0471 10.0311  9.8364  9.7216  9.5664  9.4059
  9.3111  9.2433  9.0491  9.0242  8.5543  8.5435  8.5023  8.4013  8.1744  8.0414
  7.8349  7.7960  7.7459  7.6148  7.5733  7.5297  7.5088  7.2858  7.1891  7.0511
  7.0004  6.8834  6.8339  6.7466  6.6852  6.5748  6.5228  6.4972  6.4843  6.4460
  6.4021  6.3419  6.3258  6.2435  4.8782  4.7355  4.7034  4.6598  4.5539  4.5387
  4.4598  4.4554
 highest evec of mol 2
 -0.0029  0.0000 -0.0013
  0.0008 -0.0000  0.0042
 -0.0008  0.0000  0.0042
  0.0029 -0.0000 -0.0013
  0.0010  0.0000  0.0033
 -0.0905  0.0000  0.1752
 -0.0092 -0.0000 -0.0044
  0.0014 -0.0000 -0.0007
  0.0034 -0.0000 -0.0078
  0.0025 -0.0000 -0.0015
 -0.0025  0.0000 -0.0015
 -0.0034  0.0000 -0.0078
 -0.0014  0.0000 -0.0007
  0.0092  0.0000 -0.0044
  0.0905 -0.0000  0.1752
 -0.0010 -0.0000  0.0033
  0.3092 -0.0001 -0.6035
  0.0164  0.0000  0.0028
 -0.0006  0.0000  0.0000
 -0.0128 -0.0000  0.0253
  0.0128  0.0000  0.0253
  0.0006 -0.0000  0.0000
 -0.0164 -0.0000  0.0028
 -0.3092  0.0001 -0.6035
 Enter nber and list of atoms to keep of mol #2
 keep list:          24           1           2           3           4
           5           6           7           8           9          10
          11          12          13          14          15          16
          17          18          19          20          21          22
          23          24
 reordering atoms
           1   1.38711200059312     
           2  0.737562999466420     
           3 -0.737562999499268     
           4  -1.38711200054664     
           5  -1.44931299989521     
           6  -2.84929300074298     
           7  -3.59971300007734     
           8  -2.89926799946026     
           9  -1.51190500004097     
          10 -0.716308000053651     
          11  0.716308000026160     
          12   1.51190500002393     
          13   2.89926799945839     
          14   3.59971300010261     
          15   2.84929300075025     
          16   1.44931299987996     
          17  -3.34009300142659     
          18  -4.70645899978286     
          19  -3.46738199786687     
          20  -1.01985199993642     
          21   1.01985199992319     
          22   3.46738199786888     
          23   4.70645899983069     
          24   3.34009300144507     
           1           1
           2           2
           3           3
           4           4
           5           5
           6           6
           7           7
           8           8
           9           9
          10          10
          11          11
          12          12
          13          13
          14          14
          15          15
          16          16
          17          17
          18          18
          19          19
          20          20
          21          21
          22          22
          23          23
          24          24
 initial cartes coords mol 1
   8   0.00000   2.72579   1.39085
   6   0.00000   1.64712   0.73749
   6   0.00000   1.64712  -0.73749
   8   0.00000   2.72579  -1.39085
   6   0.00000   0.33913  -1.44216
   6   0.00000   0.33793  -2.83874
   6   0.00000  -0.86324  -3.58866
   6   0.00000  -2.07695  -2.89436
   6   0.00000  -2.11301  -1.50273
   6   0.00000  -0.90421  -0.71445
   6   0.00000  -0.90421   0.71445
   6   0.00000  -2.11301   1.50273
   6   0.00000  -2.07695   2.89436
   6   0.00000  -0.86324   3.58866
   6   0.00000   0.33793   2.83874
   6   0.00000   0.33913   1.44216
   1   0.00000   1.31039  -3.32104
   1   0.00000  -0.84199  -4.67737
   1   0.00000  -3.01893  -3.44802
   1   0.00000  -3.07745  -1.00593
   1   0.00000  -3.07745   1.00593
   1   0.00000  -3.01893   3.44802
   1   0.00000  -0.84199   4.67737
   1   0.00000   1.31039   3.32104
 initial cartes coords mol 2
   8   0.00007   2.73943   1.38711
   6  -0.00007   1.64852   0.73756
   6   0.00007   1.64852  -0.73756
   8  -0.00007   2.73943  -1.38711
   6   0.00002   0.34076  -1.44931
   6  -0.00009   0.32992  -2.84929
   6   0.00000  -0.87270  -3.59971
   6   0.00008  -2.07930  -2.89927
   6   0.00000  -2.11444  -1.51191
   6  -0.00000  -0.90418  -0.71631
   6   0.00000  -0.90418   0.71631
   6  -0.00000  -2.11444   1.51191
   6  -0.00008  -2.07930   2.89927
   6   0.00000  -0.87270   3.59971
   6   0.00009   0.32992   2.84929
   6  -0.00002   0.34076   1.44931
   1  -0.00018   1.30260  -3.34009
   1   0.00005  -0.87134  -4.70646
   1   0.00030  -3.03828  -3.46738
   1   0.00001  -3.09337  -1.01985
   1  -0.00001  -3.09337   1.01985
   1  -0.00030  -3.03828   3.46738
   1  -0.00004  -0.87134   4.70646
   1   0.00018   1.30260   3.34009
 loop 1 0
 mod cartes coords mol 2
   8   0.00007   2.73943   1.38711
   6  -0.00007   1.64852   0.73756
   6   0.00007   1.64852  -0.73756
   8  -0.00007   2.73943  -1.38711
   6   0.00002   0.34076  -1.44931
   6  -0.00009   0.32992  -2.84929
   6   0.00000  -0.87270  -3.59971
   6   0.00008  -2.07930  -2.89927
   6   0.00000  -2.11444  -1.51191
   6  -0.00000  -0.90418  -0.71631
   6   0.00000  -0.90418   0.71631
   6  -0.00000  -2.11444   1.51191
   6  -0.00008  -2.07930   2.89927
   6   0.00000  -0.87270   3.59971
   6   0.00009   0.32992   2.84929
   6  -0.00002   0.34076   1.44931
   1  -0.00018   1.30260  -3.34009
   1   0.00005  -0.87134  -4.70646
   1   0.00030  -3.03828  -3.46738
   1   0.00001  -3.09337  -1.01985
   1  -0.00001  -3.09337   1.01985
   1  -0.00030  -3.03828   3.46738
   1  -0.00004  -0.87134   4.70646
   1   0.00018   1.30260   3.34009
 read in order, maxerr=  0.04 for atom  18
 final axis swaps:           1           1           1
 final xyz swap pattern=           1
 reorder list:
   1   2   3   4   5   6   7   8   9  10  11  12  13  14  15  16  17  18  19  20
  21  22  23  24
 axis signs=           1           1           1
  8     0.000073  2.739434  1.387112     0.000000  2.725787  1.390846
  6    -0.000074  1.648519  0.737563     0.000000  1.647120  0.737490
  6     0.000069  1.648519 -0.737563     0.000000  1.647120 -0.737490
  8    -0.000069  2.739434 -1.387112     0.000000  2.725787 -1.390846
  6     0.000019  0.340756 -1.449313     0.000000  0.339134 -1.442159
  6    -0.000088  0.329924 -2.849293     0.000000  0.337928 -2.838739
  6     0.000004 -0.872699 -3.599713     0.000000 -0.863239 -3.588660
  6     0.000084 -2.079296 -2.899268     0.000000 -2.076951 -2.894356
  6     0.000001 -2.114442 -1.511905     0.000000 -2.113007 -1.502728
  6    -0.000004 -0.904180 -0.716308     0.000000 -0.904208 -0.714453
  6     0.000001 -0.904180  0.716308     0.000000 -0.904208  0.714453
  6    -0.000002 -2.114442  1.511905     0.000000 -2.113007  1.502728
  6    -0.000082 -2.079296  2.899268     0.000000 -2.076951  2.894356
  6     0.000000 -0.872699  3.599713     0.000000 -0.863239  3.588660
  6     0.000089  0.329924  2.849293     0.000000  0.337928  2.838739
  6    -0.000022  0.340756  1.449313     0.000000  0.339134  1.442159
  1    -0.000178  1.302598 -3.340093     0.000000  1.310389 -3.321035
  1     0.000047 -0.871337 -4.706459     0.000000 -0.841989 -4.677371
  1     0.000298 -3.038281 -3.467382     0.000000 -3.018932 -3.448024
  1     0.000014 -3.093367 -1.019852     0.000000 -3.077447 -1.005927
  1    -0.000013 -3.093367  1.019852     0.000000 -3.077447  1.005927
  1    -0.000295 -3.038281  3.467382     0.000000 -3.018932  3.448024
  1    -0.000040 -0.871337  4.706459     0.000000 -0.841989  4.677371
  1     0.000179  1.302598  3.340093     0.000000  1.310389  3.321035
 generating redundant internal coords
         300        3600          24
 Adding extra bonds for z output only
           8           6           6           8           6           6
           6           6           6           6           6           6
           6           6           6           6           1           1
           1           1           1           1           1           1
 search for int coords
   1 str   2   1   1.270
   2 str   3   2   1.475
   3 str   4   3   1.270
   4 str   5   3   1.489
   5 str   6   5   1.400
   6 str   7   6   1.418
   7 str   8   7   1.395
   8 str   9   8   1.388
   9 str  10   5   1.445
  10 str  10   9   1.448
  11 str  11  10   1.433
  12 str  12  11   1.448
  13 str  13  12   1.388
  14 str  14  13   1.395
  15 str  15  14   1.418
  16 str  16   2   1.489
  17 str  16  11   1.445
  18 str  16  15   1.400
  19 str  17   6   1.089
  20 str  18   7   1.107
  21 str  19   8   1.115
  22 str  20   9   1.096
  23 str  21  12   1.096
  24 str  22  13   1.115
  25 str  23  14   1.107
  26 str  24  15   1.089
 nber stretches=          26
  27 ben   1   2   3
  28 prop tor   1   2   3   4
  29 prop tor   1   2   3   5
  30 ben   1   2  16
  31 prop tor   1   2  16  11
  32 prop tor   1   2  16  15
  33 ben   2   3   4
  34 ben   2   3   5
  35 prop tor   2   3   5   6
  36 prop tor   2   3   5  10
  37 ben   2  16  11
  38 ben   2  16  15
  39 ben   3   2  16
  40 prop tor   3   2  16  11
  41 prop tor   3   2  16  15
  42 ben   3   5   6
  43 prop tor   3   5   6   7
  44 prop tor   3   5   6  17
  45 ben   3   5  10
  46 prop tor   3   5  10   9
  47 prop tor   3   5  10  11
  48 ben   4   3   5
  49 prop tor   4   3   5   6
  50 prop tor   4   3   5  10
  51 ben   5   6   7
  52 prop tor   5   6   7   8
  53 prop tor   5   6   7  18
  54 ben   5   6  17
  55 ben   5  10   9
  56 ben   5  10  11
  57 prop tor   5  10  11  12
  58 prop tor   5  10  11  16
  59 ben   6   5  10
  60 prop tor   6   5  10   9
  61 prop tor   6   5  10  11
  62 ben   6   7   8
  63 prop tor   6   7   8   9
  64 prop tor   6   7   8  19
  65 ben   6   7  18
  66 ben   7   6  17
  67 ben   7   8   9
  68 prop tor   7   8   9  10
  69 prop tor   7   8   9  20
  70 ben   7   8  19
  71 ben   8   7  18
  72 ben   8   9  10
  73 prop tor   8   9  10   5
  74 prop tor   8   9  10  11
  75 ben   8   9  20
  76 ben   9   8  19
  77 ben   9  10  11
  78 prop tor   9  10  11  12
  79 prop tor   9  10  11  16
  80 prop tor  10   5   6   7
  81 prop tor  10   5   6  17
  82 ben  10   9  20
  83 ben  10  11  12
  84 prop tor  10  11  12  13
  85 prop tor  10  11  12  21
  86 ben  10  11  16
  87 prop tor  10  11  16   2
  88 prop tor  10  11  16  15
  89 ben  11  12  13
  90 prop tor  11  12  13  14
  91 prop tor  11  12  13  22
  92 ben  11  12  21
  93 ben  11  16  15
  94 ben  12  11  16
  95 prop tor  12  11  16   2
  96 prop tor  12  11  16  15
  97 ben  12  13  14
  98 prop tor  12  13  14  15
  99 prop tor  12  13  14  23
 100 ben  12  13  22
 101 ben  13  12  21
 102 ben  13  14  15
 103 prop tor  13  14  15  16
 104 prop tor  13  14  15  24
 105 ben  13  14  23
 106 ben  14  13  22
 107 ben  14  15  16
 108 prop tor  14  15  16   2
 109 prop tor  14  15  16  11
 110 ben  14  15  24
 111 ben  15  14  23
 112 prop tor  16   2   3   4
 113 prop tor  16   2   3   5
 114 prop tor  16  11  12  13
 115 prop tor  16  11  12  21
 116 ben  16  15  24
 117 prop tor  17   6   7   8
 118 prop tor  17   6   7  18
 119 prop tor  18   7   8   9
 120 prop tor  18   7   8  19
 121 prop tor  19   8   9  10
 122 prop tor  19   8   9  20
 123 prop tor  20   9  10   5
 124 prop tor  20   9  10  11
 125 prop tor  21  12  13  14
 126 prop tor  21  12  13  22
 127 prop tor  22  13  14  15
 128 prop tor  22  13  14  23
 129 prop tor  23  14  15  16
 130 prop tor  23  14  15  24
 131 prop tor  24  15  16   2
 132 prop tor  24  15  16  11
 nber bend=              42
 nber lin bend=           0
 nber prop tor=          64
 nber impr tor=           0
 nber tot redund int=         132
 generating redundant internal coords
         300        3600          24
 search for int coords
   1 str   2   1   1.261
   2 str   3   2   1.475
   3 str   4   3   1.261
   4 str   5   3   1.486
   5 str   6   5   1.397
   6 str   7   6   1.416
   7 str   8   7   1.398
   8 str   9   8   1.392
   9 str  10   5   1.441
  10 str  10   9   1.443
  11 str  11  10   1.429
  12 str  12  11   1.443
  13 str  13  12   1.392
  14 str  14  13   1.398
  15 str  15  14   1.416
  16 str  16   2   1.486
  17 str  16  11   1.441
  18 str  16  15   1.397
  19 str  17   6   1.085
  20 str  18   7   1.089
  21 str  19   8   1.093
  22 str  20   9   1.085
  23 str  21  12   1.085
  24 str  22  13   1.093
  25 str  23  14   1.089
  26 str  24  15   1.085
 nber stretches=          26
  27 ben   1   2   3
  28 prop tor   1   2   3   4
  29 prop tor   1   2   3   5
  30 ben   1   2  16
  31 prop tor   1   2  16  11
  32 prop tor   1   2  16  15
  33 ben   2   3   4
  34 ben   2   3   5
  35 prop tor   2   3   5   6
  36 prop tor   2   3   5  10
  37 ben   2  16  11
  38 ben   2  16  15
  39 ben   3   2  16
  40 prop tor   3   2  16  11
  41 prop tor   3   2  16  15
  42 ben   3   5   6
  43 prop tor   3   5   6   7
  44 prop tor   3   5   6  17
  45 ben   3   5  10
  46 prop tor   3   5  10   9
  47 prop tor   3   5  10  11
  48 ben   4   3   5
  49 prop tor   4   3   5   6
  50 prop tor   4   3   5  10
  51 ben   5   6   7
  52 prop tor   5   6   7   8
  53 prop tor   5   6   7  18
  54 ben   5   6  17
  55 ben   5  10   9
  56 ben   5  10  11
  57 prop tor   5  10  11  12
  58 prop tor   5  10  11  16
  59 ben   6   5  10
  60 prop tor   6   5  10   9
  61 prop tor   6   5  10  11
  62 ben   6   7   8
  63 prop tor   6   7   8   9
  64 prop tor   6   7   8  19
  65 ben   6   7  18
  66 ben   7   6  17
  67 ben   7   8   9
  68 prop tor   7   8   9  10
  69 prop tor   7   8   9  20
  70 ben   7   8  19
  71 ben   8   7  18
  72 ben   8   9  10
  73 prop tor   8   9  10   5
  74 prop tor   8   9  10  11
  75 ben   8   9  20
  76 ben   9   8  19
  77 ben   9  10  11
  78 prop tor   9  10  11  12
  79 prop tor   9  10  11  16
  80 prop tor  10   5   6   7
  81 prop tor  10   5   6  17
  82 ben  10   9  20
  83 ben  10  11  12
  84 prop tor  10  11  12  13
  85 prop tor  10  11  12  21
  86 ben  10  11  16
  87 prop tor  10  11  16   2
  88 prop tor  10  11  16  15
  89 ben  11  12  13
  90 prop tor  11  12  13  14
  91 prop tor  11  12  13  22
  92 ben  11  12  21
  93 ben  11  16  15
  94 ben  12  11  16
  95 prop tor  12  11  16   2
  96 prop tor  12  11  16  15
  97 ben  12  13  14
  98 prop tor  12  13  14  15
  99 prop tor  12  13  14  23
 100 ben  12  13  22
 101 ben  13  12  21
 102 ben  13  14  15
 103 prop tor  13  14  15  16
 104 prop tor  13  14  15  24
 105 ben  13  14  23
 106 ben  14  13  22
 107 ben  14  15  16
 108 prop tor  14  15  16   2
 109 prop tor  14  15  16  11
 110 ben  14  15  24
 111 ben  15  14  23
 112 prop tor  16   2   3   4
 113 prop tor  16   2   3   5
 114 prop tor  16  11  12  13
 115 prop tor  16  11  12  21
 116 ben  16  15  24
 117 prop tor  17   6   7   8
 118 prop tor  17   6   7  18
 119 prop tor  18   7   8   9
 120 prop tor  18   7   8  19
 121 prop tor  19   8   9  10
 122 prop tor  19   8   9  20
 123 prop tor  20   9  10   5
 124 prop tor  20   9  10  11
 125 prop tor  21  12  13  14
 126 prop tor  21  12  13  22
 127 prop tor  22  13  14  15
 128 prop tor  22  13  14  23
 129 prop tor  23  14  15  16
 130 prop tor  23  14  15  24
 131 prop tor  24  15  16   2
 132 prop tor  24  15  16  11
 nber bend=              42
 nber lin bend=           0
 nber prop tor=          64
 nber impr tor=           0
 nber tot redund int=         132
 Eigenvalues of G in red int coords
    Gval -0.00000000 -0.00000000 -0.00000000 -0.00000000 -0.00000000 -0.00000000 -0.00000000 -0.00000000
    Gval -0.00000000 -0.00000000 -0.00000000 -0.00000000 -0.00000000 -0.00000000 -0.00000000 -0.00000000
    Gval -0.00000000 -0.00000000 -0.00000000 -0.00000000 -0.00000000 -0.00000000 -0.00000000 -0.00000000
    Gval -0.00000000 -0.00000000 -0.00000000 -0.00000000 -0.00000000  0.00000000  0.00000000  0.00000000
    Gval  0.00000000  0.00000000  0.00000000  0.00000000  0.00000000  0.00000000  0.00000000  0.00000000
    Gval  0.00000000  0.00000000  0.00000000  0.00000000  0.00000000  0.00000000  0.00000000  0.00000000
    Gval  0.00000000  0.00000000  0.00000000  0.00000000  0.00000000  0.00000000  0.00000000  0.00000000
    Gval  0.00000000  0.00000000  0.00000000  0.00000000  0.00000000  0.00000000  0.00000000  0.00000000
    Gval  0.00000000  0.00000000  0.00000679  0.00001095  0.00001159  0.00002019  0.00002156  0.00002582
    Gval  0.00003561  0.00004712  0.00004760  0.00004933  0.00005470  0.00005951  0.00006070  0.00007770
    Gval  0.00007809  0.00009362  0.00010021  0.00010892  0.00011226  0.00012779  0.00012830  0.00013083
    Gval  0.00015499  0.00020155  0.00022891  0.00026045  0.00026429  0.00029382  0.00031909  0.00037036
    Gval  0.00037695  0.00040372  0.00042826  0.00042903  0.00045064  0.00059318  0.00059323  0.00059713
    Gval  0.00059734  0.00059947  0.00061689  0.00062122  0.00065307  0.00065351  0.00069817  0.00088076
    Gval  0.00095368  0.00104291  0.00104411  0.00111210  0.00111235  0.00114910  0.00114930  0.00116111
    Gval  0.00116114  0.00120150  0.00162903  0.00180734  0.00184456  0.00214420  0.00260651  0.00278457
    Gval  0.00344445  0.00350167  0.00398972  0.00399332
  6.792023272182249E-006  6.792023272182249E-006
  1.095340624737541E-005  6.792023272182249E-006
  1.159481325249908E-005  6.792023272182249E-006
  2.018867648494505E-005  6.792023272182249E-006
  2.155761530014722E-005  6.792023272182249E-006
  2.582394931005988E-005  6.792023272182249E-006
  3.560611648761231E-005  6.792023272182249E-006
  4.712103863095253E-005  6.792023272182249E-006
  4.760481071570090E-005  6.792023272182249E-006
  4.933499133055252E-005  6.792023272182249E-006
  5.469895477973777E-005  6.792023272182249E-006
  5.951312694238091E-005  6.792023272182249E-006
  6.070040721973854E-005  6.792023272182249E-006
  7.769697976973690E-005  6.792023272182249E-006
  7.808794471423100E-005  6.792023272182249E-006
  9.362228567754688E-005  6.792023272182249E-006
  1.002095744283498E-004  6.792023272182249E-006
  1.089223890271680E-004  6.792023272182249E-006
  1.122620695155690E-004  6.792023272182249E-006
  1.277919055178375E-004  6.792023272182249E-006
  1.283028508832834E-004  6.792023272182249E-006
  1.308326768678703E-004  6.792023272182249E-006
  1.549895942664951E-004  6.792023272182249E-006
  2.015462132017600E-004  6.792023272182249E-006
  2.289062220123833E-004  6.792023272182249E-006
  2.604479321620775E-004  6.792023272182249E-006
  2.642907853066749E-004  6.792023272182249E-006
  2.938231552297245E-004  6.792023272182249E-006
  3.190901674294219E-004  6.792023272182249E-006
  3.703560895396101E-004  6.792023272182249E-006
  3.769540180654849E-004  6.792023272182249E-006
  4.037225661123396E-004  6.792023272182249E-006
  4.282599582197586E-004  6.792023272182249E-006
  4.290268378571805E-004  6.792023272182249E-006
  4.506403435020935E-004  6.792023272182249E-006
  5.931814537111723E-004  6.792023272182249E-006
  5.932261209948764E-004  6.792023272182249E-006
  5.971269783682545E-004  6.792023272182249E-006
  5.973363511870123E-004  6.792023272182249E-006
  5.994707637846648E-004  6.792023272182249E-006
  6.168875161228635E-004  6.792023272182249E-006
  6.212226562912020E-004  6.792023272182249E-006
  6.530749467671407E-004  6.792023272182249E-006
  6.535139171276541E-004  6.792023272182249E-006
  6.981653254001835E-004  6.792023272182249E-006
  8.807604523279936E-004  6.792023272182249E-006
  9.536810335468612E-004  6.792023272182249E-006
  1.042914561907076E-003  6.792023272182249E-006
  1.044109109658177E-003  6.792023272182249E-006
  1.112102317661751E-003  6.792023272182249E-006
  1.112346228241163E-003  6.792023272182249E-006
  1.149095415049334E-003  6.792023272182249E-006
  1.149304404106494E-003  6.792023272182249E-006
  1.161106634067274E-003  6.792023272182249E-006
  1.161135724558001E-003  6.792023272182249E-006
  1.201500413089462E-003  6.792023272182249E-006
  1.629031616804808E-003  6.792023272182249E-006
  1.807335897767946E-003  6.792023272182249E-006
  1.844564867289164E-003  6.792023272182249E-006
  2.144195334781959E-003  6.792023272182249E-006
  2.606509830357238E-003  6.792023272182249E-006
  2.784567467243627E-003  6.792023272182249E-006
  3.444451481037129E-003  6.792023272182249E-006
  3.501673570404811E-003  6.792023272182249E-006
  3.989724395875794E-003  6.792023272182249E-006
  3.993323888581366E-003  6.792023272182249E-006
 cut=1d-8, nber non-redundant internal coords=          66
 Check on Eigenvals of non-red overlap matrix:
  0.00000679  0.00001095  0.00001159  0.00002019  0.00002156  0.00002582  0.00003561  0.00004712
  0.00004760  0.00004933  0.00005470  0.00005951  0.00006070  0.00007770  0.00007809  0.00009362
  0.00010021  0.00010892  0.00011226  0.00012779  0.00012830  0.00013083  0.00015499  0.00020155
  0.00022891  0.00026045  0.00026429  0.00029382  0.00031909  0.00037036  0.00037695  0.00040372
  0.00042826  0.00042903  0.00045064  0.00059318  0.00059323  0.00059713  0.00059734  0.00059947
  0.00061689  0.00062122  0.00065307  0.00065351  0.00069817  0.00088076  0.00095368  0.00104291
  0.00104411  0.00111210  0.00111235  0.00114910  0.00114930  0.00116111  0.00116114  0.00120150
  0.00162903  0.00180734  0.00184456  0.00214420  0.00260651  0.00278457  0.00344445  0.00350167
  0.00398972  0.00399332
 generating redundant internal coords
         300        3600          24
 search for int coords
   1 str   2   1   1.270
   2 str   3   2   1.475
   3 str   4   3   1.270
   4 str   5   3   1.489
   5 str   6   5   1.400
   6 str   7   6   1.418
   7 str   8   7   1.395
   8 str   9   8   1.388
   9 str  10   5   1.445
  10 str  10   9   1.448
  11 str  11  10   1.433
  12 str  12  11   1.448
  13 str  13  12   1.388
  14 str  14  13   1.395
  15 str  15  14   1.418
  16 str  16   2   1.489
  17 str  16  11   1.445
  18 str  16  15   1.400
  19 str  17   6   1.089
  20 str  18   7   1.107
  21 str  19   8   1.115
  22 str  20   9   1.096
  23 str  21  12   1.096
  24 str  22  13   1.115
  25 str  23  14   1.107
  26 str  24  15   1.089
 nber stretches=          26
  27 ben   1   2   3
  28 prop tor   1   2   3   4
  29 prop tor   1   2   3   5
  30 ben   1   2  16
  31 prop tor   1   2  16  11
  32 prop tor   1   2  16  15
  33 ben   2   3   4
  34 ben   2   3   5
  35 prop tor   2   3   5   6
  36 prop tor   2   3   5  10
  37 ben   2  16  11
  38 ben   2  16  15
  39 ben   3   2  16
  40 prop tor   3   2  16  11
  41 prop tor   3   2  16  15
  42 ben   3   5   6
  43 prop tor   3   5   6   7
  44 prop tor   3   5   6  17
  45 ben   3   5  10
  46 prop tor   3   5  10   9
  47 prop tor   3   5  10  11
  48 ben   4   3   5
  49 prop tor   4   3   5   6
  50 prop tor   4   3   5  10
  51 ben   5   6   7
  52 prop tor   5   6   7   8
  53 prop tor   5   6   7  18
  54 ben   5   6  17
  55 ben   5  10   9
  56 ben   5  10  11
  57 prop tor   5  10  11  12
  58 prop tor   5  10  11  16
  59 ben   6   5  10
  60 prop tor   6   5  10   9
  61 prop tor   6   5  10  11
  62 ben   6   7   8
  63 prop tor   6   7   8   9
  64 prop tor   6   7   8  19
  65 ben   6   7  18
  66 ben   7   6  17
  67 ben   7   8   9
  68 prop tor   7   8   9  10
  69 prop tor   7   8   9  20
  70 ben   7   8  19
  71 ben   8   7  18
  72 ben   8   9  10
  73 prop tor   8   9  10   5
  74 prop tor   8   9  10  11
  75 ben   8   9  20
  76 ben   9   8  19
  77 ben   9  10  11
  78 prop tor   9  10  11  12
  79 prop tor   9  10  11  16
  80 prop tor  10   5   6   7
  81 prop tor  10   5   6  17
  82 ben  10   9  20
  83 ben  10  11  12
  84 prop tor  10  11  12  13
  85 prop tor  10  11  12  21
  86 ben  10  11  16
  87 prop tor  10  11  16   2
  88 prop tor  10  11  16  15
  89 ben  11  12  13
  90 prop tor  11  12  13  14
  91 prop tor  11  12  13  22
  92 ben  11  12  21
  93 ben  11  16  15
  94 ben  12  11  16
  95 prop tor  12  11  16   2
  96 prop tor  12  11  16  15
  97 ben  12  13  14
  98 prop tor  12  13  14  15
  99 prop tor  12  13  14  23
 100 ben  12  13  22
 101 ben  13  12  21
 102 ben  13  14  15
 103 prop tor  13  14  15  16
 104 prop tor  13  14  15  24
 105 ben  13  14  23
 106 ben  14  13  22
 107 ben  14  15  16
 108 prop tor  14  15  16   2
 109 prop tor  14  15  16  11
 110 ben  14  15  24
 111 ben  15  14  23
 112 prop tor  16   2   3   4
 113 prop tor  16   2   3   5
 114 prop tor  16  11  12  13
 115 prop tor  16  11  12  21
 116 ben  16  15  24
 117 prop tor  17   6   7   8
 118 prop tor  17   6   7  18
 119 prop tor  18   7   8   9
 120 prop tor  18   7   8  19
 121 prop tor  19   8   9  10
 122 prop tor  19   8   9  20
 123 prop tor  20   9  10   5
 124 prop tor  20   9  10  11
 125 prop tor  21  12  13  14
 126 prop tor  21  12  13  22
 127 prop tor  22  13  14  15
 128 prop tor  22  13  14  23
 129 prop tor  23  14  15  16
 130 prop tor  23  14  15  24
 131 prop tor  24  15  16   2
 132 prop tor  24  15  16  11
 nber bend=              42
 nber lin bend=           0
 nber prop tor=          64
 nber impr tor=           0
 nber tot redund int=         132
 Eigenvalues of G in red int coords
    Gval -0.00000000 -0.00000000 -0.00000000 -0.00000000 -0.00000000 -0.00000000 -0.00000000 -0.00000000
    Gval -0.00000000 -0.00000000 -0.00000000 -0.00000000 -0.00000000 -0.00000000 -0.00000000 -0.00000000
    Gval -0.00000000 -0.00000000 -0.00000000 -0.00000000 -0.00000000 -0.00000000 -0.00000000 -0.00000000
    Gval -0.00000000 -0.00000000 -0.00000000 -0.00000000 -0.00000000 -0.00000000 -0.00000000 -0.00000000
    Gval -0.00000000 -0.00000000 -0.00000000  0.00000000  0.00000000  0.00000000  0.00000000  0.00000000
    Gval  0.00000000  0.00000000  0.00000000  0.00000000  0.00000000  0.00000000  0.00000000  0.00000000
    Gval  0.00000000  0.00000000  0.00000000  0.00000000  0.00000000  0.00000000  0.00000000  0.00000000
    Gval  0.00000000  0.00000000  0.00000000  0.00000000  0.00000000  0.00000000  0.00000000  0.00000000
    Gval  0.00000000  0.00000000  0.00000675  0.00001095  0.00001155  0.00002019  0.00002150  0.00002577
    Gval  0.00003561  0.00004715  0.00004757  0.00004946  0.00005465  0.00005947  0.00006066  0.00007750
    Gval  0.00007799  0.00009258  0.00010006  0.00010868  0.00011221  0.00012760  0.00012822  0.00012993
    Gval  0.00015454  0.00020086  0.00022815  0.00025949  0.00026327  0.00029383  0.00031772  0.00036919
    Gval  0.00037636  0.00040335  0.00042671  0.00042764  0.00044897  0.00059308  0.00059312  0.00059549
    Gval  0.00059678  0.00059699  0.00061617  0.00062037  0.00065323  0.00065373  0.00069737  0.00088468
    Gval  0.00095193  0.00101440  0.00101561  0.00109184  0.00109201  0.00112288  0.00112289  0.00113761
    Gval  0.00113776  0.00119501  0.00160342  0.00177982  0.00180936  0.00211660  0.00255460  0.00274213
    Gval  0.00337711  0.00343956  0.00387723  0.00388076
  6.754672485025583E-006  6.754672485025583E-006
  1.094513444760667E-005  6.754672485025583E-006
  1.154657415724960E-005  6.754672485025583E-006
  2.018844912033332E-005  6.754672485025583E-006
  2.149584384298094E-005  6.754672485025583E-006
  2.576557569888551E-005  6.754672485025583E-006
  3.560822830596109E-005  6.754672485025583E-006
  4.715425099771523E-005  6.754672485025583E-006
  4.756798021724637E-005  6.754672485025583E-006
  4.946333364845219E-005  6.754672485025583E-006
  5.464952631377094E-005  6.754672485025583E-006
  5.947248242070972E-005  6.754672485025583E-006
  6.066418064340163E-005  6.754672485025583E-006
  7.750397161038609E-005  6.754672485025583E-006
  7.798871506866707E-005  6.754672485025583E-006
  9.258357971956779E-005  6.754672485025583E-006
  1.000611069786322E-004  6.754672485025583E-006
  1.086822374926649E-004  6.754672485025583E-006
  1.122067170001914E-004  6.754672485025583E-006
  1.275954889954643E-004  6.754672485025583E-006
  1.282201829044319E-004  6.754672485025583E-006
  1.299266828206419E-004  6.754672485025583E-006
  1.545416362197260E-004  6.754672485025583E-006
  2.008593224609409E-004  6.754672485025583E-006
  2.281519785637400E-004  6.754672485025583E-006
  2.594876094592262E-004  6.754672485025583E-006
  2.632681579620004E-004  6.754672485025583E-006
  2.938279690536509E-004  6.754672485025583E-006
  3.177220687272743E-004  6.754672485025583E-006
  3.691858592474871E-004  6.754672485025583E-006
  3.763628843900657E-004  6.754672485025583E-006
  4.033516991270135E-004  6.754672485025583E-006
  4.267070173048629E-004  6.754672485025583E-006
  4.276404819581112E-004  6.754672485025583E-006
  4.489667502708159E-004  6.754672485025583E-006
  5.930797147945907E-004  6.754672485025583E-006
  5.931192730212544E-004  6.754672485025583E-006
  5.954873764605998E-004  6.754672485025583E-006
  5.967760415996102E-004  6.754672485025583E-006
  5.969939857860952E-004  6.754672485025583E-006
  6.161685929924583E-004  6.754672485025583E-006
  6.203714349810755E-004  6.754672485025583E-006
  6.532343455034091E-004  6.754672485025583E-006
  6.537303674493519E-004  6.754672485025583E-006
  6.973715309721540E-004  6.754672485025583E-006
  8.846778150688724E-004  6.754672485025583E-006
  9.519347022866400E-004  6.754672485025583E-006
  1.014401349896773E-003  6.754672485025583E-006
  1.015610050395490E-003  6.754672485025583E-006
  1.091837792200312E-003  6.754672485025583E-006
  1.092010757296682E-003  6.754672485025583E-006
  1.122880951170011E-003  6.754672485025583E-006
  1.122894606214390E-003  6.754672485025583E-006
  1.137606864120321E-003  6.754672485025583E-006
  1.137763386843454E-003  6.754672485025583E-006
  1.195013962715413E-003  6.754672485025583E-006
  1.603417347223646E-003  6.754672485025583E-006
  1.779821119925841E-003  6.754672485025583E-006
  1.809362171037460E-003  6.754672485025583E-006
  2.116598224133979E-003  6.754672485025583E-006
  2.554604006382899E-003  6.754672485025583E-006
  2.742130316601646E-003  6.754672485025583E-006
  3.377107348936101E-003  6.754672485025583E-006
  3.439561189071320E-003  6.754672485025583E-006
  3.877229738883691E-003  6.754672485025583E-006
  3.880761455847528E-003  6.754672485025583E-006
 cut=1d-8, nber non-redundant internal coords=          66
 Check on Eigenvals of non-red overlap matrix:
  0.00000675  0.00001095  0.00001155  0.00002019  0.00002150  0.00002577  0.00003561  0.00004715
  0.00004757  0.00004946  0.00005465  0.00005947  0.00006066  0.00007750  0.00007799  0.00009258
  0.00010006  0.00010868  0.00011221  0.00012760  0.00012822  0.00012993  0.00015454  0.00020086
  0.00022815  0.00025949  0.00026327  0.00029383  0.00031772  0.00036919  0.00037636  0.00040335
  0.00042671  0.00042764  0.00044897  0.00059308  0.00059312  0.00059549  0.00059678  0.00059699
  0.00061617  0.00062037  0.00065323  0.00065373  0.00069737  0.00088468  0.00095193  0.00101440
  0.00101561  0.00109184  0.00109201  0.00112288  0.00112289  0.00113761  0.00113776  0.00119501
  0.00160342  0.00177982  0.00180936  0.00211660  0.00255460  0.00274213  0.00337711  0.00343956
  0.00387723  0.00388076
 d1=
  -0.4   5.7  -0.0  -0.0   1.6   1.7   0.0  -0.0  -0.0  -0.0  -1.6  -0.0  -0.3  -0.0  -0.2  -0.0  -0.7  -0.0  -0.0   0.8
   0.0   0.0  -0.6   0.0   0.0  -0.9   0.0  -0.1  -0.0   0.0   0.7  -0.0   0.0  -0.5   0.0   1.8   0.0   0.3  -0.0   0.0
   0.0   0.0   0.2   0.0  -0.0   0.0  -0.0  -0.6   0.0   0.0  -0.2  -0.7   0.0  -0.0   0.4   0.0   0.0   0.0   0.0   0.0
   0.0  -0.0  -0.0  -0.0  -0.0  -0.0
 d2=
   0.4  -5.6  -0.0   0.0   1.6   1.7  -0.0  -0.0   0.0   0.0   1.6  -0.0  -0.3   0.0  -0.2   0.0   0.7  -0.0  -0.0   0.8
  -0.2  -0.0  -0.6  -0.0   0.0   0.9   0.0   0.1   0.0  -0.0  -0.7  -0.0   0.5  -0.0  -0.0  -1.9  -0.0   0.0  -0.3   0.0
   0.0  -0.0  -0.2   0.0   0.0   0.0  -0.0  -0.6  -0.0   0.0  -0.3  -0.5  -0.0  -0.6  -0.0   0.0  -0.0  -0.0  -0.0  -0.0
  -0.0   0.0   0.0   0.0   0.0   0.0
 curvilinear- renormalizn of Dush matrix done
  mol 1 sym            1  -> mol 2 sym            1
  mol 1 sym            2  -> mol 2 sym            1
  mol 1 sym            3  -> mol 2 sym            2
  mol 1 sym            4  -> mol 2 sym            2

 Dushinsky matrix, ncs 2 in terms of ncs 1

   mode   freq    coeff     %      %tot     of    at

   1 B      -0.  0.0000     0.0     0.0  62 A1   1546.
   2 A      -0. -0.0000     0.0     0.0  39 B2    917.
   3 B      -0. -0.0000     0.0     0.0  62 A1   1546.
   4 B       0.  0.0000     0.0     0.0  62 A1   1546.
   5 A       0. -0.0000     0.0     0.0  39 B2    917.
   6 B       0.  0.0000     0.0     0.0  62 A1   1546.
   7 A      62.  0.9913    98.3   100.0   7 A2     50.
   8 B      85.  0.9998   100.0    99.7   8 B1     83.
   9 A     100. -0.9869    97.4    99.4   9 A2    100.
  10 B     159.  0.9996    99.9    99.3  10 B1    155.
  11 A     236. -0.9999   100.0    99.5  11 A1    240.
  12 A     251. -0.9916    98.3   100.0  12 A2    247.
  13 B     314. -0.9997    99.9    99.6  13 B2    317.
  14 A     373.  0.9981    99.6    99.1  14 A1    371.
  15 B     381. -0.9992    99.8    99.9  16 B2    385.
  16 B     389.  0.9902    98.0    99.9  15 B1    380.
  17 A     413.  0.9986    99.7    99.4  18 A1    414.
  18 B     414.  0.9919    98.4    99.1  17 B1    409.
  19 A     452. -0.9998   100.0    99.7  20 A1    456.
  20 A     476. -0.9825    96.5    99.4  19 A2    451.
  21 A     524.  0.9604    92.2   100.2  21 A2    509.
  22 B     571.  0.9850    97.0   100.5  23 B1    562.
  23 B     584. -0.9911    98.2    99.8  24 B2    596.
  24 A     586.  0.8950    80.1    97.9  22 A2    558.
                 0.3798    14.4          27 A2    631.
  25 B     609. -0.9893    97.9    99.8  26 B2    613.
  26 B     611.  0.8306    69.0    97.7  25 B1    607.
                -0.5280    27.9          28 B1    657.
  27 A     635. -0.3537    12.5    98.2  22 A2    558.
                 0.9032    81.6          27 A2    631.
  28 B     650.  0.9916    98.3    99.9  29 B2    670.
  29 A     672. -0.9962    99.2   100.0  30 A1    676.
  30 B     695.  0.4644    21.6    98.3  25 B1    607.
                 0.7092    50.3          28 B1    657.
                -0.5161    26.6          32 B1    705.
  31 A     709.  0.9512    90.5    99.5  31 A2    692.
  32 B     719.  0.4630    21.4    99.0  28 B1    657.
                 0.8484    72.0          32 B1    705.
  33 A     751.  0.9935    98.7   100.0  34 A1    789.
  34 A     755. -0.9436    89.0    99.3  33 A2    753.
  35 A     840.  0.4129    17.1    98.9  35 A2    839.
                -0.9024    81.4          38 A2    851.
  36 B     842. -0.9480    89.9    99.2  37 B1    847.
  37 B     850. -0.8807    77.6    99.6  39 B2    917.
                -0.3444    11.9          42 B2   1033.
  38 B     871. -0.9406    88.5    96.2  36 B1    845.
  39 B     920. -0.3422    11.7    99.6  39 B2    917.
                 0.9006    81.1          40 B2    991.
  40 A     950.  0.8470    71.7    96.4  35 A2    839.
                 0.4265    18.2          38 A2    851.
  41 B    1001. -0.3458    12.0    99.4  40 B2    991.
                 0.8728    76.2          42 B2   1033.
  42 A    1011. -0.9687    93.8    99.3  41 A1   1023.
  43 A    1024. -0.9661    93.3    99.9  43 A1   1051.
  44 B    1060.  0.8897    79.2    98.1  45 B2   1087.
                 0.4271    18.2          46 B2   1127.
  45 A    1072.  0.9260    85.7    98.4  44 A1   1078.
                 0.3625    13.1          47 A1   1143.
  46 B    1084.  0.4339    18.8    97.9  45 B2   1087.
                -0.8971    80.5          46 B2   1127.
  47 A    1090.  0.3805    14.5    98.1  44 A1   1078.
                -0.9103    82.9          47 A1   1143.
  48 B    1158. -0.9906    98.1    99.3  48 B2   1180.
  49 A    1189. -0.9814    96.3    99.0  49 A1   1216.
  50 B    1236.  0.9634    92.8    99.4  50 B2   1247.
  51 A    1254.  0.9947    98.9   100.0  51 A1   1264.
  52 B    1297. -0.8992    80.9    99.1  53 B2   1337.
  53 A    1316. -0.9946    98.9    99.6  52 A1   1329.
  54 A    1350.  0.9960    99.2    98.8  54 A1   1356.
  55 B    1375.  0.3279    10.7    99.7  53 B2   1337.
                -0.7866    61.9          55 B2   1409.
                -0.4159    17.3          56 B2   1441.
  56 B    1422. -0.5668    32.1    98.8  55 B2   1409.
                 0.7593    57.7          56 B2   1441.
  57 A    1444. -0.9754    95.1    99.3  57 A1   1450.
  58 B    1456. -0.3682    13.6    99.3  56 B2   1441.
                -0.8900    79.2          58 B2   1461.
  59 A    1462.  0.9488    90.0    99.3  59 A1   1477.
  60 B    1479. -0.9354    87.5    99.0  60 B2   1490.
  61 A    1499. -0.9648    93.1    99.1  61 A1   1513.
  62 A    1528. -0.9875    97.5    99.8  62 A1   1546.
  63 B    1536.  0.9628    92.7    99.7  63 B2   1559.
  64 A    1577. -0.9942    98.8    99.7  64 A1   1590.
  65 B    2583.  0.5871    34.5   100.0  65 B2   3051.
                 0.6749    45.5          67 B2   3097.
                -0.3705    13.7          69 B2   3138.
  66 A    2741. -0.9783    95.7   100.0  66 A1   3053.
  67 B    2778.  0.7800    60.8   100.0  65 B2   3051.
                -0.6065    36.8          67 B2   3097.
  68 A    2830. -0.9702    94.1   100.0  68 A1   3099.
  69 B    2964.  0.3432    11.8   100.0  67 B2   3097.
                 0.9123    83.2          69 B2   3138.
  70 A    2983. -0.4025    16.2   100.0  71 A1   3154.
                 0.9066    82.2          72 A1   3159.
  71 B    3090.  0.9603    92.2   100.0  70 B2   3154.
  72 A    3096.  0.9039    81.7   100.0  71 A1   3154.
                 0.3937    15.5          72 A1   3159.
 nber times 1st assigned=           1           0
 nber times 1st assigned=           2           0
 nber times 1st assigned=           3           0
 nber times 1st assigned=           4           0
 nber times 1st assigned=           5           0
 nber times 1st assigned=           6           0
 nber times 1st assigned=           7           0
 nber times 1st assigned=           8           0
 nber times 1st assigned=           9           0
 nber times 1st assigned=          10           0
 nber times 1st assigned=          11           0
 nber times 1st assigned=          12           0
 nber times 1st assigned=          13           0
 nber times 1st assigned=          14           0
 nber times 1st assigned=          15           0
 nber times 1st assigned=          16           0
 nber times 1st assigned=          17           0
 nber times 1st assigned=          18           0
 nber times 1st assigned=          19           0
 nber times 1st assigned=          20           0
 nber times 1st assigned=          21           0
 nber times 1st assigned=          22           0
 nber times 1st assigned=          23           0
 nber times 1st assigned=          24           0
 nber times 1st assigned=          25           0
 nber times 1st assigned=          26           0
 nber times 1st assigned=          27           0
 nber times 1st assigned=          28           0
 nber times 1st assigned=          29           0
 nber times 1st assigned=          30           0
 nber times 1st assigned=          31           0
 nber times 1st assigned=          32           0
 nber times 1st assigned=          33           0
 nber times 1st assigned=          34           0
 nber times 1st assigned=          35           0
 nber times 1st assigned=          36           0
 nber times 1st assigned=          37           0
 nber times 1st assigned=          38           0
 nber times 1st assigned=          39           2
 nber times 1st assigned=          40           0
 nber times 1st assigned=          41           0
 nber times 1st assigned=          42           0
 nber times 1st assigned=          43           0
 nber times 1st assigned=          44           0
 nber times 1st assigned=          45           0
 nber times 1st assigned=          46           0
 nber times 1st assigned=          47           0
 nber times 1st assigned=          48           0
 nber times 1st assigned=          49           0
 nber times 1st assigned=          50           0
 nber times 1st assigned=          51           0
 nber times 1st assigned=          52           0
 nber times 1st assigned=          53           0
 nber times 1st assigned=          54           0
 nber times 1st assigned=          55           0
 nber times 1st assigned=          56           0
 nber times 1st assigned=          57           0
 nber times 1st assigned=          58           0
 nber times 1st assigned=          59           0
 nber times 1st assigned=          60           0
 nber times 1st assigned=          61           0
 nber times 1st assigned=          62           4
 nber times 1st assigned=          63           0
 nber times 1st assigned=          64           0
 nber times 1st assigned=          65           0
 nber times 1st assigned=          66           0
 nber times 1st assigned=          67           0
 nber times 1st assigned=          68           0
 nber times 1st assigned=          69           0
 nber times 1st assigned=          70           0
 nber times 1st assigned=          71           0
 nber times 1st assigned=          72           0
 Dushinsky matrix written to .out file
 modes represented=   65.5405345381616     

 Dushinsky matrix, ncs 1 in terms of ncs 2

   mode   freq    coeff     %      %tot     of    at

   7 A2     50.  0.9913    98.3   100.0   7 A      62.
   8 B1     83.  0.9998   100.0    99.7   8 B      85.
   9 A2    100. -0.9869    97.4    99.4   9 A     100.
  10 B1    155.  0.9996    99.9    99.3  10 B     159.
  11 A1    240. -0.9999   100.0    99.5  11 A     236.
  12 A2    247. -0.9916    98.3   100.1  12 A     251.
  13 B2    317. -0.9997    99.9    99.6  13 B     314.
  14 A1    371.  0.9981    99.6    99.0  14 A     373.
  15 B1    380.  0.9902    98.0    99.9  16 B     389.
  16 B2    385. -0.9992    99.8    99.9  15 B     381.
  17 B1    409.  0.9919    98.4    99.2  18 B     414.
  18 A1    414.  0.9986    99.7    99.5  17 A     413.
  19 A2    451. -0.9825    96.5    99.3  20 A     476.
  20 A1    456. -0.9998   100.0    99.7  19 A     452.
  21 A2    509.  0.9604    92.2    99.7  21 A     524.
  22 A2    558.  0.8950    80.1    98.7  24 A     586.
                -0.3537    12.5          27 A     635.
  23 B1    562.  0.9850    97.0   100.5  22 B     571.
  24 B2    596. -0.9911    98.2    99.8  23 B     584.
  25 B1    607.  0.8306    69.0    97.5  26 B     611.
                 0.4644    21.6          30 B     695.
  26 B2    613. -0.9893    97.9    99.7  25 B     609.
  27 A2    631.  0.3798    14.4    97.9  24 A     586.
                 0.9032    81.6          27 A     635.
  28 B1    657. -0.5280    27.9    98.0  26 B     611.
                 0.7092    50.3          30 B     695.
                 0.4630    21.4          32 B     719.
  29 B2    670.  0.9916    98.3    99.8  28 B     650.
  30 A1    676. -0.9962    99.2    99.9  29 A     672.
  31 A2    692.  0.9512    90.5    99.6  31 A     709.
  32 B1    705. -0.5161    26.6    99.4  30 B     695.
                 0.8484    72.0          32 B     719.
  33 A2    753. -0.9436    89.0    99.2  34 A     755.
  34 A1    789.  0.9935    98.7   100.0  33 A     751.
  35 A2    839.  0.4129    17.1    96.1  35 A     840.
                 0.8470    71.7          40 A     950.
  36 B1    845. -0.9406    88.5    96.3  38 B     871.
  37 B1    847. -0.9480    89.9    99.0  36 B     842.
  38 A2    851. -0.9024    81.4    99.3  35 A     840.
                 0.4265    18.2          40 A     950.
  39 B2    917. -0.8807    77.6    99.5  37 B     850.
                -0.3422    11.7          39 B     920.
  40 B2    991.  0.9006    81.1    99.8  39 B     920.
                -0.3458    12.0          41 B    1001.
  41 A1   1023. -0.9687    93.8    99.6  42 A    1011.
  42 B2   1033. -0.3444    11.9    99.2  37 B     850.
                 0.8728    76.2          41 B    1001.
  43 A1   1051. -0.9661    93.3    99.8  43 A    1024.
  44 A1   1078.  0.9260    85.7    99.1  45 A    1072.
                 0.3805    14.5          47 A    1090.
  45 B2   1087.  0.8897    79.2    98.5  44 B    1060.
                 0.4339    18.8          46 B    1084.
  46 B2   1127.  0.4271    18.2    97.8  44 B    1060.
                -0.8971    80.5          46 B    1084.
  47 A1   1143.  0.3625    13.1    97.7  45 A    1072.
                -0.9103    82.9          47 A    1090.
  48 B2   1180. -0.9906    98.1    99.4  48 B    1158.
  49 A1   1216. -0.9814    96.3    98.8  49 A    1189.
  50 B2   1247.  0.9634    92.8    99.4  50 B    1236.
  51 A1   1264.  0.9947    98.9    99.9  51 A    1254.
  52 A1   1329. -0.9946    98.9    99.5  53 A    1316.
  53 B2   1337. -0.8992    80.9    99.2  52 B    1297.
                 0.3279    10.7          55 B    1375.
  54 A1   1356.  0.9960    99.2    98.8  54 A    1350.
  55 B2   1409. -0.7866    61.9    99.3  55 B    1375.
                -0.5668    32.1          56 B    1422.
  56 B2   1441. -0.4159    17.3    99.4  55 B    1375.
                 0.7593    57.7          56 B    1422.
                -0.3682    13.6          58 B    1456.
  57 A1   1450. -0.9754    95.1    99.1  57 A    1444.
  58 B2   1461. -0.8900    79.2    98.8  58 B    1456.
  59 A1   1477.  0.9488    90.0    99.4  59 A    1462.
  60 B2   1490. -0.9354    87.5    99.0  60 B    1479.
  61 A1   1513. -0.9648    93.1    99.1  61 A    1499.
  62 A1   1546. -0.9875    97.5    99.8  62 A    1528.
  63 B2   1559.  0.9628    92.7    99.8  63 B    1536.
  64 A1   1590. -0.9942    98.8    99.6  64 A    1577.
  65 B2   3051.  0.5871    34.5   100.0  65 B    2583.
                 0.7800    60.8          67 B    2778.
  66 A1   3053. -0.9783    95.7   100.0  66 A    2741.
  67 B2   3097.  0.6749    45.5   100.0  65 B    2583.
                -0.6065    36.8          67 B    2778.
                 0.3432    11.8          69 B    2964.
  68 A1   3099. -0.9702    94.1   100.0  68 A    2830.
  69 B2   3138. -0.3705    13.7   100.0  65 B    2583.
                 0.9123    83.2          69 B    2964.
  70 B2   3154.  0.9603    92.2   100.0  71 B    3090.
  71 A1   3154. -0.4025    16.2   100.0  70 A    2983.
                 0.9039    81.7          72 A    3096.
  72 A1   3159.  0.9066    82.2   100.0  70 A    2983.
                 0.3937    15.5          72 A    3096.
 nber times 1st assigned=           1           0
 nber times 1st assigned=           2           0
 nber times 1st assigned=           3           0
 nber times 1st assigned=           4           0
 nber times 1st assigned=           5           0
 nber times 1st assigned=           6           0
 nber times 1st assigned=           7           0
 nber times 1st assigned=           8           0
 nber times 1st assigned=           9           0
 nber times 1st assigned=          10           0
 nber times 1st assigned=          11           0
 nber times 1st assigned=          12           0
 nber times 1st assigned=          13           0
 nber times 1st assigned=          14           0
 nber times 1st assigned=          15           0
 nber times 1st assigned=          16           0
 nber times 1st assigned=          17           0
 nber times 1st assigned=          18           0
 nber times 1st assigned=          19           0
 nber times 1st assigned=          20           0
 nber times 1st assigned=          21           0
 nber times 1st assigned=          22           0
 nber times 1st assigned=          23           0
 nber times 1st assigned=          24           0
 nber times 1st assigned=          25           0
 nber times 1st assigned=          26           0
 nber times 1st assigned=          27           0
 nber times 1st assigned=          28           0
 nber times 1st assigned=          29           0
 nber times 1st assigned=          30           0
 nber times 1st assigned=          31           0
 nber times 1st assigned=          32           0
 nber times 1st assigned=          33           0
 nber times 1st assigned=          34           0
 nber times 1st assigned=          35           0
 nber times 1st assigned=          36           0
 nber times 1st assigned=          37           0
 nber times 1st assigned=          38           0
 nber times 1st assigned=          39           0
 nber times 1st assigned=          40           0
 nber times 1st assigned=          41           0
 nber times 1st assigned=          42           0
 nber times 1st assigned=          43           0
 nber times 1st assigned=          44           0
 nber times 1st assigned=          45           0
 nber times 1st assigned=          46           0
 nber times 1st assigned=          47           0
 nber times 1st assigned=          48           0
 nber times 1st assigned=          49           0
 nber times 1st assigned=          50           0
 nber times 1st assigned=          51           0
 nber times 1st assigned=          52           0
 nber times 1st assigned=          53           0
 nber times 1st assigned=          54           0
 nber times 1st assigned=          55           0
 nber times 1st assigned=          56           0
 nber times 1st assigned=          57           0
 nber times 1st assigned=          58           0
 nber times 1st assigned=          59           0
 nber times 1st assigned=          60           0
 nber times 1st assigned=          61           0
 nber times 1st assigned=          62           0
 nber times 1st assigned=          63           0
 nber times 1st assigned=          64           0
 nber times 1st assigned=          65           0
 nber times 1st assigned=          66           0
 nber times 1st assigned=          67           0
 nber times 1st assigned=          68           0
 nber times 1st assigned=          69           0
 nber times 1st assigned=          70           0
 nber times 1st assigned=          71           0
 nber times 1st assigned=          72           0
 modes represented=   65.5405345381616     
 p1=
   -0.   -0.    0.    0.    0.   -0.    0.    0.    0.   -0.    1.    0.   -0.   -4.    0.   -0.    0.    2.   -0.    4.
    0.   -0.   -0.   -0.    0.   -0.    0.    0.    0.   -1.    0.   -0.    0.   -1.   -0.    0.   -0.   -0.   -0.    0.
   -0.   -0.   -0.   -1.   -0.    0.   -1.    0.    1.    0.   -0.   -0.    0.    0.   -0.    0.   -0.    0.    0.    0.
    1.    1.    0.    0.    0.   -1.    0.    1.   -0.   -0.   -0.   -1.
 p2=
   -0.   -0.    0.   -0.    0.   -0.   -0.   -0.    0.    0.    1.    0.    0.    4.    0.   -0.   -2.   -0.    4.   -0.
   -0.    0.   -0.    0.    0.   -0.   -0.    0.   -1.   -0.   -0.    0.    1.    0.   -0.   -0.    0.    0.   -0.    0.
   -0.   -0.   -0.   -0.    1.    0.   -0.   -0.    1.    0.    0.    0.   -0.   -0.    0.    0.   -0.   -0.   -0.   -0.
    1.    1.    0.   -0.    0.   -1.   -0.    1.   -0.    1.    0.    0.

 Displacement: in terms of nc of 1 THEN of nc of 2

   1 B2  freq=    -0. Q= -0.000 lam=    -0.0 B   freq=    -0. Q= -0.000 lam=    -0.0
   2 B1  freq=     0. Q= -0.000 lam=     0.0 A   freq=    -0. Q= -0.000 lam=    -0.0
   3 B1  freq=     0. Q=  0.000 lam=     0.0 B   freq=    -0. Q=  0.000 lam=    -0.0
   4 A2  freq=     0. Q=  0.000 lam=     0.0 B   freq=     0. Q=  0.000 lam=     0.0
   5 B2  freq=     0. Q=  0.000 lam=     0.0 A   freq=     0. Q=  0.000 lam=     0.0
   6 A1  freq=     0. Q= -0.000 lam=     0.0 B   freq=     0. Q= -0.000 lam=     0.0
   7 A2  freq=    50. Q=  0.001 lam=     0.0 A   freq=    62. Q=  0.001 lam=     0.0
   8 B1  freq=    83. Q=  0.000 lam=     0.0 B   freq=    85. Q=  0.000 lam=     0.0
   9 A2  freq=   100. Q=  0.000 lam=     0.0 A   freq=   100. Q=  0.000 lam=     0.0
  10 B1  freq=   155. Q= -0.000 lam=     0.0 B   freq=   159. Q= -0.000 lam=     0.0
  11 A1  freq=   240. Q=  0.053 lam=     0.3 A   freq=   236. Q=  0.050 lam=     0.3
  12 A2  freq=   247. Q=  0.001 lam=     0.0 A   freq=   251. Q=  0.001 lam=     0.0
  13 B2  freq=   317. Q= -0.000 lam=     0.0 B   freq=   314. Q= -0.000 lam=     0.0
  14 A1  freq=   371. Q= -0.327 lam=    19.9 A   freq=   373. Q= -0.344 lam=    22.0
  15 B1  freq=   380. Q=  0.000 lam=     0.0 B   freq=   381. Q=  0.000 lam=     0.0
  16 B2  freq=   385. Q= -0.000 lam=     0.0 B   freq=   389. Q= -0.000 lam=     0.0
  17 B1  freq=   409. Q=  0.000 lam=     0.0 A   freq=   413. Q=  0.185 lam=     7.0
  18 A1  freq=   414. Q=  0.203 lam=     8.5 B   freq=   414. Q=  0.000 lam=     0.0
  19 A2  freq=   451. Q= -0.002 lam=     0.0 A   freq=   452. Q= -0.321 lam=    23.3
  20 A1  freq=   456. Q=  0.330 lam=    24.8 A   freq=   476. Q=  0.002 lam=     0.0
  21 A2  freq=   509. Q=  0.001 lam=     0.0 A   freq=   524. Q=  0.001 lam=     0.0
  22 A2  freq=   558. Q= -0.000 lam=     0.0 B   freq=   571. Q= -0.000 lam=     0.0
  23 B1  freq=   562. Q= -0.000 lam=     0.0 B   freq=   584. Q= -0.000 lam=     0.0
  24 B2  freq=   596. Q= -0.000 lam=     0.0 A   freq=   586. Q= -0.000 lam=     0.0
  25 B1  freq=   607. Q=  0.000 lam=     0.0 B   freq=   609. Q=  0.000 lam=     0.0
  26 B2  freq=   613. Q= -0.000 lam=     0.0 B   freq=   611. Q= -0.000 lam=     0.0
  27 A2  freq=   631. Q=  0.000 lam=     0.0 A   freq=   635. Q=  0.001 lam=     0.0
  28 B1  freq=   657. Q=  0.000 lam=     0.0 B   freq=   650. Q=  0.000 lam=     0.0
  29 B2  freq=   670. Q=  0.000 lam=     0.0 A   freq=   672. Q=  0.096 lam=     3.1
  30 A1  freq=   676. Q= -0.090 lam=     2.8 B   freq=   695. Q= -0.000 lam=     0.0
  31 A2  freq=   692. Q=  0.001 lam=     0.0 A   freq=   709. Q=  0.001 lam=     0.0
  32 B1  freq=   705. Q= -0.000 lam=     0.0 B   freq=   719. Q= -0.000 lam=     0.0
  33 A2  freq=   753. Q=  0.001 lam=     0.0 A   freq=   751. Q=  0.084 lam=     2.7
  34 A1  freq=   789. Q= -0.088 lam=     3.1 A   freq=   755. Q= -0.001 lam=     0.0
  35 A2  freq=   839. Q= -0.001 lam=     0.0 A   freq=   840. Q= -0.000 lam=     0.0
  36 B1  freq=   845. Q=  0.000 lam=     0.0 B   freq=   842. Q=  0.000 lam=     0.0
  37 B1  freq=   847. Q= -0.000 lam=     0.0 B   freq=   850. Q= -0.000 lam=     0.0
  38 A2  freq=   851. Q= -0.001 lam=     0.0 B   freq=   871. Q= -0.000 lam=     0.0
  39 B2  freq=   917. Q= -0.000 lam=     0.0 B   freq=   920. Q= -0.000 lam=     0.0
  40 B2  freq=   991. Q=  0.000 lam=     0.0 A   freq=   950. Q=  0.001 lam=     0.0
  41 A1  freq=  1023. Q= -0.063 lam=     2.0 B   freq=  1001. Q= -0.000 lam=     0.0
  42 B2  freq=  1033. Q= -0.000 lam=     0.0 A   freq=  1011. Q= -0.060 lam=     1.8
  43 A1  freq=  1051. Q= -0.018 lam=     0.2 A   freq=  1024. Q= -0.003 lam=     0.0
  44 A1  freq=  1078. Q= -0.147 lam=    11.7 B   freq=  1060. Q= -0.000 lam=     0.0
  45 B2  freq=  1087. Q= -0.000 lam=     0.0 A   freq=  1072. Q= -0.167 lam=    15.0
  46 B2  freq=  1127. Q=  0.000 lam=     0.0 B   freq=  1084. Q=  0.000 lam=     0.0
  47 A1  freq=  1143. Q= -0.107 lam=     6.5 A   freq=  1090. Q= -0.025 lam=     0.3
  48 B2  freq=  1180. Q=  0.000 lam=     0.0 B   freq=  1158. Q=  0.000 lam=     0.0
  49 A1  freq=  1216. Q=  0.086 lam=     4.5 A   freq=  1189. Q=  0.111 lam=     7.4
  50 B2  freq=  1247. Q=  0.000 lam=     0.0 B   freq=  1236. Q=  0.000 lam=     0.0
  51 A1  freq=  1264. Q= -0.045 lam=     1.3 A   freq=  1254. Q= -0.040 lam=     1.0
  52 A1  freq=  1329. Q= -0.051 lam=     1.7 B   freq=  1297. Q= -0.000 lam=     0.0
  53 B2  freq=  1337. Q=  0.000 lam=     0.0 A   freq=  1316. Q=  0.060 lam=     2.4
  54 A1  freq=  1356. Q=  0.022 lam=     0.3 A   freq=  1350. Q=  0.017 lam=     0.2
  55 B2  freq=  1409. Q= -0.000 lam=     0.0 B   freq=  1375. Q= -0.000 lam=     0.0
  56 B2  freq=  1441. Q=  0.000 lam=     0.0 B   freq=  1422. Q=  0.000 lam=     0.0
  57 A1  freq=  1450. Q= -0.008 lam=     0.1 A   freq=  1444. Q= -0.007 lam=     0.0
  58 B2  freq=  1461. Q=  0.000 lam=     0.0 B   freq=  1456. Q=  0.000 lam=     0.0
  59 A1  freq=  1477. Q=  0.055 lam=     2.2 A   freq=  1462. Q=  0.031 lam=     0.7
  60 B2  freq=  1490. Q=  0.000 lam=     0.0 B   freq=  1479. Q=  0.000 lam=     0.0
  61 A1  freq=  1513. Q=  0.088 lam=     5.9 A   freq=  1499. Q=  0.115 lam=     9.9
  62 A1  freq=  1546. Q=  0.187 lam=    27.0 A   freq=  1528. Q=  0.172 lam=    22.5
  63 B2  freq=  1559. Q=  0.000 lam=     0.0 B   freq=  1536. Q=  0.000 lam=     0.0
  64 A1  freq=  1590. Q=  0.017 lam=     0.2 A   freq=  1577. Q=  0.005 lam=     0.0
  65 B2  freq=  3051. Q=  0.000 lam=     0.0 B   freq=  2583. Q=  0.000 lam=     0.0
  66 A1  freq=  3053. Q= -0.175 lam=    46.9 A   freq=  2741. Q= -0.232 lam=    73.8
  67 B2  freq=  3097. Q=  0.000 lam=     0.0 B   freq=  2778. Q=  0.000 lam=     0.0
  68 A1  freq=  3099. Q=  0.285 lam=   125.6 A   freq=  2830. Q=  0.255 lam=    92.2
  69 B2  freq=  3138. Q= -0.000 lam=     0.0 B   freq=  2964. Q= -0.000 lam=     0.0
  70 B2  freq=  3154. Q= -0.000 lam=     0.0 A   freq=  2983. Q= -0.144 lam=    31.0
  71 A1  freq=  3154. Q= -0.024 lam=     0.9 B   freq=  3090. Q= -0.000 lam=     0.0
  72 A1  freq=  3159. Q= -0.215 lam=    72.8 A   freq=  3096. Q= -0.060 lam=     5.5

 total reorg energy (cm**-1, kcal/mol)=      369.      322.      1.06      0.92
 Nber of molecules processed=           2
