 Enter ifcurve (0=recti, 1=orth curvi, 2=apprx curvi, -1 = skip
 And atom ordering flag, 0= never changes, 1= use the first order thenceforth,
  2= deduce it (does read on fail), 3= always read it
 Reading file: 
 ./Non-cov-phenyl-N_0_C0S0.log                                                  
                                          
  Entering Gaussian System, Link 0=g16                                          
  
 Gaussian format, type: g94, g98, g03= F F F
  #P Geom=AllCheck Guess=TCheck SCRF=Check GenChk RB3LYP/6-311G(d,p) Fre    
 energy type= B3LYP   
 Original G94 input coords:
  6  7.945362  0.000000  0.000000
  6  7.237838 -1.199101  0.000000
  6  5.847490 -1.197636  0.000000
  6  5.111112  0.000000  0.000000
  6  5.847490  1.197636  0.000000
  6  7.237838  1.199101  0.000000
  6  3.621273  0.000000  0.000000
  6  2.875277  1.189995  0.000000
  6  1.488552  1.190311  0.000000
  6  0.742911  0.000000  0.000000
  6  1.488552 -1.190311  0.000000
  6  2.875277 -1.189995  0.000000
  6 -0.742911  0.000000  0.000000
  6 -1.488552  1.190311  0.000000
  6 -2.875277  1.189995  0.000000
  6 -3.621273  0.000000  0.000000
  6 -2.875277 -1.189995  0.000000
  6 -1.488552 -1.190311  0.000000
  6 -5.111112  0.000000  0.000000
  6 -5.847490  1.197636  0.000000
  6 -7.237838  1.199101  0.000000
  6 -7.945362  0.000000  0.000000
  6 -7.237838 -1.199101  0.000000
  6 -5.847490 -1.197636  0.000000
  1  9.029385  0.000000  0.000000
  1  7.769332 -2.144477  0.000000
  1  5.338587 -2.152321  0.000000
  1  5.338587  2.152321  0.000000
  1  7.769332  2.144477  0.000000
  1  3.375536  2.148976  0.000000
  1  0.986964  2.149035  0.000000
  1  0.986964 -2.149035  0.000000
  1  3.375536 -2.148976  0.000000
  1 -0.986964  2.149035  0.000000
  1 -3.375536  2.148976  0.000000
  1 -3.375536 -2.148976  0.000000
  1 -0.986964 -2.149035  0.000000
  1 -5.338587  2.152321  0.000000
  1 -7.769332  2.144477  0.000000
  1 -9.029385  0.000000  0.000000
  1 -7.769332 -2.144477  0.000000
  1 -5.338587 -2.152321  0.000000
 nber atoms=          42
 Original standard coords:
  6  0.000000  0.000000  7.945362
  6  0.000000  1.199101  7.237838
  6  0.000000  1.197636  5.847490
  6  0.000000  0.000000  5.111112
  6  0.000000 -1.197636  5.847490
  6  0.000000 -1.199101  7.237838
  6  0.000000  0.000000  3.621273
  6  0.000000 -1.189995  2.875277
  6  0.000000 -1.190311  1.488552
  6  0.000000  0.000000  0.742911
  6  0.000000  1.190311  1.488552
  6  0.000000  1.189995  2.875277
  6  0.000000  0.000000 -0.742911
  6  0.000000 -1.190311 -1.488552
  6  0.000000 -1.189995 -2.875277
  6  0.000000  0.000000 -3.621273
  6  0.000000  1.189995 -2.875277
  6  0.000000  1.190311 -1.488552
  6  0.000000  0.000000 -5.111112
  6  0.000000 -1.197636 -5.847490
  6  0.000000 -1.199101 -7.237838
  6  0.000000  0.000000 -7.945362
  6  0.000000  1.199101 -7.237838
  6  0.000000  1.197636 -5.847490
  1  0.000000  0.000000  9.029385
  1  0.000000  2.144477  7.769332
  1  0.000000  2.152321  5.338587
  1  0.000000 -2.152321  5.338587
  1  0.000000 -2.144477  7.769332
  1  0.000000 -2.148976  3.375536
  1  0.000000 -2.149035  0.986964
  1  0.000000  2.149035  0.986964
  1  0.000000  2.148976  3.375536
  1  0.000000 -2.149035 -0.986964
  1  0.000000 -2.148976 -3.375536
  1  0.000000  2.148976 -3.375536
  1  0.000000  2.149035 -0.986964
  1  0.000000 -2.152321 -5.338587
  1  0.000000 -2.144477 -7.769332
  1  0.000000  0.000000 -9.029385
  1  0.000000  2.144477 -7.769332
  1  0.000000  2.152321 -5.338587
  SCF Done:  E(RB3LYP) =  -925.628633446     A.U. after    1 cycles             
  
          23          40 "  -925.628633446"
After scan for Atom:   Atom  AN      X      Y      Z        X      Y      Z        X      Y      Z   
After scan for Atom:   Atom  AN      X      Y      Z        X      Y      Z        X      Y      Z   
After scan for Atom:   Atom  AN      X      Y      Z        X      Y      Z        X      Y      Z   
After scan for Atom:   Atom  AN      X      Y      Z        X      Y      Z        X      Y      Z   
After scan for Atom:   Atom  AN      X      Y      Z        X      Y      Z        X      Y      Z   
After scan for Atom:   Atom  AN      X      Y      Z        X      Y      Z        X      Y      Z   
After scan for Atom:   Atom  AN      X      Y      Z        X      Y      Z        X      Y      Z   
After scan for Atom:   Atom  AN      X      Y      Z        X      Y      Z        X      Y      Z   
After scan for Atom:   Atom  AN      X      Y      Z        X      Y      Z        X      Y      Z   
After scan for Atom:   Atom  AN      X      Y      Z        X      Y      Z        X      Y      Z   
After scan for Atom:   Atom  AN      X      Y      Z        X      Y      Z        X      Y      Z   
After scan for Atom:   Atom  AN      X      Y      Z        X      Y      Z        X      Y      Z   
After scan for Atom:   Atom  AN      X      Y      Z        X      Y      Z        X      Y      Z   
After scan for Atom:   Atom  AN      X      Y      Z        X      Y      Z        X      Y      Z   
After scan for Atom:   Atom  AN      X      Y      Z        X      Y      Z        X      Y      Z   
After scan for Atom:   Atom  AN      X      Y      Z        X      Y      Z        X      Y      Z   
After scan for Atom:   Atom  AN      X      Y      Z        X      Y      Z        X      Y      Z   
After scan for Atom:   Atom  AN      X      Y      Z        X      Y      Z        X      Y      Z   
After scan for Atom:   Atom  AN      X      Y      Z        X      Y      Z        X      Y      Z   
After scan for Atom:   Atom  AN      X      Y      Z        X      Y      Z        X      Y      Z   
After scan for Atom:   Atom  AN      X      Y      Z        X      Y      Z        X      Y      Z   
After scan for Atom:   Atom  AN      X      Y      Z        X      Y      Z        X      Y      Z   
After scan for Atom:   Atom  AN      X      Y      Z        X      Y      Z        X      Y      Z   
After scan for Atom:   Atom  AN      X      Y      Z        X      Y      Z        X      Y      Z   
After scan for Atom:   Atom  AN      X      Y      Z        X      Y      Z        X      Y      Z   
After scan for Atom:   Atom  AN      X      Y      Z        X      Y      Z        X      Y      Z   
After scan for Atom:   Atom  AN      X      Y      Z        X      Y      Z        X      Y      Z   
After scan for Atom:   Atom  AN      X      Y      Z        X      Y      Z        X      Y      Z   
After scan for Atom:   Atom  AN      X      Y      Z        X      Y      Z        X      Y      Z   
After scan for Atom:   Atom  AN      X      Y      Z        X      Y      Z        X      Y      Z   
After scan for Atom:   Atom  AN      X      Y      Z        X      Y      Z        X      Y      Z   
After scan for Atom:   Atom  AN      X      Y      Z        X      Y      Z        X      Y      Z   
After scan for Atom:   Atom  AN      X      Y      Z        X      Y      Z        X      Y      Z   
After scan for Atom:   Atom  AN      X      Y      Z        X      Y      Z        X      Y      Z   
After scan for Atom:   Atom  AN      X      Y      Z        X      Y      Z        X      Y      Z   
After scan for Atom:   Atom  AN      X      Y      Z        X      Y      Z        X      Y      Z   
After scan for Atom:   Atom  AN      X      Y      Z        X      Y      Z        X      Y      Z   
After scan for Atom:   Atom  AN      X      Y      Z        X      Y      Z        X      Y      Z   
After scan for Atom:   Atom  AN      X      Y      Z        X      Y      Z        X      Y      Z   
After scan for Atom:   Atom  AN      X      Y      Z        X      Y      Z        X      Y      Z   
 g94    frequencies=
     0.0    0.0    0.0    0.0    0.0    0.0 -102.3  -80.9  -43.4   21.1
    58.1   58.9  123.2  142.2  171.6  173.5  230.0  257.4  336.1  344.4
   365.5  381.7  394.6  409.0  416.1  430.8  457.0  476.1  477.3  508.8
   552.6  556.4  626.2  630.5  633.3  653.9  669.4  687.9  692.6  697.4
   726.9  732.1  753.9  772.4  787.8  799.8  805.2  816.4  839.1  842.1
   846.3  859.4  919.1  919.3  938.0  949.2  957.3  960.4  972.7  975.0
   998.1  998.2 1011.3 1014.5 1016.1 1021.4 1022.5 1045.0 1061.0 1065.2
  1065.3 1111.6 1112.1 1155.7 1172.0 1187.3 1189.6 1208.5 1214.6 1241.7
  1250.7 1289.2 1290.1 1295.5 1295.9 1310.6 1311.6 1319.6 1348.2 1357.0
  1366.7 1374.4 1436.1 1444.5 1478.1 1486.8 1518.7 1529.1 1553.3 1574.6
  1584.1 1605.2 1623.0 1624.0 1635.5 1642.2 1650.2 1659.7 3160.1 3160.2
  3168.3 3168.4 3179.4 3180.7 3182.9 3184.8 3187.9 3189.6 3193.7 3196.1
  3201.3 3202.3 3208.4 3210.3 3211.1 3213.9
 g94    symmetries=
                                                AU     B1     AU     B3
      B2     B2     B3     B3     B2     AG     B2     B3     B1     B2
      B3     AU     B1     AU     B1     B2     B3     B3     AG     B2
      B3     B2     B1     B3     B2     B3     B2     AG     B3     B2
      B3     B2     B1     B3     B2     AU     AG     B1     AU     B3
      B1     B2     B3     B2     AU     B2     B1     B3     AU     B1
      B2     B3     B1     AG     B1     AG     B1     AG     B1     AG
      B1     B3     B2     B3     B2     B3     B2     B1     AG     B1
      AG     B1     B2     AG     B3     AG     B2     B3     B3     B2
      B2     B3     B2     B3     B2     B3     B1     AG     B1     AG
      B2     B3     B2     B3     AG     B1     AG     B1     B1     AG
      B3     B2     B1     B3     AG     B1     B2     AG     B3     B1
      B2     AG     B3     B1     B2     AG
 atomic masses:
 12.0000 12.0000 12.0000 12.0000 12.0000 12.0000 12.0000 12.0000 12.0000 12.0000
 12.0000 12.0000 12.0000 12.0000 12.0000 12.0000 12.0000 12.0000 12.0000 12.0000
 12.0000 12.0000 12.0000 12.0000  1.0078  1.0078  1.0078  1.0078  1.0078  1.0078
  1.0078  1.0078  1.0078  1.0078  1.0078  1.0078  1.0078  1.0078  1.0078  1.0078
  1.0078  1.0078
 looking for force constants in 
 ./Non-cov-phenyl-N_0_C0S0.fchk                                                 
  
 Cartesian Force Constants                  R   N=        8001                  
  
 n3=         126        8001
 g94-fc frequencies=
  -102.3  -80.9  -43.4   -1.0   -0.6   -0.0   -0.0    0.0    7.2   21.1
    58.1   58.9  123.2  142.2  171.6  173.5  230.0  257.4  336.1  344.4
   365.5  381.7  394.6  409.0  416.2  430.8  457.0  476.1  477.3  508.8
   552.6  556.4  626.2  630.6  633.3  653.9  669.4  687.9  692.7  697.4
   726.9  732.1  753.9  772.4  787.8  799.9  805.2  816.5  839.1  842.1
   846.3  859.4  919.2  919.3  938.0  949.3  957.4  960.5  972.8  975.1
   998.1  998.2 1011.4 1014.5 1016.2 1021.4 1022.5 1045.0 1061.1 1065.2
  1065.3 1111.7 1112.1 1155.7 1172.0 1187.4 1189.6 1208.6 1214.6 1241.7
  1250.7 1289.2 1290.1 1295.5 1296.0 1310.6 1311.6 1319.7 1348.3 1357.1
  1366.8 1374.5 1436.1 1444.5 1478.2 1486.9 1518.7 1529.1 1553.3 1574.6
  1584.1 1605.2 1623.0 1624.0 1635.5 1642.2 1650.2 1659.7 3160.2 3160.2
  3168.4 3168.4 3179.4 3180.7 3182.9 3184.8 3188.0 3189.6 3193.8 3196.2
  3201.4 3202.4 3208.5 3210.3 3211.2 3214.0
 at 99999: n3=         126
 symm operator            1 :  T  nop=           1
 symm operator            2 :  T  nop=           2
 symm operator            3 :  T  nop=           3
 symm operator            4 :  T  nop=           4
 symm operator            5 :  T  nop=           5
 symm operator            6 :  T  nop=           6
 symm operator            7 :  T  nop=           7
 The point group of the molecule is D2H
 enforcing symm op           1  jsymt=          -1          -1           1
 enforcing symm op           2  jsymt=          -1           1          -1
 enforcing symm op           3  jsymt=           1          -1          -1
 enforcing symm op           4  jsymt=          -1          -1          -1
 enforcing symm op           5  jsymt=           1           1          -1
 enforcing symm op           6  jsymt=           1          -1           1
 enforcing symm op           7  jsymt=          -1           1           1
 cartesian coord symmetries:
 Ag :   21 Au :    8 B1g:    8 B1u:   21 B2g:   13 B2u:   21 B3g:   21 B3u:   13
 Symmetry rotation matrix:
   1.00000   0.00000   0.00000
   0.00000   1.00000   0.00000
   0.00000   0.00000   1.00000

 Projecting out zero-frequency components
 generating redundant internal coords
         300        3600          42
 search for int coords
   1 str   2   1   1.392
   2 str   3   2   1.390
   3 str   4   3   1.406
   4 str   5   4   1.406
   5 str   6   1   1.392
   6 str   6   5   1.390
   7 str   7   4   1.490
   8 str   8   7   1.404
   9 str   9   8   1.387
  10 str  10   9   1.405
  11 str  11  10   1.405
  12 str  12   7   1.404
  13 str  12  11   1.387
  14 str  13  10   1.486
  15 str  14  13   1.405
  16 str  15  14   1.387
  17 str  16  15   1.404
  18 str  17  16   1.404
  19 str  18  13   1.405
  20 str  18  17   1.387
  21 str  19  16   1.490
  22 str  20  19   1.406
  23 str  21  20   1.390
  24 str  22  21   1.392
  25 str  23  22   1.392
  26 str  24  19   1.406
  27 str  24  23   1.390
  28 str  25   1   1.084
  29 str  26   2   1.085
  30 str  27   3   1.082
  31 str  28   5   1.082
  32 str  29   6   1.085
  33 str  30   8   1.082
  34 str  31   9   1.082
  35 str  32  11   1.082
  36 str  33  12   1.082
  37 str  34  14   1.082
  38 str  35  15   1.082
  39 str  36  17   1.082
  40 str  37  18   1.082
  41 str  38  20   1.082
  42 str  39  21   1.085
  43 str  40  22   1.084
  44 str  41  23   1.085
  45 str  42  24   1.082
 nber stretches=          45
  46 ben   1   2   3
  47 prop tor   1   2   3   4
  48 prop tor   1   2   3  27
  49 ben   1   2  26
  50 ben   1   6   5
  51 ben   1   6  29
  52 ben   2   1   6
  53 prop tor   2   1   6   5
  54 prop tor   2   1   6  29
  55 ben   2   1  25
  56 ben   2   3   4
  57 prop tor   2   3   4   5
  58 prop tor   2   3   4   7
  59 ben   2   3  27
  60 ben   3   2  26
  61 ben   3   4   5
  62 prop tor   3   4   5   6
  63 prop tor   3   4   5  28
  64 ben   3   4   7
  65 prop tor   3   4   7   8
  66 prop tor   3   4   7  12
  67 ben   4   3  27
  68 ben   4   5   6
  69 prop tor   4   5   6   1
  70 prop tor   4   5   6  29
  71 ben   4   5  28
  72 ben   4   7   8
  73 prop tor   4   7   8   9
  74 prop tor   4   7   8  30
  75 ben   4   7  12
  76 prop tor   4   7  12  11
  77 prop tor   4   7  12  33
  78 ben   5   4   7
  79 prop tor   5   4   7   8
  80 prop tor   5   4   7  12
  81 ben   5   6  29
  82 prop tor   6   1   2   3
  83 prop tor   6   1   2  26
  84 ben   6   1  25
  85 ben   6   5  28
  86 prop tor   7   4   5   6
  87 prop tor   7   4   5  28
  88 ben   7   8   9
  89 prop tor   7   8   9  10
  90 prop tor   7   8   9  31
  91 ben   7   8  30
  92 ben   7  12  11
  93 ben   7  12  33
  94 ben   8   7  12
  95 prop tor   8   7  12  11
  96 prop tor   8   7  12  33
  97 ben   8   9  10
  98 prop tor   8   9  10  11
  99 prop tor   8   9  10  13
 100 ben   8   9  31
 101 ben   9   8  30
 102 ben   9  10  11
 103 prop tor   9  10  11  12
 104 prop tor   9  10  11  32
 105 ben   9  10  13
 106 prop tor   9  10  13  14
 107 prop tor   9  10  13  18
 108 ben  10   9  31
 109 ben  10  11  12
 110 prop tor  10  11  12   7
 111 prop tor  10  11  12  33
 112 ben  10  11  32
 113 ben  10  13  14
 114 prop tor  10  13  14  15
 115 prop tor  10  13  14  34
 116 ben  10  13  18
 117 prop tor  10  13  18  17
 118 prop tor  10  13  18  37
 119 ben  11  10  13
 120 prop tor  11  10  13  14
 121 prop tor  11  10  13  18
 122 ben  11  12  33
 123 prop tor  12   7   8   9
 124 prop tor  12   7   8  30
 125 ben  12  11  32
 126 prop tor  13  10  11  12
 127 prop tor  13  10  11  32
 128 ben  13  14  15
 129 prop tor  13  14  15  16
 130 prop tor  13  14  15  35
 131 ben  13  14  34
 132 ben  13  18  17
 133 ben  13  18  37
 134 ben  14  13  18
 135 prop tor  14  13  18  17
 136 prop tor  14  13  18  37
 137 ben  14  15  16
 138 prop tor  14  15  16  17
 139 prop tor  14  15  16  19
 140 ben  14  15  35
 141 ben  15  14  34
 142 ben  15  16  17
 143 prop tor  15  16  17  18
 144 prop tor  15  16  17  36
 145 ben  15  16  19
 146 prop tor  15  16  19  20
 147 prop tor  15  16  19  24
 148 ben  16  15  35
 149 ben  16  17  18
 150 prop tor  16  17  18  13
 151 prop tor  16  17  18  37
 152 ben  16  17  36
 153 ben  16  19  20
 154 prop tor  16  19  20  21
 155 prop tor  16  19  20  38
 156 ben  16  19  24
 157 prop tor  16  19  24  23
 158 prop tor  16  19  24  42
 159 ben  17  16  19
 160 prop tor  17  16  19  20
 161 prop tor  17  16  19  24
 162 ben  17  18  37
 163 prop tor  18  13  14  15
 164 prop tor  18  13  14  34
 165 ben  18  17  36
 166 prop tor  19  16  17  18
 167 prop tor  19  16  17  36
 168 ben  19  20  21
 169 prop tor  19  20  21  22
 170 prop tor  19  20  21  39
 171 ben  19  20  38
 172 ben  19  24  23
 173 ben  19  24  42
 174 ben  20  19  24
 175 prop tor  20  19  24  23
 176 prop tor  20  19  24  42
 177 ben  20  21  22
 178 prop tor  20  21  22  23
 179 prop tor  20  21  22  40
 180 ben  20  21  39
 181 ben  21  20  38
 182 ben  21  22  23
 183 prop tor  21  22  23  24
 184 prop tor  21  22  23  41
 185 ben  21  22  40
 186 ben  22  21  39
 187 ben  22  23  24
 188 prop tor  22  23  24  19
 189 prop tor  22  23  24  42
 190 ben  22  23  41
 191 ben  23  22  40
 192 ben  23  24  42
 193 prop tor  24  19  20  21
 194 prop tor  24  19  20  38
 195 ben  24  23  41
 196 prop tor  25   1   2   3
 197 prop tor  25   1   2  26
 198 prop tor  25   1   6   5
 199 prop tor  25   1   6  29
 200 prop tor  26   2   3   4
 201 prop tor  26   2   3  27
 202 prop tor  27   3   4   5
 203 prop tor  27   3   4   7
 204 prop tor  28   5   6   1
 205 prop tor  28   5   6  29
 206 prop tor  30   8   9  10
 207 prop tor  30   8   9  31
 208 prop tor  31   9  10  11
 209 prop tor  31   9  10  13
 210 prop tor  32  11  12   7
 211 prop tor  32  11  12  33
 212 prop tor  34  14  15  16
 213 prop tor  34  14  15  35
 214 prop tor  35  15  16  17
 215 prop tor  35  15  16  19
 216 prop tor  36  17  18  13
 217 prop tor  36  17  18  37
 218 prop tor  38  20  21  22
 219 prop tor  38  20  21  39
 220 prop tor  39  21  22  23
 221 prop tor  39  21  22  40
 222 prop tor  40  22  23  24
 223 prop tor  40  22  23  41
 224 prop tor  41  23  24  19
 225 prop tor  41  23  24  42
 nber bend=              72
 nber lin bend=           0
 nber prop tor=         108
 nber impr tor=           0
 nber tot redund int=         225
 Eigenvalues of G in red int coords
    Gval -0.00000000 -0.00000000 -0.00000000 -0.00000000 -0.00000000 -0.00000000 -0.00000000 -0.00000000
    Gval -0.00000000 -0.00000000 -0.00000000 -0.00000000 -0.00000000 -0.00000000 -0.00000000 -0.00000000
    Gval -0.00000000 -0.00000000 -0.00000000 -0.00000000 -0.00000000 -0.00000000 -0.00000000 -0.00000000
    Gval -0.00000000 -0.00000000 -0.00000000 -0.00000000 -0.00000000 -0.00000000 -0.00000000 -0.00000000
    Gval -0.00000000 -0.00000000 -0.00000000 -0.00000000 -0.00000000 -0.00000000 -0.00000000 -0.00000000
    Gval -0.00000000 -0.00000000 -0.00000000 -0.00000000 -0.00000000 -0.00000000 -0.00000000 -0.00000000
    Gval  0.00000000  0.00000000  0.00000000  0.00000000  0.00000000  0.00000000  0.00000000  0.00000000
    Gval  0.00000000  0.00000000  0.00000000  0.00000000  0.00000000  0.00000000  0.00000000  0.00000000
    Gval  0.00000000  0.00000000  0.00000000  0.00000000  0.00000000  0.00000000  0.00000000  0.00000000
    Gval  0.00000000  0.00000000  0.00000000  0.00000000  0.00000000  0.00000000  0.00000000  0.00000000
    Gval  0.00000000  0.00000000  0.00000000  0.00000000  0.00000000  0.00000000  0.00000000  0.00000000
    Gval  0.00000000  0.00000000  0.00000000  0.00000000  0.00000000  0.00000000  0.00000000  0.00000000
    Gval  0.00000000  0.00000000  0.00000000  0.00000000  0.00000000  0.00000000  0.00000000  0.00000000
    Gval  0.00000000  0.00000048  0.00000196  0.00000206  0.00000292  0.00000775  0.00000842  0.00001254
    Gval  0.00001476  0.00001535  0.00002033  0.00002812  0.00003021  0.00004281  0.00004524  0.00004591
    Gval  0.00004949  0.00005083  0.00005794  0.00005794  0.00005926  0.00005967  0.00005978  0.00006741
    Gval  0.00006987  0.00007808  0.00008264  0.00009334  0.00009894  0.00010606  0.00011693  0.00011720
    Gval  0.00011791  0.00011802  0.00012101  0.00012278  0.00012800  0.00013385  0.00016967  0.00021570
    Gval  0.00024288  0.00025879  0.00026028  0.00026436  0.00028229  0.00028806  0.00030318  0.00035850
    Gval  0.00036512  0.00038165  0.00039243  0.00039502  0.00040415  0.00041644  0.00043284  0.00053101
    Gval  0.00054134  0.00059175  0.00059308  0.00059308  0.00059342  0.00059344  0.00059648  0.00059838
    Gval  0.00059969  0.00059983  0.00060406  0.00060406  0.00062262  0.00062264  0.00062392  0.00063248
    Gval  0.00063546  0.00064429  0.00064904  0.00065132  0.00066107  0.00066109  0.00076072  0.00093187
    Gval  0.00104120  0.00104121  0.00106889  0.00107842  0.00108199  0.00110940  0.00111024  0.00111141
    Gval  0.00111248  0.00113882  0.00113883  0.00115085  0.00115151  0.00116809  0.00116894  0.00116995
    Gval  0.00117009  0.00117278  0.00117278  0.00142961  0.00143175  0.00155936  0.00166037  0.00184526
    Gval  0.00199633  0.00234484  0.00234884  0.00235923  0.00236974  0.00242309  0.00267183  0.00313595
    Gval  0.00314797  0.00356114  0.00363929  0.00366454  0.00367764  0.00370778  0.00370825  0.00406598
    Gval  0.00406600
  4.791626447113471E-007  4.791626447113471E-007
  1.961317139362100E-006  4.791626447113471E-007
  2.057105964450408E-006  4.791626447113471E-007
  2.919011800061494E-006  4.791626447113471E-007
  7.751172932192643E-006  4.791626447113471E-007
  8.418690392033950E-006  4.791626447113471E-007
  1.253743264298929E-005  4.791626447113471E-007
  1.476423846241041E-005  4.791626447113471E-007
  1.534821857237923E-005  4.791626447113471E-007
  2.033480099127958E-005  4.791626447113471E-007
  2.812440463926613E-005  4.791626447113471E-007
  3.021198438758575E-005  4.791626447113471E-007
  4.280585718851131E-005  4.791626447113471E-007
  4.524097301036714E-005  4.791626447113471E-007
  4.590670714264879E-005  4.791626447113471E-007
  4.948543417288655E-005  4.791626447113471E-007
  5.082577229438061E-005  4.791626447113471E-007
  5.793913654456697E-005  4.791626447113471E-007
  5.794384180737395E-005  4.791626447113471E-007
  5.926126842293528E-005  4.791626447113471E-007
  5.966523414386922E-005  4.791626447113471E-007
  5.978402216732064E-005  4.791626447113471E-007
  6.740857770537277E-005  4.791626447113471E-007
  6.986955257304875E-005  4.791626447113471E-007
  7.808209751723954E-005  4.791626447113471E-007
  8.264135044476183E-005  4.791626447113471E-007
  9.334142640068779E-005  4.791626447113471E-007
  9.894152865747449E-005  4.791626447113471E-007
  1.060645334652674E-004  4.791626447113471E-007
  1.169330665217542E-004  4.791626447113471E-007
  1.171967588363903E-004  4.791626447113471E-007
  1.179126886863487E-004  4.791626447113471E-007
  1.180190715028022E-004  4.791626447113471E-007
  1.210063240029218E-004  4.791626447113471E-007
  1.227804908286898E-004  4.791626447113471E-007
  1.280029783933070E-004  4.791626447113471E-007
  1.338533906119170E-004  4.791626447113471E-007
  1.696716770549584E-004  4.791626447113471E-007
  2.156960120497900E-004  4.791626447113471E-007
  2.428818844547457E-004  4.791626447113471E-007
  2.587922186314409E-004  4.791626447113471E-007
  2.602830733815216E-004  4.791626447113471E-007
  2.643593419498108E-004  4.791626447113471E-007
  2.822892000458226E-004  4.791626447113471E-007
  2.880551947612051E-004  4.791626447113471E-007
  3.031762303659071E-004  4.791626447113471E-007
  3.584953045641309E-004  4.791626447113471E-007
  3.651175416234732E-004  4.791626447113471E-007
  3.816462652097783E-004  4.791626447113471E-007
  3.924308010808248E-004  4.791626447113471E-007
  3.950158910628091E-004  4.791626447113471E-007
  4.041458373580790E-004  4.791626447113471E-007
  4.164441053298642E-004  4.791626447113471E-007
  4.328419306254255E-004  4.791626447113471E-007
  5.310072804619872E-004  4.791626447113471E-007
  5.413434597608430E-004  4.791626447113471E-007
  5.917543972044022E-004  4.791626447113471E-007
  5.930750263709357E-004  4.791626447113471E-007
  5.930750265296786E-004  4.791626447113471E-007
  5.934181355005438E-004  4.791626447113471E-007
  5.934361227598271E-004  4.791626447113471E-007
  5.964830511518206E-004  4.791626447113471E-007
  5.983829087668905E-004  4.791626447113471E-007
  5.996861115086223E-004  4.791626447113471E-007
  5.998280683981909E-004  4.791626447113471E-007
  6.040567637250391E-004  4.791626447113471E-007
  6.040573335740431E-004  4.791626447113471E-007
  6.226204788751549E-004  4.791626447113471E-007
  6.226357870619833E-004  4.791626447113471E-007
  6.239175091121750E-004  4.791626447113471E-007
  6.324781491351349E-004  4.791626447113471E-007
  6.354563528520171E-004  4.791626447113471E-007
  6.442908909408412E-004  4.791626447113471E-007
  6.490419123521853E-004  4.791626447113471E-007
  6.513154875518790E-004  4.791626447113471E-007
  6.610669614600844E-004  4.791626447113471E-007
  6.610898085620959E-004  4.791626447113471E-007
  7.607198543789727E-004  4.791626447113471E-007
  9.318693082356116E-004  4.791626447113471E-007
  1.041198742997484E-003  4.791626447113471E-007
  1.041206203635498E-003  4.791626447113471E-007
  1.068892999034312E-003  4.791626447113471E-007
  1.078419166537604E-003  4.791626447113471E-007
  1.081990397668414E-003  4.791626447113471E-007
  1.109397182380358E-003  4.791626447113471E-007
  1.110239496881199E-003  4.791626447113471E-007
  1.111411353428543E-003  4.791626447113471E-007
  1.112478685889405E-003  4.791626447113471E-007
  1.138823602599198E-003  4.791626447113471E-007
  1.138827879452127E-003  4.791626447113471E-007
  1.150850268061720E-003  4.791626447113471E-007
  1.151513936937092E-003  4.791626447113471E-007
  1.168093356773062E-003  4.791626447113471E-007
  1.168944551953167E-003  4.791626447113471E-007
  1.169947880475850E-003  4.791626447113471E-007
  1.170089527169738E-003  4.791626447113471E-007
  1.172775609751932E-003  4.791626447113471E-007
  1.172775609761739E-003  4.791626447113471E-007
  1.429613377470758E-003  4.791626447113471E-007
  1.431753555825925E-003  4.791626447113471E-007
  1.559358024981409E-003  4.791626447113471E-007
  1.660372365521125E-003  4.791626447113471E-007
  1.845264700257174E-003  4.791626447113471E-007
  1.996327202789030E-003  4.791626447113471E-007
  2.344839719020097E-003  4.791626447113471E-007
  2.348838129205672E-003  4.791626447113471E-007
  2.359232778864990E-003  4.791626447113471E-007
  2.369736717348311E-003  4.791626447113471E-007
  2.423090055767042E-003  4.791626447113471E-007
  2.671833765789618E-003  4.791626447113471E-007
  3.135954962112401E-003  4.791626447113471E-007
  3.147970992652494E-003  4.791626447113471E-007
  3.561140362010288E-003  4.791626447113471E-007
  3.639287009405440E-003  4.791626447113471E-007
  3.664543679459504E-003  4.791626447113471E-007
  3.677639606011270E-003  4.791626447113471E-007
  3.707779883567439E-003  4.791626447113471E-007
  3.708248756242799E-003  4.791626447113471E-007
  4.065984683247157E-003  4.791626447113471E-007
  4.066001391693126E-003  4.791626447113471E-007
 cut=1d-8, nber non-redundant internal coords=         120
 Check on Eigenvals of non-red overlap matrix:
  0.00000048  0.00000196  0.00000206  0.00000292  0.00000775  0.00000842  0.00001254  0.00001476
  0.00001535  0.00002033  0.00002812  0.00003021  0.00004281  0.00004524  0.00004591  0.00004949
  0.00005083  0.00005794  0.00005794  0.00005926  0.00005967  0.00005978  0.00006741  0.00006987
  0.00007808  0.00008264  0.00009334  0.00009894  0.00010606  0.00011693  0.00011720  0.00011791
  0.00011802  0.00012101  0.00012278  0.00012800  0.00013385  0.00016967  0.00021570  0.00024288
  0.00025879  0.00026028  0.00026436  0.00028229  0.00028806  0.00030318  0.00035850  0.00036512
  0.00038165  0.00039243  0.00039502  0.00040415  0.00041644  0.00043284  0.00053101  0.00054134
  0.00059175  0.00059308  0.00059308  0.00059342  0.00059344  0.00059648  0.00059838  0.00059969
  0.00059983  0.00060406  0.00060406  0.00062262  0.00062264  0.00062392  0.00063248  0.00063546
  0.00064429  0.00064904  0.00065132  0.00066107  0.00066109  0.00076072  0.00093187  0.00104120
  0.00104121  0.00106889  0.00107842  0.00108199  0.00110940  0.00111024  0.00111141  0.00111248
  0.00113882  0.00113883  0.00115085  0.00115151  0.00116809  0.00116894  0.00116995  0.00117009
  0.00117278  0.00117278  0.00142961  0.00143175  0.00155936  0.00166037  0.00184526  0.00199633
  0.00234484  0.00234884  0.00235923  0.00236974  0.00242309  0.00267183  0.00313595  0.00314797
  0.00356114  0.00363929  0.00366454  0.00367764  0.00370778  0.00370825  0.00406598  0.00406600
 Checking for correct frequencies
 recalc frequencies=
  -102.3  -80.9  -43.4   -0.0   -0.0   -0.0   -0.0    0.0    0.0   21.1
    58.1   58.9  123.2  142.2  171.6  173.5  230.0  257.4  336.1  344.4
   365.5  381.7  394.6  409.0  416.2  430.8  457.0  476.1  477.3  508.8
   552.6  556.4  626.2  630.6  633.3  653.9  669.4  687.9  692.7  697.4
   726.9  732.1  753.9  772.4  787.8  799.9  805.2  816.5  839.1  842.1
   846.3  859.4  919.2  919.3  938.0  949.3  957.4  960.5  972.8  975.1
   998.1  998.2 1011.4 1014.5 1016.2 1021.4 1022.5 1045.0 1061.1 1065.2
  1065.3 1111.7 1112.1 1155.7 1172.0 1187.4 1189.6 1208.6 1214.6 1241.7
  1250.7 1289.2 1290.1 1295.5 1296.0 1310.6 1311.6 1319.7 1348.3 1357.1
  1366.8 1374.5 1436.1 1444.5 1478.2 1486.9 1518.7 1529.1 1553.3 1574.6
  1584.1 1605.2 1623.0 1624.0 1635.5 1642.2 1650.2 1659.7 3160.2 3160.2
  3168.4 3168.4 3179.4 3180.7 3182.9 3184.8 3188.0 3189.6 3193.8 3196.2
  3201.4 3202.4 3208.5 3210.3 3211.2 3214.0
 recalc symmetries=
     Au     B1g    Au     B2u    B3g    B3u    B1g    B2g    B1u    B3u
     B2u    B2g    B3u    B3g    B2g    Ag     B2u    B3u    B1u    B2g
     B3g    Au     B1g    Au     B1g    B2u    B3u    B3g    Ag     B2g
     B3u    B2g    B1u    B3g    B2u    B3g    B2u    Ag     B3u    B2g
     B3u    B2g    B1u    B3u    B2g    Au     Ag     B1g    Au     B3u
     B1g    B2g    B3u    B2g    Au     B2g    B1g    B3u    Au     B1g
     B2g    B3u    B1u    Ag     B1u    Ag     B1u    Ag     B1u    Ag 
     B1u    B3g    B2u    B3g    B2u    B3g    B2u    B1u    Ag     B1u
     Ag     B1u    B2u    Ag     B3g    Ag     B2u    B3g    B3g    B2u
     B2u    B3g    B2u    B3g    B2u    B3g    B1u    Ag     B1u    Ag 
     B2u    B3g    B2u    B3g    Ag     B1u    Ag     B1u    B1u    Ag 
     B3g    B2u    B1u    B3g    Ag     B1u    B2u    Ag     B3g    B1u
     B2u    Ag     B3g    B1u    B2u    Ag 
 recalc freqs check OK
 Zero-point lengths:
 24.5069 27.5582 37.6348 10.0000 10.0000 10.0000 10.0000 10.0000 10.0000 53.9204
 32.5104 32.3133 22.3317 20.7880 18.9231 18.8216 16.3460 15.4525 13.5217 13.3587
 12.9668 12.6885 12.4803 12.2588 12.1526 11.9441 11.5965 11.3622 11.3477 10.9910
 10.5457 10.5102  9.9071  9.8726  9.8514  9.6946  9.5816  9.4520  9.4196  9.3876
  9.1951  9.1625  9.0288  8.9201  8.8323  8.7658  8.7366  8.6761  8.5584  8.5429
  8.5219  8.4565  8.1771  8.1765  8.0945  8.0464  8.0123  7.9994  7.9486  7.9392
  7.8471  7.8468  7.7955  7.7832  7.7770  7.7570  7.7529  7.6689  7.6107  7.5958
  7.5956  7.4355  7.4339  7.2925  7.2416  7.1946  7.1878  7.1312  7.1133  7.0353
  7.0100  6.9046  6.9021  6.8877  6.8865  6.8480  6.8454  6.8244  6.7517  6.7297
  6.7058  6.6870  6.5419  6.5227  6.4482  6.4293  6.3614  6.3398  6.2903  6.2475
  6.2287  6.1876  6.1537  6.1518  6.1301  6.1176  6.1028  6.0853  4.4100  4.4100
  4.4043  4.4043  4.3966  4.3957  4.3942  4.3929  4.3908  4.3896  4.3867  4.3851
  4.3815  4.3808  4.3767  4.3754  4.3748  4.3729
 highest evec of mol 1
  0.0000  0.0000 -0.0077
  0.0000 -0.0133 -0.0089
  0.0000 -0.0513  0.0275
  0.0000  0.0000  0.0019
  0.0000  0.0513  0.0275
  0.0000  0.0133 -0.0089
  0.0000  0.0000 -0.0043
  0.0000  0.0827 -0.0452
  0.0000  0.0800  0.0440
  0.0000  0.0000  0.0040
  0.0000 -0.0800  0.0440
  0.0000 -0.0827 -0.0452
  0.0000  0.0000 -0.0040
  0.0000  0.0800 -0.0440
  0.0000  0.0827  0.0452
  0.0000  0.0000  0.0043
  0.0000 -0.0827  0.0452
  0.0000 -0.0800 -0.0440
  0.0000  0.0000 -0.0019
  0.0000  0.0513 -0.0275
  0.0000  0.0133  0.0089
  0.0000  0.0000  0.0077
  0.0000 -0.0133  0.0089
  0.0000 -0.0513 -0.0275
  0.0000  0.0000  0.0227
  0.0000  0.0420  0.0242
  0.0000  0.1717 -0.0953
  0.0000 -0.1717 -0.0953
  0.0000 -0.0420  0.0242
  0.0000 -0.2740  0.1481
  0.0000 -0.2651 -0.1439
  0.0000  0.2651 -0.1439
  0.0000  0.2740  0.1481
  0.0000 -0.2651  0.1439
  0.0000 -0.2740 -0.1481
  0.0000  0.2740 -0.1481
  0.0000  0.2651  0.1439
  0.0000 -0.1717  0.0953
  0.0000 -0.0420 -0.0242
  0.0000  0.0000 -0.0227
  0.0000  0.0420 -0.0242
  0.0000  0.1717  0.0953
 generating redundant internal coords
         300        3600          42
 Adding extra bonds for z output only
           6           6           6           6           6           6
           6           6           6           6           6           6
           6           6           6           6           6           6
           6           6           6           6           6           6
           1           1           1           1           1           1
           1           1           1           1           1           1
           1           1           1           1           1           1
 search for int coords
   1 str   2   1   1.392
   2 str   3   2   1.390
   3 str   4   3   1.406
   4 str   5   4   1.406
   5 str   6   1   1.392
   6 str   6   5   1.390
   7 str   7   4   1.490
   8 str   8   7   1.404
   9 str   9   8   1.387
  10 str  10   9   1.405
  11 str  11  10   1.405
  12 str  12   7   1.404
  13 str  12  11   1.387
  14 str  13  10   1.486
  15 str  14  13   1.405
  16 str  15  14   1.387
  17 str  16  15   1.404
  18 str  17  16   1.404
  19 str  18  13   1.405
  20 str  18  17   1.387
  21 str  19  16   1.490
  22 str  20  19   1.406
  23 str  21  20   1.390
  24 str  22  21   1.392
  25 str  23  22   1.392
  26 str  24  19   1.406
  27 str  24  23   1.390
  28 str  25   1   1.084
  29 str  26   2   1.085
  30 str  27   3   1.082
  31 str  28   5   1.082
  32 str  29   6   1.085
  33 str  30   8   1.082
  34 str  31   9   1.082
  35 str  32  11   1.082
  36 str  33  12   1.082
  37 str  34  14   1.082
  38 str  35  15   1.082
  39 str  36  17   1.082
  40 str  37  18   1.082
  41 str  38  20   1.082
  42 str  39  21   1.085
  43 str  40  22   1.084
  44 str  41  23   1.085
  45 str  42  24   1.082
 nber stretches=          45
  46 ben   1   2   3
  47 prop tor   1   2   3   4
  48 prop tor   1   2   3  27
  49 ben   1   2  26
  50 ben   1   6   5
  51 ben   1   6  29
  52 ben   2   1   6
  53 prop tor   2   1   6   5
  54 prop tor   2   1   6  29
  55 ben   2   1  25
  56 ben   2   3   4
  57 prop tor   2   3   4   5
  58 prop tor   2   3   4   7
  59 ben   2   3  27
  60 ben   3   2  26
  61 ben   3   4   5
  62 prop tor   3   4   5   6
  63 prop tor   3   4   5  28
  64 ben   3   4   7
  65 prop tor   3   4   7   8
  66 prop tor   3   4   7  12
  67 ben   4   3  27
  68 ben   4   5   6
  69 prop tor   4   5   6   1
  70 prop tor   4   5   6  29
  71 ben   4   5  28
  72 ben   4   7   8
  73 prop tor   4   7   8   9
  74 prop tor   4   7   8  30
  75 ben   4   7  12
  76 prop tor   4   7  12  11
  77 prop tor   4   7  12  33
  78 ben   5   4   7
  79 prop tor   5   4   7   8
  80 prop tor   5   4   7  12
  81 ben   5   6  29
  82 prop tor   6   1   2   3
  83 prop tor   6   1   2  26
  84 ben   6   1  25
  85 ben   6   5  28
  86 prop tor   7   4   5   6
  87 prop tor   7   4   5  28
  88 ben   7   8   9
  89 prop tor   7   8   9  10
  90 prop tor   7   8   9  31
  91 ben   7   8  30
  92 ben   7  12  11
  93 ben   7  12  33
  94 ben   8   7  12
  95 prop tor   8   7  12  11
  96 prop tor   8   7  12  33
  97 ben   8   9  10
  98 prop tor   8   9  10  11
  99 prop tor   8   9  10  13
 100 ben   8   9  31
 101 ben   9   8  30
 102 ben   9  10  11
 103 prop tor   9  10  11  12
 104 prop tor   9  10  11  32
 105 ben   9  10  13
 106 prop tor   9  10  13  14
 107 prop tor   9  10  13  18
 108 ben  10   9  31
 109 ben  10  11  12
 110 prop tor  10  11  12   7
 111 prop tor  10  11  12  33
 112 ben  10  11  32
 113 ben  10  13  14
 114 prop tor  10  13  14  15
 115 prop tor  10  13  14  34
 116 ben  10  13  18
 117 prop tor  10  13  18  17
 118 prop tor  10  13  18  37
 119 ben  11  10  13
 120 prop tor  11  10  13  14
 121 prop tor  11  10  13  18
 122 ben  11  12  33
 123 prop tor  12   7   8   9
 124 prop tor  12   7   8  30
 125 ben  12  11  32
 126 prop tor  13  10  11  12
 127 prop tor  13  10  11  32
 128 ben  13  14  15
 129 prop tor  13  14  15  16
 130 prop tor  13  14  15  35
 131 ben  13  14  34
 132 ben  13  18  17
 133 ben  13  18  37
 134 ben  14  13  18
 135 prop tor  14  13  18  17
 136 prop tor  14  13  18  37
 137 ben  14  15  16
 138 prop tor  14  15  16  17
 139 prop tor  14  15  16  19
 140 ben  14  15  35
 141 ben  15  14  34
 142 ben  15  16  17
 143 prop tor  15  16  17  18
 144 prop tor  15  16  17  36
 145 ben  15  16  19
 146 prop tor  15  16  19  20
 147 prop tor  15  16  19  24
 148 ben  16  15  35
 149 ben  16  17  18
 150 prop tor  16  17  18  13
 151 prop tor  16  17  18  37
 152 ben  16  17  36
 153 ben  16  19  20
 154 prop tor  16  19  20  21
 155 prop tor  16  19  20  38
 156 ben  16  19  24
 157 prop tor  16  19  24  23
 158 prop tor  16  19  24  42
 159 ben  17  16  19
 160 prop tor  17  16  19  20
 161 prop tor  17  16  19  24
 162 ben  17  18  37
 163 prop tor  18  13  14  15
 164 prop tor  18  13  14  34
 165 ben  18  17  36
 166 prop tor  19  16  17  18
 167 prop tor  19  16  17  36
 168 ben  19  20  21
 169 prop tor  19  20  21  22
 170 prop tor  19  20  21  39
 171 ben  19  20  38
 172 ben  19  24  23
 173 ben  19  24  42
 174 ben  20  19  24
 175 prop tor  20  19  24  23
 176 prop tor  20  19  24  42
 177 ben  20  21  22
 178 prop tor  20  21  22  23
 179 prop tor  20  21  22  40
 180 ben  20  21  39
 181 ben  21  20  38
 182 ben  21  22  23
 183 prop tor  21  22  23  24
 184 prop tor  21  22  23  41
 185 ben  21  22  40
 186 ben  22  21  39
 187 ben  22  23  24
 188 prop tor  22  23  24  19
 189 prop tor  22  23  24  42
 190 ben  22  23  41
 191 ben  23  22  40
 192 ben  23  24  42
 193 prop tor  24  19  20  21
 194 prop tor  24  19  20  38
 195 ben  24  23  41
 196 prop tor  25   1   2   3
 197 prop tor  25   1   2  26
 198 prop tor  25   1   6   5
 199 prop tor  25   1   6  29
 200 prop tor  26   2   3   4
 201 prop tor  26   2   3  27
 202 prop tor  27   3   4   5
 203 prop tor  27   3   4   7
 204 prop tor  28   5   6   1
 205 prop tor  28   5   6  29
 206 prop tor  30   8   9  10
 207 prop tor  30   8   9  31
 208 prop tor  31   9  10  11
 209 prop tor  31   9  10  13
 210 prop tor  32  11  12   7
 211 prop tor  32  11  12  33
 212 prop tor  34  14  15  16
 213 prop tor  34  14  15  35
 214 prop tor  35  15  16  17
 215 prop tor  35  15  16  19
 216 prop tor  36  17  18  13
 217 prop tor  36  17  18  37
 218 prop tor  38  20  21  22
 219 prop tor  38  20  21  39
 220 prop tor  39  21  22  23
 221 prop tor  39  21  22  40
 222 prop tor  40  22  23  24
 223 prop tor  40  22  23  41
 224 prop tor  41  23  24  19
 225 prop tor  41  23  24  42
 nber bend=              72
 nber lin bend=           0
 nber prop tor=         108
 nber impr tor=           0
 nber tot redund int=         225
 Reading file: 
 ./Non-cov-phenyl-N_0_C0S1.log                                                  
                                          
  Entering Gaussian System, Link 0=g16                                          
  
 Gaussian format, type: g94, g98, g03= F F F
  #P Geom=AllCheck Guess=TCheck SCRF=Check GenChk RB3LYP TD(FC,Read)/6-3    
 energy type= TD      
 Original G94 input coords:
  6  7.879112  0.000000  0.000000
  6  7.175660 -1.204381  0.000000
  6  5.789439 -1.207549  0.000000
  6  5.054350  0.000000  0.000000
  6  5.789439  1.207549  0.000000
  6  7.175660  1.204381  0.000000
  6  3.586898  0.000000  0.000000
  6  2.839767  1.205605  0.000000
  6  1.467672  1.211344  0.000000
  6  0.721687  0.000000  0.000000
  6  1.467672 -1.211344  0.000000
  6  2.839767 -1.205605  0.000000
  6 -0.721687  0.000000  0.000000
  6 -1.467672  1.211344  0.000000
  6 -2.839767  1.205605  0.000000
  6 -3.586898  0.000000  0.000000
  6 -2.839767 -1.205605  0.000000
  6 -1.467672 -1.211344  0.000000
  6 -5.054350  0.000000  0.000000
  6 -5.789439  1.207549  0.000000
  6 -7.175660  1.204381  0.000000
  6 -7.879112  0.000000  0.000000
  6 -7.175660 -1.204381  0.000000
  6 -5.789439 -1.207549  0.000000
  1  8.964207  0.000000  0.000000
  1  7.710936 -2.147947  0.000000
  1  5.276891 -2.163547  0.000000
  1  5.276891  2.163547  0.000000
  1  7.710936  2.147947  0.000000
  1  3.332395  2.179255  0.000000
  1  0.972577  2.193123  0.000000
  1  0.972577 -2.193123  0.000000
  1  3.332395 -2.179255  0.000000
  1 -0.972577  2.193123  0.000000
  1 -3.332395  2.179255  0.000000
  1 -3.332395 -2.179255  0.000000
  1 -0.972577 -2.193123  0.000000
  1 -5.276891  2.163547  0.000000
  1 -7.710936  2.147947  0.000000
  1 -8.964207  0.000000  0.000000
  1 -7.710936 -2.147947  0.000000
  1 -5.276891 -2.163547  0.000000
 nber atoms=          42
 Original standard coords:
  6  0.000000  0.000000  7.879112
  6  0.000000  1.204381  7.175660
  6  0.000000  1.207549  5.789439
  6  0.000000  0.000000  5.054350
  6  0.000000 -1.207549  5.789439
  6  0.000000 -1.204381  7.175660
  6  0.000000  0.000000  3.586898
  6  0.000000 -1.205605  2.839767
  6  0.000000 -1.211344  1.467672
  6  0.000000  0.000000  0.721687
  6  0.000000  1.211344  1.467672
  6  0.000000  1.205605  2.839767
  6  0.000000  0.000000 -0.721687
  6  0.000000 -1.211344 -1.467672
  6  0.000000 -1.205605 -2.839767
  6  0.000000  0.000000 -3.586898
  6  0.000000  1.205605 -2.839767
  6  0.000000  1.211344 -1.467672
  6  0.000000  0.000000 -5.054350
  6  0.000000 -1.207549 -5.789439
  6  0.000000 -1.204381 -7.175660
  6  0.000000  0.000000 -7.879112
  6  0.000000  1.204381 -7.175660
  6  0.000000  1.207549 -5.789439
  1  0.000000  0.000000  8.964207
  1  0.000000  2.147947  7.710936
  1  0.000000  2.163547  5.276891
  1  0.000000 -2.163547  5.276891
  1  0.000000 -2.147947  7.710936
  1  0.000000 -2.179255  3.332395
  1  0.000000 -2.193123  0.972577
  1  0.000000  2.193123  0.972577
  1  0.000000  2.179255  3.332395
  1  0.000000 -2.193123 -0.972577
  1  0.000000 -2.179255 -3.332395
  1  0.000000  2.179255 -3.332395
  1  0.000000  2.193123 -0.972577
  1  0.000000 -2.163547 -5.276891
  1  0.000000 -2.147947 -7.710936
  1  0.000000  0.000000 -8.964207
  1  0.000000  2.147947 -7.710936
  1  0.000000  2.163547 -5.276891
  Total Energy, E(TD-HF/TD-DFT) =  -925.412908591                               
  
          32          49 "  -925.412908591"
After scan for Atom:   Atom  AN      X      Y      Z        X      Y      Z        X      Y      Z   
After scan for Atom:   Atom  AN      X      Y      Z        X      Y      Z        X      Y      Z   
After scan for Atom:   Atom  AN      X      Y      Z        X      Y      Z        X      Y      Z   
After scan for Atom:   Atom  AN      X      Y      Z        X      Y      Z        X      Y      Z   
After scan for Atom:   Atom  AN      X      Y      Z        X      Y      Z        X      Y      Z   
After scan for Atom:   Atom  AN      X      Y      Z        X      Y      Z        X      Y      Z   
After scan for Atom:   Atom  AN      X      Y      Z        X      Y      Z        X      Y      Z   
After scan for Atom:   Atom  AN      X      Y      Z        X      Y      Z        X      Y      Z   
After scan for Atom:   Atom  AN      X      Y      Z        X      Y      Z        X      Y      Z   
After scan for Atom:   Atom  AN      X      Y      Z        X      Y      Z        X      Y      Z   
After scan for Atom:   Atom  AN      X      Y      Z        X      Y      Z        X      Y      Z   
After scan for Atom:   Atom  AN      X      Y      Z        X      Y      Z        X      Y      Z   
After scan for Atom:   Atom  AN      X      Y      Z        X      Y      Z        X      Y      Z   
After scan for Atom:   Atom  AN      X      Y      Z        X      Y      Z        X      Y      Z   
After scan for Atom:   Atom  AN      X      Y      Z        X      Y      Z        X      Y      Z   
After scan for Atom:   Atom  AN      X      Y      Z        X      Y      Z        X      Y      Z   
After scan for Atom:   Atom  AN      X      Y      Z        X      Y      Z        X      Y      Z   
After scan for Atom:   Atom  AN      X      Y      Z        X      Y      Z        X      Y      Z   
After scan for Atom:   Atom  AN      X      Y      Z        X      Y      Z        X      Y      Z   
After scan for Atom:   Atom  AN      X      Y      Z        X      Y      Z        X      Y      Z   
After scan for Atom:   Atom  AN      X      Y      Z        X      Y      Z        X      Y      Z   
After scan for Atom:   Atom  AN      X      Y      Z        X      Y      Z        X      Y      Z   
After scan for Atom:   Atom  AN      X      Y      Z        X      Y      Z        X      Y      Z   
After scan for Atom:   Atom  AN      X      Y      Z        X      Y      Z        X      Y      Z   
After scan for Atom:   Atom  AN      X      Y      Z        X      Y      Z        X      Y      Z   
After scan for Atom:   Atom  AN      X      Y      Z        X      Y      Z        X      Y      Z   
After scan for Atom:   Atom  AN      X      Y      Z        X      Y      Z        X      Y      Z   
After scan for Atom:   Atom  AN      X      Y      Z        X      Y      Z        X      Y      Z   
After scan for Atom:   Atom  AN      X      Y      Z        X      Y      Z        X      Y      Z   
After scan for Atom:   Atom  AN      X      Y      Z        X      Y      Z        X      Y      Z   
After scan for Atom:   Atom  AN      X      Y      Z        X      Y      Z        X      Y      Z   
After scan for Atom:   Atom  AN      X      Y      Z        X      Y      Z        X      Y      Z   
After scan for Atom:   Atom  AN      X      Y      Z        X      Y      Z        X      Y      Z   
After scan for Atom:   Atom  AN      X      Y      Z        X      Y      Z        X      Y      Z   
After scan for Atom:   Atom  AN      X      Y      Z        X      Y      Z        X      Y      Z   
After scan for Atom:   Atom  AN      X      Y      Z        X      Y      Z        X      Y      Z   
After scan for Atom:   Atom  AN      X      Y      Z        X      Y      Z        X      Y      Z   
After scan for Atom:   Atom  AN      X      Y      Z        X      Y      Z        X      Y      Z   
After scan for Atom:   Atom  AN      X      Y      Z        X      Y      Z        X      Y      Z   
After scan for Atom:   Atom  AN      X      Y      Z        X      Y      Z        X      Y      Z   
 g94    frequencies=
     0.0    0.0    0.0    0.0    0.0    0.0  -42.4  -31.3   19.7   47.3
    56.5   58.6  115.3  144.8  149.2  173.7  230.6  251.8  306.3  326.1
   373.2  390.2  397.1  403.0  404.9  434.4  461.7  471.8  490.0  493.5
   543.8  582.9  614.7  617.7  619.0  635.5  644.9  684.6  685.0  688.2
   726.6  738.3  743.8  778.1  791.3  800.8  808.7  830.4  841.4  845.4
   852.6  873.5  888.8  945.6  948.7  964.1  980.0  991.8  992.1  996.1
  1004.9 1010.3 1011.0 1011.8 1027.3 1032.6 1032.7 1034.8 1052.6 1053.0
  1055.0 1076.4 1107.9 1111.8 1140.0 1141.2 1185.3 1185.4 1198.5 1205.2
  1258.1 1275.1 1294.6 1295.9 1296.0 1324.2 1338.7 1345.8 1346.0 1360.7
  1369.3 1374.1 1455.7 1462.4 1472.9 1488.6 1490.9 1521.0 1529.6 1529.8
  1531.0 1554.3 1590.0 1600.1 1600.7 1627.3 1634.3 1637.3 2570.0 2636.3
  2770.8 2881.7 2928.0 3019.6 3023.6 3032.6 3090.9 3127.3 3135.8 3135.8
  3153.9 3154.9 3161.9 3163.8 3164.2 3164.2
 g94    symmetries=
                                                B1     AU     B3     B2
      B2     AU     B3     B3     B2     AG     B2     B3     B1     B2
      B3     B1     AU     B1     AU     B2     B3     AG     B3     B2
      B2     B3     B3     B3     B3     B3     B2     ?A     B2     ?A
      ?B     ?B     B2     B3     AG     B2     B1     AU     B1     AU
      ?B     B2     ?B     B2     B3     AG     B1     B1     AU     B1
      AG     B2     B3     B2     ?C     ?C     ?C     ?C     ?C     ?C
      AG     B1     B2     B3     ?D     ?D     ?D     ?D     AG     B1
      AG     B2     B3     ?E     ?E     AG     B3     ?D     ?D     AG
      B2     B3     B2     B3     B2     B3     B1     AG     ?F     ?F
      ?F     AG     B1     ?D     ?D     AG     B1     AG     B2     B1
      AG     B3     B1     B2     B3     AG     B1     AG     ?D     ?D
      B1     AG     B1     AG     ?D     ?D
 atomic masses:
 12.0000 12.0000 12.0000 12.0000 12.0000 12.0000 12.0000 12.0000 12.0000 12.0000
 12.0000 12.0000 12.0000 12.0000 12.0000 12.0000 12.0000 12.0000 12.0000 12.0000
 12.0000 12.0000 12.0000 12.0000  1.0078  1.0078  1.0078  1.0078  1.0078  1.0078
  1.0078  1.0078  1.0078  1.0078  1.0078  1.0078  1.0078  1.0078  1.0078  1.0078
  1.0078  1.0078
 looking for force constants in 
 ./Non-cov-phenyl-N_0_C0S1.fchk                                                 
  
 Cartesian Force Constants                  R   N=        8001                  
  
 n3=         126        8001
 g94-fc frequencies=
   -42.4  -31.3   -0.0   -0.0    0.0    1.1    1.7    3.4   19.7   47.3
    56.5   58.6  115.3  144.8  149.2  173.7  230.6  251.8  306.3  326.1
   373.2  390.3  397.1  403.0  404.9  434.4  461.7  471.8  490.0  493.5
   543.8  583.0  614.7  617.7  619.0  635.5  644.9  684.6  685.0  688.2
   726.6  738.3  743.8  778.1  791.4  800.8  808.7  830.4  841.4  845.4
   852.6  873.5  888.8  945.7  948.7  964.1  980.0  991.8  992.1  996.1
  1004.9 1010.3 1011.0 1011.8 1027.4 1032.6 1032.7 1034.8 1052.6 1053.0
  1055.0 1076.4 1107.9 1111.8 1140.0 1141.3 1185.3 1185.4 1198.5 1205.2
  1258.2 1275.2 1294.6 1296.0 1296.1 1324.3 1338.7 1345.9 1346.0 1360.7
  1369.3 1374.2 1455.7 1462.4 1472.9 1488.7 1491.0 1521.1 1529.7 1529.8
  1531.1 1554.3 1590.0 1600.1 1600.8 1627.4 1634.4 1637.3 2570.1 2636.4
  2770.8 2881.8 2928.1 3019.6 3023.7 3032.7 3091.0 3127.4 3135.8 3135.8
  3154.0 3155.0 3162.0 3163.8 3164.3 3164.3
 at 99999: n3=         126
 symm operator            1 :  T  nop=           1
 symm operator            2 :  T  nop=           2
 symm operator            3 :  T  nop=           3
 symm operator            4 :  T  nop=           4
 symm operator            5 :  T  nop=           5
 symm operator            6 :  T  nop=           6
 symm operator            7 :  T  nop=           7
 The point group of the molecule is D2H
 enforcing symm op           1  jsymt=          -1          -1           1
 enforcing symm op           2  jsymt=          -1           1          -1
 enforcing symm op           3  jsymt=           1          -1          -1
 enforcing symm op           4  jsymt=          -1          -1          -1
 enforcing symm op           5  jsymt=           1           1          -1
 enforcing symm op           6  jsymt=           1          -1           1
 enforcing symm op           7  jsymt=          -1           1           1
 cartesian coord symmetries:
 Ag :   21 Au :    8 B1g:    8 B1u:   21 B2g:   13 B2u:   21 B3g:   21 B3u:   13
 Symmetry rotation matrix:
   1.00000   0.00000   0.00000
   0.00000   1.00000   0.00000
   0.00000   0.00000   1.00000

 Projecting out zero-frequency components
 generating redundant internal coords
         300        3600          42
 search for int coords
   1 str   2   1   1.395
   2 str   3   2   1.386
   3 str   4   3   1.414
   4 str   5   4   1.414
   5 str   6   1   1.395
   6 str   6   5   1.386
   7 str   7   4   1.467
   8 str   8   7   1.418
   9 str   9   8   1.372
  10 str  10   9   1.423
  11 str  11  10   1.423
  12 str  12   7   1.418
  13 str  12  11   1.372
  14 str  13  10   1.443
  15 str  14  13   1.423
  16 str  15  14   1.372
  17 str  16  15   1.418
  18 str  17  16   1.418
  19 str  18  13   1.423
  20 str  18  17   1.372
  21 str  19  16   1.467
  22 str  20  19   1.414
  23 str  21  20   1.386
  24 str  22  21   1.395
  25 str  23  22   1.395
  26 str  24  19   1.414
  27 str  24  23   1.386
  28 str  25   1   1.085
  29 str  26   2   1.085
  30 str  27   3   1.085
  31 str  28   5   1.085
  32 str  29   6   1.085
  33 str  30   8   1.091
  34 str  31   9   1.100
  35 str  32  11   1.100
  36 str  33  12   1.091
  37 str  34  14   1.100
  38 str  35  15   1.091
  39 str  36  17   1.091
  40 str  37  18   1.100
  41 str  38  20   1.085
  42 str  39  21   1.085
  43 str  40  22   1.085
  44 str  41  23   1.085
  45 str  42  24   1.085
 nber stretches=          45
  46 ben   1   2   3
  47 prop tor   1   2   3   4
  48 prop tor   1   2   3  27
  49 ben   1   2  26
  50 ben   1   6   5
  51 ben   1   6  29
  52 ben   2   1   6
  53 prop tor   2   1   6   5
  54 prop tor   2   1   6  29
  55 ben   2   1  25
  56 ben   2   3   4
  57 prop tor   2   3   4   5
  58 prop tor   2   3   4   7
  59 ben   2   3  27
  60 ben   3   2  26
  61 ben   3   4   5
  62 prop tor   3   4   5   6
  63 prop tor   3   4   5  28
  64 ben   3   4   7
  65 prop tor   3   4   7   8
  66 prop tor   3   4   7  12
  67 ben   4   3  27
  68 ben   4   5   6
  69 prop tor   4   5   6   1
  70 prop tor   4   5   6  29
  71 ben   4   5  28
  72 ben   4   7   8
  73 prop tor   4   7   8   9
  74 prop tor   4   7   8  30
  75 ben   4   7  12
  76 prop tor   4   7  12  11
  77 prop tor   4   7  12  33
  78 ben   5   4   7
  79 prop tor   5   4   7   8
  80 prop tor   5   4   7  12
  81 ben   5   6  29
  82 prop tor   6   1   2   3
  83 prop tor   6   1   2  26
  84 ben   6   1  25
  85 ben   6   5  28
  86 prop tor   7   4   5   6
  87 prop tor   7   4   5  28
  88 ben   7   8   9
  89 prop tor   7   8   9  10
  90 prop tor   7   8   9  31
  91 ben   7   8  30
  92 ben   7  12  11
  93 ben   7  12  33
  94 ben   8   7  12
  95 prop tor   8   7  12  11
  96 prop tor   8   7  12  33
  97 ben   8   9  10
  98 prop tor   8   9  10  11
  99 prop tor   8   9  10  13
 100 ben   8   9  31
 101 ben   9   8  30
 102 ben   9  10  11
 103 prop tor   9  10  11  12
 104 prop tor   9  10  11  32
 105 ben   9  10  13
 106 prop tor   9  10  13  14
 107 prop tor   9  10  13  18
 108 ben  10   9  31
 109 ben  10  11  12
 110 prop tor  10  11  12   7
 111 prop tor  10  11  12  33
 112 ben  10  11  32
 113 ben  10  13  14
 114 prop tor  10  13  14  15
 115 prop tor  10  13  14  34
 116 ben  10  13  18
 117 prop tor  10  13  18  17
 118 prop tor  10  13  18  37
 119 ben  11  10  13
 120 prop tor  11  10  13  14
 121 prop tor  11  10  13  18
 122 ben  11  12  33
 123 prop tor  12   7   8   9
 124 prop tor  12   7   8  30
 125 ben  12  11  32
 126 prop tor  13  10  11  12
 127 prop tor  13  10  11  32
 128 ben  13  14  15
 129 prop tor  13  14  15  16
 130 prop tor  13  14  15  35
 131 ben  13  14  34
 132 ben  13  18  17
 133 ben  13  18  37
 134 ben  14  13  18
 135 prop tor  14  13  18  17
 136 prop tor  14  13  18  37
 137 ben  14  15  16
 138 prop tor  14  15  16  17
 139 prop tor  14  15  16  19
 140 ben  14  15  35
 141 ben  15  14  34
 142 ben  15  16  17
 143 prop tor  15  16  17  18
 144 prop tor  15  16  17  36
 145 ben  15  16  19
 146 prop tor  15  16  19  20
 147 prop tor  15  16  19  24
 148 ben  16  15  35
 149 ben  16  17  18
 150 prop tor  16  17  18  13
 151 prop tor  16  17  18  37
 152 ben  16  17  36
 153 ben  16  19  20
 154 prop tor  16  19  20  21
 155 prop tor  16  19  20  38
 156 ben  16  19  24
 157 prop tor  16  19  24  23
 158 prop tor  16  19  24  42
 159 ben  17  16  19
 160 prop tor  17  16  19  20
 161 prop tor  17  16  19  24
 162 ben  17  18  37
 163 prop tor  18  13  14  15
 164 prop tor  18  13  14  34
 165 ben  18  17  36
 166 prop tor  19  16  17  18
 167 prop tor  19  16  17  36
 168 ben  19  20  21
 169 prop tor  19  20  21  22
 170 prop tor  19  20  21  39
 171 ben  19  20  38
 172 ben  19  24  23
 173 ben  19  24  42
 174 ben  20  19  24
 175 prop tor  20  19  24  23
 176 prop tor  20  19  24  42
 177 ben  20  21  22
 178 prop tor  20  21  22  23
 179 prop tor  20  21  22  40
 180 ben  20  21  39
 181 ben  21  20  38
 182 ben  21  22  23
 183 prop tor  21  22  23  24
 184 prop tor  21  22  23  41
 185 ben  21  22  40
 186 ben  22  21  39
 187 ben  22  23  24
 188 prop tor  22  23  24  19
 189 prop tor  22  23  24  42
 190 ben  22  23  41
 191 ben  23  22  40
 192 ben  23  24  42
 193 prop tor  24  19  20  21
 194 prop tor  24  19  20  38
 195 ben  24  23  41
 196 prop tor  25   1   2   3
 197 prop tor  25   1   2  26
 198 prop tor  25   1   6   5
 199 prop tor  25   1   6  29
 200 prop tor  26   2   3   4
 201 prop tor  26   2   3  27
 202 prop tor  27   3   4   5
 203 prop tor  27   3   4   7
 204 prop tor  28   5   6   1
 205 prop tor  28   5   6  29
 206 prop tor  30   8   9  10
 207 prop tor  30   8   9  31
 208 prop tor  31   9  10  11
 209 prop tor  31   9  10  13
 210 prop tor  32  11  12   7
 211 prop tor  32  11  12  33
 212 prop tor  34  14  15  16
 213 prop tor  34  14  15  35
 214 prop tor  35  15  16  17
 215 prop tor  35  15  16  19
 216 prop tor  36  17  18  13
 217 prop tor  36  17  18  37
 218 prop tor  38  20  21  22
 219 prop tor  38  20  21  39
 220 prop tor  39  21  22  23
 221 prop tor  39  21  22  40
 222 prop tor  40  22  23  24
 223 prop tor  40  22  23  41
 224 prop tor  41  23  24  19
 225 prop tor  41  23  24  42
 nber bend=              72
 nber lin bend=           0
 nber prop tor=         108
 nber impr tor=           0
 nber tot redund int=         225
 Eigenvalues of G in red int coords
    Gval -0.00000000 -0.00000000 -0.00000000 -0.00000000 -0.00000000 -0.00000000 -0.00000000 -0.00000000
    Gval -0.00000000 -0.00000000 -0.00000000 -0.00000000 -0.00000000 -0.00000000 -0.00000000 -0.00000000
    Gval -0.00000000 -0.00000000 -0.00000000 -0.00000000 -0.00000000 -0.00000000 -0.00000000 -0.00000000
    Gval -0.00000000 -0.00000000 -0.00000000 -0.00000000 -0.00000000 -0.00000000 -0.00000000 -0.00000000
    Gval -0.00000000 -0.00000000 -0.00000000 -0.00000000 -0.00000000 -0.00000000 -0.00000000 -0.00000000
    Gval -0.00000000 -0.00000000 -0.00000000 -0.00000000 -0.00000000 -0.00000000 -0.00000000 -0.00000000
    Gval -0.00000000 -0.00000000 -0.00000000 -0.00000000 -0.00000000 -0.00000000 -0.00000000 -0.00000000
    Gval -0.00000000  0.00000000  0.00000000  0.00000000  0.00000000  0.00000000  0.00000000  0.00000000
    Gval  0.00000000  0.00000000  0.00000000  0.00000000  0.00000000  0.00000000  0.00000000  0.00000000
    Gval  0.00000000  0.00000000  0.00000000  0.00000000  0.00000000  0.00000000  0.00000000  0.00000000
    Gval  0.00000000  0.00000000  0.00000000  0.00000000  0.00000000  0.00000000  0.00000000  0.00000000
    Gval  0.00000000  0.00000000  0.00000000  0.00000000  0.00000000  0.00000000  0.00000000  0.00000000
    Gval  0.00000000  0.00000000  0.00000000  0.00000000  0.00000000  0.00000000  0.00000000  0.00000000
    Gval  0.00000000  0.00000049  0.00000196  0.00000205  0.00000295  0.00000774  0.00000841  0.00001240
    Gval  0.00001485  0.00001532  0.00002058  0.00002797  0.00002984  0.00004279  0.00004435  0.00004581
    Gval  0.00004924  0.00005045  0.00005764  0.00005814  0.00005924  0.00005960  0.00005986  0.00006731
    Gval  0.00007039  0.00007800  0.00008040  0.00009423  0.00009883  0.00010602  0.00011678  0.00011685
    Gval  0.00011802  0.00011850  0.00012087  0.00012219  0.00012825  0.00013330  0.00017164  0.00021597
    Gval  0.00024432  0.00025813  0.00025897  0.00026329  0.00027946  0.00028741  0.00029964  0.00035695
    Gval  0.00036361  0.00037967  0.00038989  0.00039964  0.00040713  0.00041892  0.00043652  0.00052643
    Gval  0.00053588  0.00058698  0.00059305  0.00059305  0.00059342  0.00059344  0.00059625  0.00059818
    Gval  0.00059907  0.00059919  0.00060393  0.00060393  0.00061931  0.00062244  0.00062379  0.00062646
    Gval  0.00063537  0.00064461  0.00064819  0.00065039  0.00066072  0.00066074  0.00076813  0.00093005
    Gval  0.00103858  0.00103862  0.00105293  0.00105690  0.00106597  0.00108434  0.00108660  0.00110742
    Gval  0.00110742  0.00112719  0.00112758  0.00113523  0.00113524  0.00114457  0.00114527  0.00116780
    Gval  0.00116780  0.00117058  0.00117058  0.00142451  0.00142706  0.00154233  0.00164556  0.00183149
    Gval  0.00198231  0.00232179  0.00233415  0.00234874  0.00235067  0.00239925  0.00266029  0.00312272
    Gval  0.00313754  0.00349317  0.00357481  0.00358686  0.00359979  0.00370846  0.00370849  0.00405425
    Gval  0.00405427
  4.854579660776322E-007  4.854579660776322E-007
  1.958439530978044E-006  4.854579660776322E-007
  2.054009334535760E-006  4.854579660776322E-007
  2.950835156122885E-006  4.854579660776322E-007
  7.740379777807574E-006  4.854579660776322E-007
  8.406437857807090E-006  4.854579660776322E-007
  1.240479610754107E-005  4.854579660776322E-007
  1.485260186283973E-005  4.854579660776322E-007
  1.531611640836740E-005  4.854579660776322E-007
  2.058155057890183E-005  4.854579660776322E-007
  2.796924480347315E-005  4.854579660776322E-007
  2.983575132588649E-005  4.854579660776322E-007
  4.279213402463855E-005  4.854579660776322E-007
  4.435168758238738E-005  4.854579660776322E-007
  4.581271847168001E-005  4.854579660776322E-007
  4.924384608907650E-005  4.854579660776322E-007
  5.045128053911528E-005  4.854579660776322E-007
  5.764192672051168E-005  4.854579660776322E-007
  5.813629105653258E-005  4.854579660776322E-007
  5.923842000991185E-005  4.854579660776322E-007
  5.959632415713519E-005  4.854579660776322E-007
  5.986226710735771E-005  4.854579660776322E-007
  6.731093785379363E-005  4.854579660776322E-007
  7.039264211600545E-005  4.854579660776322E-007
  7.799825035635171E-005  4.854579660776322E-007
  8.039596979176812E-005  4.854579660776322E-007
  9.422679271923548E-005  4.854579660776322E-007
  9.883258510460716E-005  4.854579660776322E-007
  1.060237546040062E-004  4.854579660776322E-007
  1.167770561336090E-004  4.854579660776322E-007
  1.168491914193709E-004  4.854579660776322E-007
  1.180236984305576E-004  4.854579660776322E-007
  1.184975338068362E-004  4.854579660776322E-007
  1.208694262830343E-004  4.854579660776322E-007
  1.221897695382887E-004  4.854579660776322E-007
  1.282530735879700E-004  4.854579660776322E-007
  1.333011738206194E-004  4.854579660776322E-007
  1.716395415317704E-004  4.854579660776322E-007
  2.159688151783655E-004  4.854579660776322E-007
  2.443151435296336E-004  4.854579660776322E-007
  2.581296832047725E-004  4.854579660776322E-007
  2.589714013772239E-004  4.854579660776322E-007
  2.632897533674172E-004  4.854579660776322E-007
  2.794632970071209E-004  4.854579660776322E-007
  2.874065478504188E-004  4.854579660776322E-007
  2.996402555737756E-004  4.854579660776322E-007
  3.569538078569454E-004  4.854579660776322E-007
  3.636145441747595E-004  4.854579660776322E-007
  3.796664300943109E-004  4.854579660776322E-007
  3.898883343806364E-004  4.854579660776322E-007
  3.996375471562650E-004  4.854579660776322E-007
  4.071262245049133E-004  4.854579660776322E-007
  4.189169143510853E-004  4.854579660776322E-007
  4.365245113018413E-004  4.854579660776322E-007
  5.264335705536427E-004  4.854579660776322E-007
  5.358755647931964E-004  4.854579660776322E-007
  5.869785403312549E-004  4.854579660776322E-007
  5.930522473861949E-004  4.854579660776322E-007
  5.930522475818261E-004  4.854579660776322E-007
  5.934159728506771E-004  4.854579660776322E-007
  5.934383477169866E-004  4.854579660776322E-007
  5.962490418421131E-004  4.854579660776322E-007
  5.981760491812656E-004  4.854579660776322E-007
  5.990721969459696E-004  4.854579660776322E-007
  5.991891401193718E-004  4.854579660776322E-007
  6.039324602653613E-004  4.854579660776322E-007
  6.039328852548376E-004  4.854579660776322E-007
  6.193097927240638E-004  4.854579660776322E-007
  6.224350566752111E-004  4.854579660776322E-007
  6.237942397634880E-004  4.854579660776322E-007
  6.264649382727500E-004  4.854579660776322E-007
  6.353661995229335E-004  4.854579660776322E-007
  6.446055042411404E-004  4.854579660776322E-007
  6.481855115956305E-004  4.854579660776322E-007
  6.503850148242309E-004  4.854579660776322E-007
  6.607224287549632E-004  4.854579660776322E-007
  6.607417466986447E-004  4.854579660776322E-007
  7.681326556826269E-004  4.854579660776322E-007
  9.300469434443883E-004  4.854579660776322E-007
  1.038576371869368E-003  4.854579660776322E-007
  1.038618292713250E-003  4.854579660776322E-007
  1.052929902389187E-003  4.854579660776322E-007
  1.056898194401977E-003  4.854579660776322E-007
  1.065969987064868E-003  4.854579660776322E-007
  1.084343165889606E-003  4.854579660776322E-007
  1.086595935878676E-003  4.854579660776322E-007
  1.107419088727472E-003  4.854579660776322E-007
  1.107424937114768E-003  4.854579660776322E-007
  1.127185425560818E-003  4.854579660776322E-007
  1.127575152396129E-003  4.854579660776322E-007
  1.135234401214443E-003  4.854579660776322E-007
  1.135235168691948E-003  4.854579660776322E-007
  1.144572520303356E-003  4.854579660776322E-007
  1.145270075271375E-003  4.854579660776322E-007
  1.167798432268215E-003  4.854579660776322E-007
  1.167798547268097E-003  4.854579660776322E-007
  1.170582910295260E-003  4.854579660776322E-007
  1.170582910322524E-003  4.854579660776322E-007
  1.424510397043637E-003  4.854579660776322E-007
  1.427058048558330E-003  4.854579660776322E-007
  1.542325711025184E-003  4.854579660776322E-007
  1.645558795454738E-003  4.854579660776322E-007
  1.831485431840160E-003  4.854579660776322E-007
  1.982309610793350E-003  4.854579660776322E-007
  2.321793567929332E-003  4.854579660776322E-007
  2.334154902871382E-003  4.854579660776322E-007
  2.348744957224667E-003  4.854579660776322E-007
  2.350667037092415E-003  4.854579660776322E-007
  2.399252474830393E-003  4.854579660776322E-007
  2.660288629505125E-003  4.854579660776322E-007
  3.122724994760854E-003  4.854579660776322E-007
  3.137535941247364E-003  4.854579660776322E-007
  3.493174050891142E-003  4.854579660776322E-007
  3.574814838165671E-003  4.854579660776322E-007
  3.586864834734641E-003  4.854579660776322E-007
  3.599787135568499E-003  4.854579660776322E-007
  3.708456306573914E-003  4.854579660776322E-007
  3.708494921067739E-003  4.854579660776322E-007
  4.054251914855474E-003  4.854579660776322E-007
  4.054265742593884E-003  4.854579660776322E-007
 cut=1d-8, nber non-redundant internal coords=         120
 Check on Eigenvals of non-red overlap matrix:
  0.00000049  0.00000196  0.00000205  0.00000295  0.00000774  0.00000841  0.00001240  0.00001485
  0.00001532  0.00002058  0.00002797  0.00002984  0.00004279  0.00004435  0.00004581  0.00004924
  0.00005045  0.00005764  0.00005814  0.00005924  0.00005960  0.00005986  0.00006731  0.00007039
  0.00007800  0.00008040  0.00009423  0.00009883  0.00010602  0.00011678  0.00011685  0.00011802
  0.00011850  0.00012087  0.00012219  0.00012825  0.00013330  0.00017164  0.00021597  0.00024432
  0.00025813  0.00025897  0.00026329  0.00027946  0.00028741  0.00029964  0.00035695  0.00036361
  0.00037967  0.00038989  0.00039964  0.00040713  0.00041892  0.00043652  0.00052643  0.00053588
  0.00058698  0.00059305  0.00059305  0.00059342  0.00059344  0.00059625  0.00059818  0.00059907
  0.00059919  0.00060393  0.00060393  0.00061931  0.00062244  0.00062379  0.00062646  0.00063537
  0.00064461  0.00064819  0.00065039  0.00066072  0.00066074  0.00076813  0.00093005  0.00103858
  0.00103862  0.00105293  0.00105690  0.00106597  0.00108434  0.00108660  0.00110742  0.00110742
  0.00112719  0.00112758  0.00113523  0.00113524  0.00114457  0.00114527  0.00116780  0.00116780
  0.00117058  0.00117058  0.00142451  0.00142706  0.00154233  0.00164556  0.00183149  0.00198231
  0.00232179  0.00233415  0.00234874  0.00235067  0.00239925  0.00266029  0.00312272  0.00313754
  0.00349317  0.00357481  0.00358686  0.00359979  0.00370846  0.00370849  0.00405425  0.00405427
 Checking for correct frequencies
 recalc frequencies=
   -42.4  -31.3   -0.0   -0.0   -0.0   -0.0   -0.0    0.0   19.7   47.3
    56.5   58.6  115.3  144.8  149.2  173.7  230.6  251.8  306.3  326.1
   373.2  390.3  397.1  403.0  404.9  434.4  461.7  471.8  490.0  493.5
   543.8  583.0  614.7  617.7  619.0  635.5  644.9  684.6  685.0  688.2
   726.6  738.3  743.8  778.1  791.4  800.8  808.7  830.4  841.4  845.4
   852.6  873.5  888.8  945.7  948.7  964.1  980.0  991.8  992.1  996.1
  1004.9 1010.3 1011.0 1011.8 1027.4 1032.6 1032.7 1034.8 1052.6 1053.0
  1055.0 1076.4 1107.9 1111.8 1140.0 1141.3 1185.3 1185.4 1198.5 1205.2
  1258.2 1275.2 1294.6 1296.0 1296.1 1324.3 1338.7 1345.9 1346.0 1360.7
  1369.3 1374.2 1455.7 1462.4 1472.9 1488.7 1491.0 1521.1 1529.7 1529.8
  1531.1 1554.3 1590.0 1600.1 1600.8 1627.4 1634.4 1637.3 2570.1 2636.4
  2770.8 2881.8 2928.1 3019.6 3023.7 3032.7 3091.0 3127.4 3135.8 3135.8
  3154.0 3155.0 3162.0 3163.8 3164.3 3164.3
 recalc symmetries=
     B1g    Au     B3g    B2u    B3u    B2g    B1g    B1u    B3u    B2g
     B2u    Au     B3u    B3g    B2g    Ag     B2u    B3u    B1u    B2g
     B3g    B1g    Au     B1g    Au     B2u    B3u    Ag     B3g    B2g
     B2g    B3u    B3g    B1u    B2u    B3g    B2u    B3u    B2g    Ag 
     B3u    B1u    B2g    B3u    Ag     B2g    B1g    Au     B1g    Au 
     B3u    B2g    B1u    B2g    B3u    Ag     B1u    B1g    Au     B1u
     Ag     B2g    B3u    B2g    Ag     Au     B3u    B1u    B1u    B1g
     Ag     B1u    B2u    B3g    B2u    B3g    B3g    B2u    Ag     B1u
     Ag     B2u    B3g    B1u    B2u    Ag     B3g    B3g    B2u    Ag 
     B2u    B3g    B2u    B3g    B2u    B3g    B1u    Ag     B1u    B2u
     B3g    Ag     B1u    B2u    B3g    Ag     B1u    Ag     B2u    B1u
     Ag     B3g    B1u    B2u    B3g    Ag     B1u    Ag     B2u    B3g
     B1u    Ag     B1u    Ag     B3g    B2u
 recalc freqs check OK
 Zero-point lengths:
 38.0556 44.3226 10.0000 10.0000 10.0000 10.0000 10.0000 10.0000 55.8751 36.0403
 32.9757 32.3868 23.0877 20.6017 20.2962 18.8080 16.3242 15.6221 14.1647 13.7290
 12.8332 12.5494 12.4413 12.3498 12.3209 11.8952 11.5376 11.4133 11.1989 11.1591
 10.6310 10.2678  9.9992  9.9746  9.9645  9.8344  9.7620  9.4748  9.4719  9.4501
  9.1969  9.1239  9.0902  8.8874  8.8127  8.7608  8.7175  8.6031  8.5467  8.5265
  8.4902  8.3881  8.3156  8.0617  8.0487  7.9844  7.9191  7.8720  7.8706  7.8550
  7.8205  7.7995  7.7967  7.7938  7.7346  7.7150  7.7146  7.7066  7.6413  7.6397
  7.6324  7.5562  7.4480  7.4349  7.3424  7.3384  7.2008  7.2006  7.1610  7.1410
  6.9892  6.9425  6.8902  6.8865  6.8862  6.8126  6.7757  6.7576  6.7573  6.7206
  6.6995  6.6877  6.4977  6.4828  6.4596  6.4253  6.4204  6.3565  6.3386  6.3383
  6.3358  6.2881  6.2172  6.1976  6.1963  6.1454  6.1323  6.1268  4.8901  4.8283
  4.7097  4.6181  4.5815  4.5115  4.5085  4.5018  4.4591  4.4331  4.4271  4.4271
  4.4143  4.4137  4.4088  4.4075  4.4071  4.4071
 highest evec of mol 2
  0.0000 -0.0090  0.0000
  0.0000  0.1248  0.0721
  0.0000 -0.0003 -0.0051
  0.0000 -0.0018  0.0000
  0.0000 -0.0003  0.0051
  0.0000  0.1248 -0.0721
  0.0000  0.0006  0.0000
  0.0000 -0.0044  0.0023
  0.0000 -0.0011 -0.0008
  0.0000  0.0002  0.0000
  0.0000 -0.0011  0.0008
  0.0000 -0.0044 -0.0023
  0.0000  0.0002  0.0000
  0.0000 -0.0011  0.0008
  0.0000 -0.0044 -0.0023
  0.0000  0.0006  0.0000
  0.0000 -0.0044  0.0023
  0.0000 -0.0011 -0.0008
  0.0000 -0.0018  0.0000
  0.0000 -0.0003 -0.0051
  0.0000  0.1248  0.0721
  0.0000 -0.0090  0.0000
  0.0000  0.1248 -0.0721
  0.0000 -0.0003  0.0051
  0.0000  0.0038  0.0000
  0.0000 -0.4156 -0.2369
  0.0000  0.0026  0.0007
  0.0000  0.0026 -0.0007
  0.0000 -0.4156  0.2369
  0.0000  0.0142 -0.0078
  0.0000  0.0036  0.0019
  0.0000  0.0036 -0.0019
  0.0000  0.0142  0.0078
  0.0000  0.0036 -0.0019
  0.0000  0.0142  0.0078
  0.0000  0.0142 -0.0078
  0.0000  0.0036  0.0019
  0.0000  0.0026  0.0007
  0.0000 -0.4156 -0.2369
  0.0000  0.0038  0.0000
  0.0000 -0.4156  0.2369
  0.0000  0.0026 -0.0007
 Enter nber and list of atoms to keep of mol #2
 keep list:          42           1           2           3           4
           5           6           7           8           9          10
          11          12          13          14          15          16
          17          18          19          20          21          22
          23          24          25          26          27          28
          29          30          31          32          33          34
          35          36          37          38          39          40
          41          42
 reordering atoms
           1   7.87911200000000     
           2   7.17566000000000     
           3   5.78943900000000     
           4   5.05435000000000     
           5   5.78943900000000     
           6   7.17566000000000     
           7   3.58689800000000     
           8   2.83976700000000     
           9   1.46767200000000     
          10  0.721687000000000     
          11   1.46767200000000     
          12   2.83976700000000     
          13 -0.721687000000000     
          14  -1.46767200000000     
          15  -2.83976700000000     
          16  -3.58689800000000     
          17  -2.83976700000000     
          18  -1.46767200000000     
          19  -5.05435000000000     
          20  -5.78943900000000     
          21  -7.17566000000000     
          22  -7.87911200000000     
          23  -7.17566000000000     
          24  -5.78943900000000     
          25   8.96420700000000     
          26   7.71093600000000     
          27   5.27689100000000     
          28   5.27689100000000     
          29   7.71093600000000     
          30   3.33239500000000     
          31  0.972577000000000     
          32  0.972577000000000     
          33   3.33239500000000     
          34 -0.972577000000000     
          35  -3.33239500000000     
          36  -3.33239500000000     
          37 -0.972577000000000     
          38  -5.27689100000000     
          39  -7.71093600000000     
          40  -8.96420700000000     
          41  -7.71093600000000     
          42  -5.27689100000000     
           1           1
           2           2
           3           3
           4           4
           5           5
           6           6
           7           7
           8           8
           9           9
          10          10
          11          11
          12          12
          13          13
          14          14
          15          15
          16          16
          17          17
          18          18
          19          19
          20          20
          21          21
          22          22
          23          23
          24          24
          25          25
          26          26
          27          27
          28          28
          29          29
          30          30
          31          31
          32          32
          33          33
          34          34
          35          35
          36          36
          37          37
          38          38
          39          39
          40          40
          41          41
          42          42
 initial cartes coords mol 1
   6   0.00000   0.00000   7.94536
   6   0.00000  -1.19910   7.23784
   6   0.00000  -1.19764   5.84749
   6   0.00000   0.00000   5.11111
   6   0.00000   1.19764   5.84749
   6   0.00000   1.19910   7.23784
   6   0.00000   0.00000   3.62127
   6   0.00000   1.18999   2.87528
   6   0.00000   1.19031   1.48855
   6   0.00000   0.00000   0.74291
   6   0.00000  -1.19031   1.48855
   6   0.00000  -1.18999   2.87528
   6   0.00000   0.00000  -0.74291
   6   0.00000   1.19031  -1.48855
   6   0.00000   1.18999  -2.87528
   6   0.00000   0.00000  -3.62127
   6   0.00000  -1.18999  -2.87528
   6   0.00000  -1.19031  -1.48855
   6   0.00000   0.00000  -5.11111
   6   0.00000   1.19764  -5.84749
   6   0.00000   1.19910  -7.23784
   6   0.00000   0.00000  -7.94536
   6   0.00000  -1.19910  -7.23784
   6   0.00000  -1.19764  -5.84749
   1   0.00000   0.00000   9.02938
   1   0.00000  -2.14448   7.76933
   1   0.00000  -2.15232   5.33859
   1   0.00000   2.15232   5.33859
   1   0.00000   2.14448   7.76933
   1   0.00000   2.14898   3.37554
   1   0.00000   2.14904   0.98696
   1   0.00000  -2.14904   0.98696
   1   0.00000  -2.14898   3.37554
   1   0.00000   2.14904  -0.98696
   1   0.00000   2.14898  -3.37554
   1   0.00000  -2.14898  -3.37554
   1   0.00000  -2.14904  -0.98696
   1   0.00000   2.15232  -5.33859
   1   0.00000   2.14448  -7.76933
   1   0.00000   0.00000  -9.02938
   1   0.00000  -2.14448  -7.76933
   1   0.00000  -2.15232  -5.33859
 initial cartes coords mol 2
   6   0.00000   0.00000   7.87911
   6   0.00000  -1.20438   7.17566
   6   0.00000  -1.20755   5.78944
   6   0.00000   0.00000   5.05435
   6   0.00000   1.20755   5.78944
   6   0.00000   1.20438   7.17566
   6   0.00000   0.00000   3.58690
   6   0.00000   1.20561   2.83977
   6   0.00000   1.21134   1.46767
   6   0.00000   0.00000   0.72169
   6   0.00000  -1.21134   1.46767
   6   0.00000  -1.20561   2.83977
   6   0.00000   0.00000  -0.72169
   6   0.00000   1.21134  -1.46767
   6   0.00000   1.20561  -2.83977
   6   0.00000   0.00000  -3.58690
   6   0.00000  -1.20561  -2.83977
   6   0.00000  -1.21134  -1.46767
   6   0.00000   0.00000  -5.05435
   6   0.00000   1.20755  -5.78944
   6   0.00000   1.20438  -7.17566
   6   0.00000   0.00000  -7.87911
   6   0.00000  -1.20438  -7.17566
   6   0.00000  -1.20755  -5.78944
   1   0.00000   0.00000   8.96421
   1   0.00000  -2.14795   7.71094
   1   0.00000  -2.16355   5.27689
   1   0.00000   2.16355   5.27689
   1   0.00000   2.14795   7.71094
   1   0.00000   2.17925   3.33239
   1   0.00000   2.19312   0.97258
   1   0.00000  -2.19312   0.97258
   1   0.00000  -2.17925   3.33239
   1   0.00000   2.19312  -0.97258
   1   0.00000   2.17925  -3.33240
   1   0.00000  -2.17925  -3.33240
   1   0.00000  -2.19312  -0.97258
   1   0.00000   2.16355  -5.27689
   1   0.00000   2.14795  -7.71094
   1   0.00000   0.00000  -8.96421
   1   0.00000  -2.14795  -7.71094
   1   0.00000  -2.16355  -5.27689
 loop 1 0
 mod cartes coords mol 2
   6   0.00000   0.00000   7.87911
   6   0.00000  -1.20438   7.17566
   6   0.00000  -1.20755   5.78944
   6   0.00000   0.00000   5.05435
   6   0.00000   1.20755   5.78944
   6   0.00000   1.20438   7.17566
   6   0.00000   0.00000   3.58690
   6   0.00000   1.20561   2.83977
   6   0.00000   1.21134   1.46767
   6   0.00000   0.00000   0.72169
   6   0.00000  -1.21134   1.46767
   6   0.00000  -1.20561   2.83977
   6   0.00000   0.00000  -0.72169
   6   0.00000   1.21134  -1.46767
   6   0.00000   1.20561  -2.83977
   6   0.00000   0.00000  -3.58690
   6   0.00000  -1.20561  -2.83977
   6   0.00000  -1.21134  -1.46767
   6   0.00000   0.00000  -5.05435
   6   0.00000   1.20755  -5.78944
   6   0.00000   1.20438  -7.17566
   6   0.00000   0.00000  -7.87911
   6   0.00000  -1.20438  -7.17566
   6   0.00000  -1.20755  -5.78944
   1   0.00000   0.00000   8.96421
   1   0.00000  -2.14795   7.71094
   1   0.00000  -2.16355   5.27689
   1   0.00000   2.16355   5.27689
   1   0.00000   2.14795   7.71094
   1   0.00000   2.17925   3.33239
   1   0.00000   2.19312   0.97258
   1   0.00000  -2.19312   0.97258
   1   0.00000  -2.17925   3.33239
   1   0.00000   2.19312  -0.97258
   1   0.00000   2.17925  -3.33240
   1   0.00000  -2.17925  -3.33240
   1   0.00000  -2.19312  -0.97258
   1   0.00000   2.16355  -5.27689
   1   0.00000   2.14795  -7.71094
   1   0.00000   0.00000  -8.96421
[...]
                 0.6785    46.0         116 Ag   3033.
                -0.5467    29.9         124 Ag   3164.
 119 B3g  3194.  0.5661    32.0   100.0 112 B3g  2882.
                -0.7561    57.2         120 B3g  3136.
 120 B1u  3196.  0.4002    16.0   100.0 110 B1u  2636.
                 0.8456    71.5         117 B1u  3091.
 121 B2u  3201. -0.5087    25.9   100.0 109 B2u  2570.
                -0.5130    26.3         114 B2u  3020.
                -0.6686    44.7         119 B2u  3136.
 122 Ag   3202.  0.8008    64.1   100.0 111 Ag   2771.
                -0.5392    29.1         118 Ag   3127.
 123 B3g  3208. -0.5093    25.9   100.0 112 B3g  2882.
                -0.6745    45.5         115 B3g  3024.
                -0.5249    27.5         120 B3g  3136.
 124 B1u  3210. -0.8314    69.1   100.0 110 B1u  2636.
                -0.4326    18.7         113 B1u  2928.
 125 B2u  3211.  0.8449    71.4   100.0 109 B2u  2570.
                -0.4096    16.8         114 B2u  3020.
                -0.3240    10.5         119 B2u  3136.
 126 Ag   3214. -0.4072    16.6   100.0 111 Ag   2771.
                -0.6163    38.0         116 Ag   3033.
                -0.6406    41.0         118 Ag   3127.
 nber times 1st assigned=           1           0
 nber times 1st assigned=           2           0
 nber times 1st assigned=           3           0
 nber times 1st assigned=           4           0
 nber times 1st assigned=           5           0
 nber times 1st assigned=           6           0
 nber times 1st assigned=           7           0
 nber times 1st assigned=           8           0
 nber times 1st assigned=           9           0
 nber times 1st assigned=          10           0
 nber times 1st assigned=          11           0
 nber times 1st assigned=          12           0
 nber times 1st assigned=          13           0
 nber times 1st assigned=          14           0
 nber times 1st assigned=          15           0
 nber times 1st assigned=          16           0
 nber times 1st assigned=          17           0
 nber times 1st assigned=          18           0
 nber times 1st assigned=          19           0
 nber times 1st assigned=          20           0
 nber times 1st assigned=          21           0
 nber times 1st assigned=          22           0
 nber times 1st assigned=          23           0
 nber times 1st assigned=          24           0
 nber times 1st assigned=          25           0
 nber times 1st assigned=          26           0
 nber times 1st assigned=          27           0
 nber times 1st assigned=          28           0
 nber times 1st assigned=          29           0
 nber times 1st assigned=          30           0
 nber times 1st assigned=          31           0
 nber times 1st assigned=          32           0
 nber times 1st assigned=          33           0
 nber times 1st assigned=          34           0
 nber times 1st assigned=          35           0
 nber times 1st assigned=          36           0
 nber times 1st assigned=          37           0
 nber times 1st assigned=          38           0
 nber times 1st assigned=          39           0
 nber times 1st assigned=          40           0
 nber times 1st assigned=          41           0
 nber times 1st assigned=          42           0
 nber times 1st assigned=          43           0
 nber times 1st assigned=          44           0
 nber times 1st assigned=          45           0
 nber times 1st assigned=          46           0
 nber times 1st assigned=          47           0
 nber times 1st assigned=          48           0
 nber times 1st assigned=          49           0
 nber times 1st assigned=          50           0
 nber times 1st assigned=          51           0
 nber times 1st assigned=          52           0
 nber times 1st assigned=          53           0
 nber times 1st assigned=          54           0
 nber times 1st assigned=          55           0
 nber times 1st assigned=          56           0
 nber times 1st assigned=          57           0
 nber times 1st assigned=          58           0
 nber times 1st assigned=          59           0
 nber times 1st assigned=          60           0
 nber times 1st assigned=          61           0
 nber times 1st assigned=          62           0
 nber times 1st assigned=          63           0
 nber times 1st assigned=          64           0
 nber times 1st assigned=          65           0
 nber times 1st assigned=          66           0
 nber times 1st assigned=          67           0
 nber times 1st assigned=          68           0
 nber times 1st assigned=          69           0
 nber times 1st assigned=          70           0
 nber times 1st assigned=          71           0
 nber times 1st assigned=          72           0
 nber times 1st assigned=          73           0
 nber times 1st assigned=          74           0
 nber times 1st assigned=          75           0
 nber times 1st assigned=          76           0
 nber times 1st assigned=          77           0
 nber times 1st assigned=          78           0
 nber times 1st assigned=          79           0
 nber times 1st assigned=          80           0
 nber times 1st assigned=          81           0
 nber times 1st assigned=          82           0
 nber times 1st assigned=          83           0
 nber times 1st assigned=          84           0
 nber times 1st assigned=          85           0
 nber times 1st assigned=          86           0
 nber times 1st assigned=          87           0
 nber times 1st assigned=          88           0
 nber times 1st assigned=          89           0
 nber times 1st assigned=          90           0
 nber times 1st assigned=          91           0
 nber times 1st assigned=          92           0
 nber times 1st assigned=          93           0
 nber times 1st assigned=          94           0
 nber times 1st assigned=          95           0
 nber times 1st assigned=          96           0
 nber times 1st assigned=          97           0
 nber times 1st assigned=          98           0
 nber times 1st assigned=          99           0
 nber times 1st assigned=         100           0
 nber times 1st assigned=         101           0
 nber times 1st assigned=         102           0
 nber times 1st assigned=         103           0
 nber times 1st assigned=         104           0
 nber times 1st assigned=         105           0
 nber times 1st assigned=         106           0
 nber times 1st assigned=         107           0
 nber times 1st assigned=         108           0
 nber times 1st assigned=         109           0
 nber times 1st assigned=         110           0
 nber times 1st assigned=         111           0
 nber times 1st assigned=         112           0
 nber times 1st assigned=         113           0
 nber times 1st assigned=         114           0
 nber times 1st assigned=         115           0
 nber times 1st assigned=         116           0
 nber times 1st assigned=         117           0
 nber times 1st assigned=         118           0
 nber times 1st assigned=         119           0
 nber times 1st assigned=         120           0
 nber times 1st assigned=         121           0
 nber times 1st assigned=         122           0
 nber times 1st assigned=         123           0
 nber times 1st assigned=         124           0
 nber times 1st assigned=         125           0
 nber times 1st assigned=         126           0
 modes represented=   119.571997460517     
 p1=
   -0.   -0.   -0.   -0.    0.   -0.    0.    0.   -0.   -0.   -0.    0.    0.   -0.   -0.   36.    0.    0.   -0.   -0.
    0.    0.   -0.    0.    0.    0.    0.   -0.    1.    0.    0.   -0.    0.    0.   -0.   -0.    0.    1.    0.    0.
    0.   -0.    0.    0.    0.   -0.    5.    0.    0.    0.    0.   -0.    0.   -0.    0.   -0.   -0.    0.    0.   -0.
    0.   -0.    0.    1.   -0.    2.   -0.    0.   -0.   -2.    0.   -0.   -0.    0.   -0.   -0.    0.    0.   -1.    0.
   -6.   -0.    0.    0.   -0.   -1.   -0.   -0.    0.    0.    0.    0.    0.    0.   -0.    0.   -0.    1.    0.    0.
    0.   -0.   -0.   -0.   -2.    0.    1.   -0.    0.   -0.   -0.   -0.    0.   -0.    0.    0.    0.    0.   -0.   -0.
   -0.   -1.    0.   -0.   -0.    2.
 p2=
   -0.    0.   -0.    0.   -0.    0.   -0.    0.    0.    0.    0.   -0.    0.   -0.    0.   36.   -0.    0.   -0.   -0.
   -0.   -0.    0.   -0.   -0.   -0.    0.    1.    0.    0.   -0.    0.   -0.    0.   -0.    0.   -0.    0.    0.   -1.
   -0.   -0.    0.    0.   -5.   -0.    0.    0.   -0.   -0.   -0.    0.    0.    0.    0.    1.   -0.    0.    0.    0.
   -1.    0.   -0.   -0.   -2.   -0.    0.   -0.    0.    0.   -1.   -0.   -0.   -0.   -0.   -0.   -0.    0.   -1.   -0.
   -5.   -0.    0.    0.    0.   -1.    0.   -0.    0.    1.   -0.   -0.    0.    0.   -0.   -0.    0.   -1.   -0.    0.
   -0.   -0.   -0.    0.   -0.    0.    0.    3.   -0.    0.    1.    0.    0.    0.    0.    1.    0.    1.    0.   -0.
    0.   -0.   -0.    0.   -0.   -0.

 Displacement: in terms of nc of 1 THEN of nc of 2

   1 Au  freq=  -102. Q= -0.000 lam=    -0.0 B1g freq=   -42. Q= -0.000 lam=    -0.0
   2 B1g freq=   -81. Q= -0.000 lam=    -0.0 Au  freq=   -31. Q= -0.000 lam=    -0.0
   3 Au  freq=   -43. Q= -0.000 lam=    -0.0 B3g freq=    -0. Q= -0.000 lam=    -0.0
   4 B2u freq=    -0. Q= -0.000 lam=    -0.0 B2u freq=    -0. Q= -0.000 lam=    -0.0
   5 B3g freq=    -0. Q=  0.000 lam=    -0.0 B3u freq=    -0. Q=  0.000 lam=    -0.0
   6 B3u freq=    -0. Q= -0.000 lam=    -0.0 B2g freq=    -0. Q= -0.000 lam=    -0.0
   7 B1g freq=    -0. Q=  0.000 lam=    -0.0 B1g freq=    -0. Q=  0.000 lam=    -0.0
   8 B2g freq=     0. Q=  0.000 lam=     0.0 B1u freq=     0. Q=  0.000 lam=     0.0
   9 B1u freq=     0. Q= -0.000 lam=     0.0 B3u freq=    20. Q= -0.000 lam=     0.0
  10 B3u freq=    21. Q= -0.000 lam=     0.0 B2g freq=    47. Q= -0.000 lam=     0.0
  11 B2u freq=    58. Q= -0.000 lam=     0.0 B2u freq=    57. Q= -0.000 lam=     0.0
  12 B2g freq=    59. Q=  0.000 lam=     0.0 Au  freq=    59. Q=  0.000 lam=     0.0
  13 B3u freq=   123. Q=  0.000 lam=     0.0 B3u freq=   115. Q=  0.000 lam=     0.0
  14 B3g freq=   142. Q= -0.000 lam=     0.0 B3g freq=   145. Q= -0.000 lam=     0.0
  15 B2g freq=   172. Q= -0.000 lam=     0.0 B2g freq=   149. Q= -0.000 lam=     0.0
  16 Ag  freq=   173. Q=  1.895 lam=   311.4 Ag  freq=   174. Q=  1.915 lam=   318.7
  17 B2u freq=   230. Q=  0.000 lam=     0.0 B2u freq=   231. Q=  0.000 lam=     0.0
  18 B3u freq=   257. Q=  0.000 lam=     0.0 B3u freq=   252. Q=  0.000 lam=     0.0
  19 B1u freq=   336. Q= -0.000 lam=     0.0 B1u freq=   306. Q= -0.000 lam=     0.0
  20 B2g freq=   344. Q= -0.000 lam=     0.0 B2g freq=   326. Q= -0.000 lam=     0.0
  21 B3g freq=   366. Q=  0.000 lam=     0.0 B3g freq=   373. Q=  0.000 lam=     0.0
  22 Au  freq=   382. Q=  0.000 lam=     0.0 B1g freq=   390. Q=  0.000 lam=     0.0
  23 B1g freq=   395. Q= -0.000 lam=     0.0 Au  freq=   397. Q= -0.000 lam=     0.0
  24 Au  freq=   409. Q=  0.000 lam=     0.0 B1g freq=   403. Q=  0.000 lam=     0.0
  25 B1g freq=   416. Q=  0.000 lam=     0.0 Au  freq=   405. Q=  0.000 lam=     0.0
  26 B2u freq=   431. Q=  0.000 lam=     0.0 B2u freq=   434. Q=  0.000 lam=     0.0
  27 B3u freq=   457. Q=  0.000 lam=     0.0 B3u freq=   462. Q=  0.000 lam=     0.0
  28 B3g freq=   476. Q= -0.000 lam=     0.0 Ag  freq=   472. Q= -0.110 lam=     2.8
  29 Ag  freq=   477. Q=  0.102 lam=     2.5 B3g freq=   490. Q=  0.000 lam=     0.0
  30 B2g freq=   509. Q=  0.000 lam=     0.0 B2g freq=   494. Q=  0.000 lam=     0.0
  31 B3u freq=   553. Q=  0.000 lam=     0.0 B2g freq=   544. Q=  0.000 lam=     0.0
  32 B2g freq=   556. Q= -0.000 lam=     0.0 B3u freq=   583. Q= -0.000 lam=     0.0
  33 B1u freq=   626. Q=  0.000 lam=     0.0 B3g freq=   615. Q=  0.000 lam=     0.0
  34 B3g freq=   631. Q=  0.000 lam=     0.0 B1u freq=   618. Q=  0.000 lam=     0.0
  35 B2u freq=   633. Q= -0.000 lam=     0.0 B2u freq=   619. Q= -0.000 lam=     0.0
  36 B3g freq=   654. Q= -0.000 lam=     0.0 B3g freq=   635. Q= -0.000 lam=     0.0
  37 B2u freq=   669. Q=  0.000 lam=     0.0 B2u freq=   645. Q=  0.000 lam=     0.0
  38 Ag  freq=   688. Q=  0.108 lam=     4.0 B3u freq=   685. Q=  0.000 lam=     0.0
  39 B3u freq=   693. Q=  0.000 lam=     0.0 B2g freq=   685. Q=  0.000 lam=     0.0
  40 B2g freq=   697. Q=  0.000 lam=     0.0 Ag  freq=   688. Q=  0.104 lam=     3.7
  41 B3u freq=   727. Q=  0.000 lam=     0.0 B3u freq=   727. Q=  0.000 lam=     0.0
  42 B2g freq=   732. Q= -0.000 lam=     0.0 B1u freq=   738. Q= -0.000 lam=     0.0
  43 B1u freq=   754. Q=  0.000 lam=     0.0 B2g freq=   744. Q=  0.000 lam=     0.0
  44 B3u freq=   772. Q=  0.000 lam=     0.0 B3u freq=   778. Q=  0.000 lam=     0.0
  45 B2g freq=   788. Q=  0.000 lam=     0.0 Ag  freq=   791. Q=  0.571 lam=   129.0
  46 Au  freq=   800. Q= -0.000 lam=     0.0 B2g freq=   801. Q= -0.000 lam=     0.0
  47 Ag  freq=   805. Q=  0.542 lam=   118.2 B1g freq=   809. Q=  0.000 lam=     0.0
  48 B1g freq=   816. Q=  0.000 lam=     0.0 Au  freq=   830. Q=  0.000 lam=     0.0
  49 Au  freq=   839. Q=  0.000 lam=     0.0 B1g freq=   841. Q=  0.000 lam=     0.0
  50 B3u freq=   842. Q=  0.000 lam=     0.0 Au  freq=   845. Q=  0.000 lam=     0.0
  51 B1g freq=   846. Q=  0.000 lam=     0.0 B3u freq=   853. Q=  0.000 lam=     0.0
  52 B2g freq=   859. Q= -0.000 lam=     0.0 B2g freq=   873. Q= -0.000 lam=     0.0
  53 B3u freq=   919. Q=  0.000 lam=     0.0 B1u freq=   889. Q=  0.000 lam=     0.0
  54 B2g freq=   919. Q= -0.000 lam=     0.0 B2g freq=   946. Q= -0.000 lam=     0.0
  55 Au  freq=   938. Q=  0.000 lam=     0.0 B3u freq=   949. Q=  0.000 lam=     0.0
  56 B2g freq=   949. Q= -0.000 lam=     0.0 Ag  freq=   964. Q= -0.144 lam=    10.1
  57 B1g freq=   957. Q= -0.000 lam=     0.0 B1u freq=   980. Q= -0.000 lam=     0.0
  58 B3u freq=   960. Q=  0.000 lam=     0.0 B1g freq=   992. Q=  0.000 lam=     0.0
  59 Au  freq=   973. Q=  0.000 lam=     0.0 Au  freq=   992. Q=  0.000 lam=     0.0
  60 B1g freq=   975. Q= -0.000 lam=     0.0 B1u freq=   996. Q= -0.000 lam=     0.0
  61 B2g freq=   998. Q=  0.000 lam=     0.0 Ag  freq=  1005. Q=  0.185 lam=    17.1
  62 B3u freq=   998. Q= -0.000 lam=     0.0 B2g freq=  1010. Q= -0.000 lam=     0.0
  63 B1u freq=  1011. Q=  0.000 lam=     0.0 B3u freq=  1011. Q=  0.000 lam=     0.0
  64 Ag  freq=  1015. Q=  0.112 lam=     6.3 B2g freq=  1012. Q=  0.000 lam=     0.0
  65 B1u freq=  1016. Q= -0.000 lam=     0.0 Ag  freq=  1027. Q= -0.223 lam=    25.6
  66 Ag  freq=  1021. Q=  0.319 lam=    51.9 Au  freq=  1033. Q=  0.000 lam=     0.0
  67 B1u freq=  1022. Q= -0.000 lam=     0.0 B3u freq=  1033. Q= -0.000 lam=     0.0
  68 Ag  freq=  1045. Q=  0.059 lam=     1.8 B1u freq=  1035. Q=  0.000 lam=     0.0
  69 B1u freq=  1061. Q= -0.000 lam=     0.0 B1u freq=  1053. Q= -0.000 lam=     0.0
  70 Ag  freq=  1065. Q= -0.204 lam=    22.1 B1g freq=  1053. Q= -0.000 lam=     0.0
  71 B1u freq=  1065. Q=  0.000 lam=     0.0 Ag  freq=  1055. Q=  0.189 lam=    18.9
  72 B3g freq=  1112. Q= -0.000 lam=     0.0 B1u freq=  1076. Q= -0.000 lam=     0.0
  73 B2u freq=  1112. Q= -0.000 lam=     0.0 B2u freq=  1108. Q= -0.000 lam=     0.0
  74 B3g freq=  1156. Q=  0.000 lam=     0.0 B3g freq=  1112. Q=  0.000 lam=     0.0
  75 B2u freq=  1172. Q= -0.000 lam=     0.0 B2u freq=  1140. Q= -0.000 lam=     0.0
  76 B3g freq=  1187. Q= -0.000 lam=     0.0 B3g freq=  1141. Q= -0.000 lam=     0.0
  77 B2u freq=  1190. Q=  0.000 lam=     0.0 B3g freq=  1185. Q=  0.000 lam=     0.0
  78 B1u freq=  1209. Q=  0.000 lam=     0.0 B2u freq=  1185. Q=  0.000 lam=     0.0
  79 Ag  freq=  1215. Q= -0.129 lam=    10.0 Ag  freq=  1199. Q= -0.186 lam=    20.6
  80 B1u freq=  1242. Q=  0.000 lam=     0.0 B1u freq=  1205. Q=  0.000 lam=     0.0
  81 Ag  freq=  1251. Q= -0.849 lam=   450.6 Ag  freq=  1258. Q= -0.714 lam=   320.2
  82 B1u freq=  1289. Q= -0.000 lam=     0.0 B2u freq=  1275. Q= -0.000 lam=     0.0
  83 B2u freq=  1290. Q=  0.000 lam=     0.0 B3g freq=  1295. Q=  0.000 lam=     0.0
  84 Ag  freq=  1295. Q=  0.019 lam=     0.2 B1u freq=  1296. Q=  0.000 lam=     0.0
  85 B3g freq=  1296. Q= -0.000 lam=     0.0 B2u freq=  1296. Q= -0.000 lam=     0.0
  86 Ag  freq=  1311. Q= -0.075 lam=     3.6 Ag  freq=  1324. Q= -0.090 lam=     5.4
  87 B2u freq=  1312. Q= -0.000 lam=     0.0 B3g freq=  1339. Q= -0.000 lam=     0.0
  88 B3g freq=  1320. Q= -0.000 lam=     0.0 B3g freq=  1346. Q= -0.000 lam=     0.0
  89 B3g freq=  1348. Q=  0.000 lam=     0.0 B2u freq=  1346. Q=  0.000 lam=     0.0
  90 B2u freq=  1357. Q=  0.000 lam=     0.0 Ag  freq=  1361. Q=  0.217 lam=    31.9
  91 B2u freq=  1367. Q=  0.000 lam=     0.0 B2u freq=  1369. Q=  0.000 lam=     0.0
  92 B3g freq=  1374. Q=  0.000 lam=     0.0 B3g freq=  1374. Q=  0.000 lam=     0.0
  93 B2u freq=  1436. Q=  0.000 lam=     0.0 B2u freq=  1456. Q=  0.000 lam=     0.0
  94 B3g freq=  1445. Q=  0.000 lam=     0.0 B3g freq=  1462. Q=  0.000 lam=     0.0
  95 B2u freq=  1478. Q= -0.000 lam=     0.0 B2u freq=  1473. Q= -0.000 lam=     0.0
  96 B3g freq=  1487. Q=  0.000 lam=     0.0 B3g freq=  1489. Q=  0.000 lam=     0.0
  97 B1u freq=  1519. Q= -0.000 lam=     0.0 B1u freq=  1491. Q= -0.000 lam=     0.0
  98 Ag  freq=  1529. Q=  0.117 lam=    10.5 Ag  freq=  1521. Q=  0.145 lam=    16.0
  99 B1u freq=  1553. Q=  0.000 lam=     0.0 B1u freq=  1530. Q=  0.000 lam=     0.0
 100 Ag  freq=  1575. Q=  0.048 lam=     1.8 B2u freq=  1530. Q=  0.000 lam=     0.0
 101 B2u freq=  1584. Q=  0.000 lam=     0.0 B3g freq=  1531. Q=  0.000 lam=     0.0
 102 B3g freq=  1605. Q= -0.000 lam=     0.0 Ag  freq=  1554. Q= -0.043 lam=     1.4
 103 B2u freq=  1623. Q= -0.000 lam=     0.0 B1u freq=  1590. Q= -0.000 lam=     0.0
 104 B3g freq=  1624. Q= -0.000 lam=     0.0 B2u freq=  1600. Q= -0.000 lam=     0.0
 105 Ag  freq=  1635. Q= -0.372 lam=   113.3 B3g freq=  1601. Q= -0.000 lam=     0.0
 106 B1u freq=  1642. Q=  0.000 lam=     0.0 Ag  freq=  1627. Q=  0.062 lam=     3.2
 107 Ag  freq=  1650. Q=  0.137 lam=    15.4 B1u freq=  1634. Q=  0.000 lam=     0.0
 108 B1u freq=  1660. Q= -0.000 lam=     0.0 Ag  freq=  1637. Q= -0.452 lam=   167.0
 109 B1u freq=  3160. Q=  0.000 lam=     0.0 B2u freq=  2570. Q=  0.000 lam=     0.0
 110 Ag  freq=  3160. Q= -0.012 lam=     0.2 B1u freq=  2636. Q= -0.000 lam=     0.0
 111 B3g freq=  3168. Q= -0.000 lam=     0.0 Ag  freq=  2771. Q= -0.214 lam=    63.5
 112 B2u freq=  3168. Q= -0.000 lam=     0.0 B3g freq=  2882. Q= -0.000 lam=     0.0
 113 B1u freq=  3179. Q=  0.000 lam=     0.0 B1u freq=  2928. Q=  0.000 lam=     0.0
 114 B3g freq=  3181. Q= -0.000 lam=     0.0 B2u freq=  3020. Q= -0.000 lam=     0.0
 115 Ag  freq=  3183. Q=  0.008 lam=     0.1 B3g freq=  3024. Q=  0.000 lam=     0.0
 116 B1u freq=  3185. Q=  0.000 lam=     0.0 Ag  freq=  3033. Q=  0.183 lam=    50.5
 117 B2u freq=  3188. Q=  0.000 lam=     0.0 B1u freq=  3091. Q=  0.000 lam=     0.0
 118 Ag  freq=  3190. Q=  0.044 lam=     3.1 Ag  freq=  3127. Q=  0.165 lam=    42.6
 119 B3g freq=  3194. Q= -0.000 lam=     0.0 B2u freq=  3136. Q= -0.000 lam=     0.0
 120 B1u freq=  3196. Q= -0.000 lam=     0.0 B3g freq=  3136. Q= -0.000 lam=     0.0
 121 B2u freq=  3201. Q= -0.000 lam=     0.0 B1u freq=  3154. Q= -0.000 lam=     0.0
 122 Ag  freq=  3202. Q= -0.143 lam=    32.8 Ag  freq=  3155. Q= -0.027 lam=     1.2
 123 B3g freq=  3208. Q=  0.000 lam=     0.0 B1u freq=  3162. Q=  0.000 lam=     0.0
 124 B1u freq=  3210. Q= -0.000 lam=     0.0 Ag  freq=  3164. Q= -0.041 lam=     2.7
 125 B2u freq=  3211. Q= -0.000 lam=     0.0 B3g freq=  3164. Q= -0.000 lam=     0.0
 126 Ag  freq=  3214. Q=  0.347 lam=   193.0 B2u freq=  3164. Q=  0.000 lam=     0.0

 total reorg energy (cm**-1, kcal/mol)=     1353.     1252.      3.87      3.58
 Nber of molecules processed=           2
