 Enter ifcurve (0=recti, 1=orth curvi, 2=apprx curvi, -1 = skip
 And atom ordering flag, 0= never changes, 1= use the first order thenceforth,
  2= deduce it (does read on fail), 3= always read it
 Reading file: 
 ./conjugated_carbonyls_0_C-1S0.log                                             
                                          
  Entering Gaussian System, Link 0=g16                                          
  
 Gaussian format, type: g94, g98, g03= F F F
  #P Geom=AllCheck Guess=TCheck SCRF=Check Test GenChk UB3LYP/6-311G(d,p    
 energy type= B3LYP   
 Original G94 input coords:
  8  1.377945 -3.606382  0.000000
  6  0.760426 -2.541846  0.000000
  6 -0.760426 -2.541846  0.000000
  8 -1.377945 -3.606382  0.000000
  6 -1.439800 -1.228466  0.000000
  6 -2.836614 -1.202901  0.000000
  6 -3.537274  0.000000  0.000000
  6 -2.836614  1.202901  0.000000
  6 -1.439800  1.228466  0.000000
  6 -0.760426  2.541846  0.000000
  8 -1.377945  3.606382  0.000000
  6  0.760426  2.541846  0.000000
  8  1.377945  3.606382  0.000000
  6  1.439800  1.228466  0.000000
  6  2.836614  1.202901  0.000000
  6  3.537274  0.000000  0.000000
  6  2.836614 -1.202901  0.000000
  6  1.439800 -1.228466  0.000000
  6  0.714880  0.000000  0.000000
  6 -0.714880  0.000000  0.000000
  1 -3.350246 -2.158289  0.000000
  1 -4.622917  0.000000  0.000000
  1 -3.350246  2.158289  0.000000
  1  3.350246  2.158289  0.000000
  1  4.622917  0.000000  0.000000
  1  3.350246 -2.158289  0.000000
 nber atoms=          26
  SCF Done:  E(UB3LYP) =  -914.517416607     A.U. after    3 cycles             
  
          23          40 "  -914.517416607"
After scan for Atom:   Atom  AN      X      Y      Z        X      Y      Z        X      Y      Z   
After scan for Atom:   Atom  AN      X      Y      Z        X      Y      Z        X      Y      Z   
After scan for Atom:   Atom  AN      X      Y      Z        X      Y      Z        X      Y      Z   
After scan for Atom:   Atom  AN      X      Y      Z        X      Y      Z        X      Y      Z   
After scan for Atom:   Atom  AN      X      Y      Z        X      Y      Z        X      Y      Z   
After scan for Atom:   Atom  AN      X      Y      Z        X      Y      Z        X      Y      Z   
After scan for Atom:   Atom  AN      X      Y      Z        X      Y      Z        X      Y      Z   
After scan for Atom:   Atom  AN      X      Y      Z        X      Y      Z        X      Y      Z   
After scan for Atom:   Atom  AN      X      Y      Z        X      Y      Z        X      Y      Z   
After scan for Atom:   Atom  AN      X      Y      Z        X      Y      Z        X      Y      Z   
After scan for Atom:   Atom  AN      X      Y      Z        X      Y      Z        X      Y      Z   
After scan for Atom:   Atom  AN      X      Y      Z        X      Y      Z        X      Y      Z   
After scan for Atom:   Atom  AN      X      Y      Z        X      Y      Z        X      Y      Z   
After scan for Atom:   Atom  AN      X      Y      Z        X      Y      Z        X      Y      Z   
After scan for Atom:   Atom  AN      X      Y      Z        X      Y      Z        X      Y      Z   
After scan for Atom:   Atom  AN      X      Y      Z        X      Y      Z        X      Y      Z   
After scan for Atom:   Atom  AN      X      Y      Z        X      Y      Z        X      Y      Z   
After scan for Atom:   Atom  AN      X      Y      Z        X      Y      Z        X      Y      Z   
After scan for Atom:   Atom  AN      X      Y      Z        X      Y      Z        X      Y      Z   
After scan for Atom:   Atom  AN      X      Y      Z        X      Y      Z        X      Y      Z   
After scan for Atom:   Atom  AN      X      Y      Z        X      Y      Z        X      Y      Z   
After scan for Atom:   Atom  AN      X      Y      Z        X      Y      Z        X      Y      Z   
After scan for Atom:   Atom  AN      X      Y      Z        X      Y      Z        X      Y      Z   
After scan for Atom:   Atom  AN      X      Y      Z        X      Y      Z        X      Y      Z   
 g94    frequencies=
     0.0    0.0    0.0    0.0    0.0    0.0   53.3   63.8   73.9  136.8
   185.8  202.6  280.8  290.5  291.3  341.4  351.5  370.1  374.1  376.5
   376.7  425.3  461.2  486.2  500.4  512.6  525.7  562.3  619.6  647.8
   658.0  726.8  737.8  762.8  775.3  802.5  804.5  820.2  821.9  848.8
   919.8  973.4  985.1  988.7  998.9 1002.7 1015.2 1024.3 1051.1 1092.9
  1099.6 1174.8 1182.7 1247.6 1256.4 1258.2 1268.2 1319.2 1337.9 1346.8
  1417.4 1425.9 1483.2 1497.1 1519.9 1576.2 1581.9 1598.6 1599.1 1663.4
  1677.7 1682.2 3147.5 3147.6 3177.1 3177.2 3181.1 3181.4
 g94    symmetries=
                                                 A      A      A      A
       A      A      A      A      A      A      A      A      A      A
       A      A      A      A      A      A      A      A      A      A
       A      A      A      A      A      A      A      A      A      A
       A      A      A      A      A      A      A      A      A      A
       A      A      A      A      A      A      A      A      A      A
       A      A      A      A      A      A      A      A      A      A
       A      A      A      A      A      A      A      A
 atomic masses:
 15.9949 12.0000 12.0000 15.9949 12.0000 12.0000 12.0000 12.0000 12.0000 12.0000
 15.9949 12.0000 15.9949 12.0000 12.0000 12.0000 12.0000 12.0000 12.0000 12.0000
  1.0078  1.0078  1.0078  1.0078  1.0078  1.0078
 looking for force constants in 
 ./conjugated_carbonyls_0_C-1S0.fchk                                            
  
 Cartesian Force Constants                  R   N=        3081                  
  
 n3=          78        3081
 g94-fc frequencies=
    -4.2   -3.6   -1.2    0.0    0.0    0.0   53.3   63.8   73.9  136.8
   185.8  202.6  280.8  290.5  291.3  341.4  351.5  370.1  374.1  376.5
   376.7  425.3  461.2  486.2  500.5  512.6  525.7  562.3  619.7  647.8
   658.0  726.8  737.8  762.8  775.3  802.6  804.5  820.2  821.9  848.8
   919.8  973.4  985.1  988.7  998.9 1002.7 1015.2 1024.3 1051.1 1093.0
  1099.6 1174.8 1182.7 1247.7 1256.5 1258.2 1268.2 1319.3 1337.9 1346.9
  1417.4 1425.9 1483.2 1497.2 1520.0 1576.2 1581.9 1598.6 1599.2 1663.4
  1677.8 1682.2 3147.6 3147.7 3177.2 3177.3 3181.2 3181.5
 at 99999: n3=          78
 symm operator            1 :  T  nop=           1
 symm operator            2 :  T  nop=           2
 symm operator            3 :  T  nop=           3
 symm operator            4 :  T  nop=           4
 symm operator            5 :  T  nop=           5
 symm operator            6 :  T  nop=           6
 symm operator            7 :  T  nop=           7
 The point group of the molecule is D2H
 enforcing symm op           1  jsymt=          -1          -1           1
 enforcing symm op           2  jsymt=          -1           1          -1
 enforcing symm op           3  jsymt=           1          -1          -1
 enforcing symm op           4  jsymt=          -1          -1          -1
 enforcing symm op           5  jsymt=           1           1          -1
 enforcing symm op           6  jsymt=           1          -1           1
 enforcing symm op           7  jsymt=          -1           1           1
 cartesian coord symmetries:
 Ag :   13 Au :    5 B1g:   13 B1u:    8 B2g:    8 B2u:   13 B3g:    5 B3u:   13
 Symmetry rotation matrix:
   1.00000   0.00000   0.00000
   0.00000   1.00000   0.00000
   0.00000   0.00000   1.00000

 Projecting out zero-frequency components
 generating redundant internal coords
         300        3600          26
 search for int coords
   1 str   2   1   1.231
   2 str   3   2   1.521
   3 str   4   3   1.231
   4 str   5   3   1.479
   5 str   6   5   1.397
   6 str   7   6   1.392
   7 str   8   7   1.392
   8 str   9   8   1.397
   9 str  10   9   1.479
  10 str  11  10   1.231
  11 str  12  10   1.521
  12 str  13  12   1.231
  13 str  14  12   1.479
  14 str  15  14   1.397
  15 str  16  15   1.392
  16 str  17  16   1.392
  17 str  18   2   1.479
  18 str  18  17   1.397
  19 str  19  14   1.426
  20 str  19  18   1.426
  21 str  20   5   1.426
  22 str  20   9   1.426
  23 str  20  19   1.430
  24 str  21   6   1.085
  25 str  22   7   1.086
  26 str  23   8   1.085
  27 str  24  15   1.085
  28 str  25  16   1.086
  29 str  26  17   1.085
 nber stretches=          29
  30 ben   1   2   3
  31 prop tor   1   2   3   4
  32 prop tor   1   2   3   5
  33 ben   1   2  18
  34 prop tor   1   2  18  17
  35 prop tor   1   2  18  19
  36 ben   2   3   4
  37 ben   2   3   5
  38 prop tor   2   3   5   6
  39 prop tor   2   3   5  20
  40 ben   2  18  17
  41 ben   2  18  19
  42 prop tor   2  18  19  14
  43 prop tor   2  18  19  20
  44 ben   3   2  18
  45 prop tor   3   2  18  17
  46 prop tor   3   2  18  19
  47 ben   3   5   6
  48 prop tor   3   5   6   7
  49 prop tor   3   5   6  21
  50 ben   3   5  20
  51 prop tor   3   5  20   9
  52 prop tor   3   5  20  19
  53 ben   4   3   5
  54 prop tor   4   3   5   6
  55 prop tor   4   3   5  20
  56 ben   5   6   7
  57 prop tor   5   6   7   8
  58 prop tor   5   6   7  22
  59 ben   5   6  21
  60 ben   5  20   9
  61 ben   5  20  19
  62 ben   6   5  20
  63 prop tor   6   5  20   9
  64 prop tor   6   5  20  19
  65 ben   6   7   8
  66 prop tor   6   7   8   9
  67 prop tor   6   7   8  23
  68 ben   6   7  22
  69 ben   7   6  21
  70 ben   7   8   9
  71 prop tor   7   8   9  10
  72 prop tor   7   8   9  20
  73 ben   7   8  23
  74 ben   8   7  22
  75 ben   8   9  10
  76 prop tor   8   9  10  11
  77 prop tor   8   9  10  12
  78 ben   8   9  20
  79 prop tor   8   9  20   5
  80 prop tor   8   9  20  19
  81 ben   9   8  23
  82 ben   9  10  11
  83 ben   9  10  12
  84 prop tor   9  10  12  13
  85 prop tor   9  10  12  14
  86 ben   9  20  19
  87 ben  10   9  20
  88 prop tor  10   9  20   5
  89 prop tor  10   9  20  19
  90 ben  10  12  13
  91 ben  10  12  14
  92 prop tor  10  12  14  15
  93 prop tor  10  12  14  19
  94 ben  11  10  12
  95 prop tor  11  10  12  13
  96 prop tor  11  10  12  14
  97 ben  12  14  15
  98 prop tor  12  14  15  16
  99 prop tor  12  14  15  24
 100 ben  12  14  19
 101 prop tor  12  14  19  18
 102 prop tor  12  14  19  20
 103 ben  13  12  14
 104 prop tor  13  12  14  15
 105 prop tor  13  12  14  19
 106 ben  14  15  16
 107 prop tor  14  15  16  17
 108 prop tor  14  15  16  25
 109 ben  14  15  24
 110 ben  14  19  18
 111 ben  14  19  20
 112 prop tor  14  19  20   5
 113 prop tor  14  19  20   9
 114 ben  15  14  19
 115 prop tor  15  14  19  18
 116 prop tor  15  14  19  20
 117 ben  15  16  17
 118 prop tor  15  16  17  18
 119 prop tor  15  16  17  26
 120 ben  15  16  25
 121 ben  16  15  24
 122 ben  16  17  18
 123 prop tor  16  17  18   2
 124 prop tor  16  17  18  19
 125 ben  16  17  26
 126 ben  17  16  25
 127 ben  17  18  19
 128 prop tor  17  18  19  14
 129 prop tor  17  18  19  20
 130 prop tor  18   2   3   4
 131 prop tor  18   2   3   5
 132 ben  18  17  26
 133 ben  18  19  20
 134 prop tor  18  19  20   5
 135 prop tor  18  19  20   9
 136 prop tor  19  14  15  16
 137 prop tor  19  14  15  24
 138 prop tor  20   5   6   7
 139 prop tor  20   5   6  21
 140 prop tor  20   9  10  11
 141 prop tor  20   9  10  12
 142 prop tor  21   6   7   8
 143 prop tor  21   6   7  22
 144 prop tor  22   7   8   9
 145 prop tor  22   7   8  23
 146 prop tor  23   8   9  10
 147 prop tor  23   8   9  20
 148 prop tor  24  15  16  17
 149 prop tor  24  15  16  25
 150 prop tor  25  16  17  18
 151 prop tor  25  16  17  26
 152 prop tor  26  17  18   2
 153 prop tor  26  17  18  19
 nber bend=              48
 nber lin bend=           0
 nber prop tor=          76
 nber impr tor=           0
 nber tot redund int=         153
 Eigenvalues of G in red int coords
    Gval -0.00000000 -0.00000000 -0.00000000 -0.00000000 -0.00000000 -0.00000000 -0.00000000 -0.00000000
    Gval -0.00000000 -0.00000000 -0.00000000 -0.00000000 -0.00000000 -0.00000000 -0.00000000 -0.00000000
    Gval -0.00000000 -0.00000000 -0.00000000 -0.00000000 -0.00000000 -0.00000000 -0.00000000 -0.00000000
    Gval -0.00000000 -0.00000000 -0.00000000 -0.00000000 -0.00000000 -0.00000000 -0.00000000 -0.00000000
    Gval -0.00000000 -0.00000000 -0.00000000 -0.00000000  0.00000000  0.00000000  0.00000000  0.00000000
    Gval  0.00000000  0.00000000  0.00000000  0.00000000  0.00000000  0.00000000  0.00000000  0.00000000
    Gval  0.00000000  0.00000000  0.00000000  0.00000000  0.00000000  0.00000000  0.00000000  0.00000000
    Gval  0.00000000  0.00000000  0.00000000  0.00000000  0.00000000  0.00000000  0.00000000  0.00000000
    Gval  0.00000000  0.00000000  0.00000000  0.00000000  0.00000000  0.00000000  0.00000000  0.00000000
    Gval  0.00000000  0.00000000  0.00000000  0.00000000  0.00000000  0.00000000  0.00000000  0.00000000
    Gval  0.00000000  0.00000943  0.00000975  0.00001160  0.00001379  0.00001485  0.00001941  0.00002371
    Gval  0.00002442  0.00002607  0.00003123  0.00003949  0.00004546  0.00004753  0.00005382  0.00006173
    Gval  0.00006342  0.00006395  0.00006683  0.00008527  0.00008946  0.00009292  0.00009841  0.00010949
    Gval  0.00011161  0.00011760  0.00013383  0.00014987  0.00015882  0.00017452  0.00021056  0.00021155
    Gval  0.00021465  0.00025829  0.00030532  0.00032007  0.00032332  0.00032528  0.00037640  0.00038673
    Gval  0.00038705  0.00040593  0.00040912  0.00044538  0.00046332  0.00047739  0.00055385  0.00059427
    Gval  0.00059428  0.00060904  0.00061025  0.00065044  0.00065081  0.00075645  0.00076949  0.00101675
    Gval  0.00106472  0.00106517  0.00111042  0.00113826  0.00113828  0.00116842  0.00116849  0.00124746
    Gval  0.00160671  0.00171979  0.00194077  0.00212704  0.00262237  0.00308596  0.00309385  0.00393745
    Gval  0.00393794
  9.428901111271964E-006  9.428901111271964E-006
  9.752292869728463E-006  9.428901111271964E-006
  1.159908823178647E-005  9.428901111271964E-006
  1.378857067033026E-005  9.428901111271964E-006
  1.484869553918618E-005  9.428901111271964E-006
  1.941382855844877E-005  9.428901111271964E-006
  2.370588961711542E-005  9.428901111271964E-006
  2.441620455418411E-005  9.428901111271964E-006
  2.607375456096105E-005  9.428901111271964E-006
  3.123202322971473E-005  9.428901111271964E-006
  3.949358362213319E-005  9.428901111271964E-006
  4.545879873117090E-005  9.428901111271964E-006
  4.753066081220107E-005  9.428901111271964E-006
  5.381710495989841E-005  9.428901111271964E-006
  6.173259616027224E-005  9.428901111271964E-006
  6.341711676844391E-005  9.428901111271964E-006
  6.394722136950471E-005  9.428901111271964E-006
  6.683359993145400E-005  9.428901111271964E-006
  8.526693433565075E-005  9.428901111271964E-006
  8.945590983990324E-005  9.428901111271964E-006
  9.291558722921656E-005  9.428901111271964E-006
  9.840602860778448E-005  9.428901111271964E-006
  1.094893424803767E-004  9.428901111271964E-006
  1.116102036489478E-004  9.428901111271964E-006
  1.176044339064138E-004  9.428901111271964E-006
  1.338259113314819E-004  9.428901111271964E-006
  1.498747014171551E-004  9.428901111271964E-006
  1.588199894348636E-004  9.428901111271964E-006
  1.745190921034104E-004  9.428901111271964E-006
  2.105644417456236E-004  9.428901111271964E-006
  2.115549737184981E-004  9.428901111271964E-006
  2.146519421337985E-004  9.428901111271964E-006
  2.582851571667749E-004  9.428901111271964E-006
  3.053186533490053E-004  9.428901111271964E-006
  3.200680850831048E-004  9.428901111271964E-006
  3.233174218441639E-004  9.428901111271964E-006
  3.252752632383017E-004  9.428901111271964E-006
  3.763966148029813E-004  9.428901111271964E-006
  3.867252150208875E-004  9.428901111271964E-006
  3.870480942732968E-004  9.428901111271964E-006
  4.059264940707250E-004  9.428901111271964E-006
  4.091152180600543E-004  9.428901111271964E-006
  4.453753818777094E-004  9.428901111271964E-006
  4.633214738033717E-004  9.428901111271964E-006
  4.773880811561281E-004  9.428901111271964E-006
  5.538500532825399E-004  9.428901111271964E-006
  5.942723944966184E-004  9.428901111271964E-006
  5.942781920606830E-004  9.428901111271964E-006
  6.090357768354913E-004  9.428901111271964E-006
  6.102497126494861E-004  9.428901111271964E-006
  6.504383394546108E-004  9.428901111271964E-006
  6.508075060912247E-004  9.428901111271964E-006
  7.564523352732717E-004  9.428901111271964E-006
  7.694887508604776E-004  9.428901111271964E-006
  1.016749434164353E-003  9.428901111271964E-006
  1.064718180427235E-003  9.428901111271964E-006
  1.065171956636199E-003  9.428901111271964E-006
  1.110418804553221E-003  9.428901111271964E-006
  1.138255619978126E-003  9.428901111271964E-006
  1.138282230665194E-003  9.428901111271964E-006
  1.168416171869802E-003  9.428901111271964E-006
  1.168490676798047E-003  9.428901111271964E-006
  1.247462482742330E-003  9.428901111271964E-006
  1.606714881702950E-003  9.428901111271964E-006
  1.719794984066860E-003  9.428901111271964E-006
  1.940770405145532E-003  9.428901111271964E-006
  2.127035582974226E-003  9.428901111271964E-006
  2.622367670892719E-003  9.428901111271964E-006
  3.085959766789438E-003  9.428901111271964E-006
  3.093853615508027E-003  9.428901111271964E-006
  3.937448097210770E-003  9.428901111271964E-006
  3.937939542597124E-003  9.428901111271964E-006
 cut=1d-8, nber non-redundant internal coords=          72
 Check on Eigenvals of non-red overlap matrix:
  0.00000943  0.00000975  0.00001160  0.00001379  0.00001485  0.00001941  0.00002371  0.00002442
  0.00002607  0.00003123  0.00003949  0.00004546  0.00004753  0.00005382  0.00006173  0.00006342
  0.00006395  0.00006683  0.00008527  0.00008946  0.00009292  0.00009841  0.00010949  0.00011161
  0.00011760  0.00013383  0.00014987  0.00015882  0.00017452  0.00021056  0.00021155  0.00021465
  0.00025829  0.00030532  0.00032007  0.00032332  0.00032528  0.00037640  0.00038673  0.00038705
  0.00040593  0.00040912  0.00044538  0.00046332  0.00047739  0.00055385  0.00059427  0.00059428
  0.00060904  0.00061025  0.00065044  0.00065081  0.00075645  0.00076949  0.00101675  0.00106472
  0.00106517  0.00111042  0.00113826  0.00113828  0.00116842  0.00116849  0.00124746  0.00160671
  0.00171979  0.00194077  0.00212704  0.00262237  0.00308596  0.00309385  0.00393745  0.00393794
 Checking for correct frequencies
 recalc frequencies=
    -0.0   -0.0    0.0    0.0    0.0    0.0   53.3   63.8   73.9  136.8
   185.8  202.6  280.8  290.5  291.3  341.4  351.5  370.1  374.1  376.5
   376.7  425.3  461.2  486.2  500.5  512.6  525.7  562.3  619.7  647.8
   658.0  726.8  737.8  762.8  775.3  802.6  804.5  820.2  821.9  848.8
   919.8  973.4  985.1  988.7  998.9 1002.7 1015.2 1024.3 1051.1 1093.0
  1099.6 1174.8 1182.7 1247.7 1256.5 1258.2 1268.2 1319.3 1337.9 1346.9
  1417.4 1425.9 1483.2 1497.2 1520.0 1576.2 1581.9 1598.6 1599.2 1663.4
  1677.8 1682.2 3147.6 3147.7 3177.2 3177.3 3181.2 3181.5
 recalc symmetries=
     B2u    B1u    B3g    B2g    B1g    B3u    Au     B1u    B2g    B1u
     B3g    Au     B2g    B3u    B2u    B1g    Ag     B2u    B1g    Ag 
     B3g    B1u    Ag     B2u    Au     B1u    B3u    B2g    B3g    B1g
     B3u    B1u    B2g    B1g    B2g    B2u    Ag     Au     B1u    B2g
     B3u    B2u    B3g    Au     B1u    B2g    B3u    Ag     B1g    Ag 
     B3u    B2u    B1g    B1g    Ag     B2u    B3u    Ag     B1g    B2u
     B2u    B3u    B1g    Ag     B2u    B1g    B2u    B3u    Ag     B1g
     Ag     B3u    B3u    Ag     B2u    B1g    B3u    Ag 
 recalc freqs check OK
 Zero-point lengths:
 10.0000 10.0000 10.0000 10.0000 10.0000 10.0000 33.9603 31.0299 28.8341 21.1931
 18.1866 17.4179 14.7943 14.5447 14.5261 13.4167 13.2228 12.8865 12.8177 12.7757
 12.7731 12.0216 11.5433 11.2434 11.0818 10.9494 10.8124 10.4543  9.9590  9.7403
  9.6644  9.1958  9.1268  8.9760  8.9037  8.7510  8.7403  8.6561  8.6476  8.5092
  8.1741  7.9460  7.8988  7.8843  7.8440  7.8289  7.7808  7.7460  7.6468  7.4988
  7.4761  7.2328  7.2086  7.0186  6.9939  6.9890  6.9615  6.8254  6.7778  6.7551
  6.5848  6.5652  6.4372  6.4071  6.3588  6.2444  6.2331  6.2005  6.1994  6.0784
  6.0524  6.0444  4.4188  4.4188  4.3982  4.3981  4.3954  4.3952
 highest evec of mol 1
 -0.0014  0.0008  0.0000
  0.0015 -0.0019  0.0000
 -0.0015 -0.0019  0.0000
  0.0014  0.0008  0.0000
  0.0036 -0.0010  0.0000
 -0.0623 -0.1204  0.0000
 -0.0786  0.0000  0.0000
 -0.0623  0.1204  0.0000
  0.0036  0.0010  0.0000
 -0.0015  0.0019  0.0000
  0.0014 -0.0008  0.0000
  0.0015  0.0019  0.0000
 -0.0014 -0.0008  0.0000
 -0.0036  0.0010  0.0000
  0.0623  0.1204  0.0000
  0.0786  0.0000  0.0000
  0.0623 -0.1204  0.0000
 -0.0036 -0.0010  0.0000
 -0.0012  0.0000  0.0000
  0.0012  0.0000  0.0000
  0.2153  0.3904  0.0000
  0.2439  0.0000  0.0000
  0.2153 -0.3904  0.0000
 -0.2153 -0.3904  0.0000
 -0.2439  0.0000  0.0000
 -0.2153  0.3904  0.0000
 generating redundant internal coords
         300        3600          26
 Adding extra bonds for z output only
           8           6           6           8           6           6
           6           6           6           6           8           6
           8           6           6           6           6           6
           6           6           1           1           1           1
           1           1
 search for int coords
   1 str   2   1   1.231
   2 str   3   2   1.521
   3 str   4   3   1.231
   4 str   5   3   1.479
   5 str   6   5   1.397
   6 str   7   6   1.392
   7 str   8   7   1.392
   8 str   9   8   1.397
   9 str  10   9   1.479
  10 str  11  10   1.231
  11 str  12  10   1.521
  12 str  13  12   1.231
  13 str  14  12   1.479
  14 str  15  14   1.397
  15 str  16  15   1.392
  16 str  17  16   1.392
  17 str  18   2   1.479
  18 str  18  17   1.397
  19 str  19  14   1.426
  20 str  19  18   1.426
  21 str  20   5   1.426
  22 str  20   9   1.426
  23 str  20  19   1.430
  24 str  21   6   1.085
  25 str  22   7   1.086
  26 str  23   8   1.085
  27 str  24  15   1.085
  28 str  25  16   1.086
  29 str  26  17   1.085
 nber stretches=          29
  30 ben   1   2   3
  31 prop tor   1   2   3   4
  32 prop tor   1   2   3   5
  33 ben   1   2  18
  34 prop tor   1   2  18  17
  35 prop tor   1   2  18  19
  36 ben   2   3   4
  37 ben   2   3   5
  38 prop tor   2   3   5   6
  39 prop tor   2   3   5  20
  40 ben   2  18  17
  41 ben   2  18  19
  42 prop tor   2  18  19  14
  43 prop tor   2  18  19  20
  44 ben   3   2  18
  45 prop tor   3   2  18  17
  46 prop tor   3   2  18  19
  47 ben   3   5   6
  48 prop tor   3   5   6   7
  49 prop tor   3   5   6  21
  50 ben   3   5  20
  51 prop tor   3   5  20   9
  52 prop tor   3   5  20  19
  53 ben   4   3   5
  54 prop tor   4   3   5   6
  55 prop tor   4   3   5  20
  56 ben   5   6   7
  57 prop tor   5   6   7   8
  58 prop tor   5   6   7  22
  59 ben   5   6  21
  60 ben   5  20   9
  61 ben   5  20  19
  62 ben   6   5  20
  63 prop tor   6   5  20   9
  64 prop tor   6   5  20  19
  65 ben   6   7   8
  66 prop tor   6   7   8   9
  67 prop tor   6   7   8  23
  68 ben   6   7  22
  69 ben   7   6  21
  70 ben   7   8   9
  71 prop tor   7   8   9  10
  72 prop tor   7   8   9  20
  73 ben   7   8  23
  74 ben   8   7  22
  75 ben   8   9  10
  76 prop tor   8   9  10  11
  77 prop tor   8   9  10  12
  78 ben   8   9  20
  79 prop tor   8   9  20   5
  80 prop tor   8   9  20  19
  81 ben   9   8  23
  82 ben   9  10  11
  83 ben   9  10  12
  84 prop tor   9  10  12  13
  85 prop tor   9  10  12  14
  86 ben   9  20  19
  87 ben  10   9  20
  88 prop tor  10   9  20   5
  89 prop tor  10   9  20  19
  90 ben  10  12  13
  91 ben  10  12  14
  92 prop tor  10  12  14  15
  93 prop tor  10  12  14  19
  94 ben  11  10  12
  95 prop tor  11  10  12  13
  96 prop tor  11  10  12  14
  97 ben  12  14  15
  98 prop tor  12  14  15  16
  99 prop tor  12  14  15  24
 100 ben  12  14  19
 101 prop tor  12  14  19  18
 102 prop tor  12  14  19  20
 103 ben  13  12  14
 104 prop tor  13  12  14  15
 105 prop tor  13  12  14  19
 106 ben  14  15  16
 107 prop tor  14  15  16  17
 108 prop tor  14  15  16  25
 109 ben  14  15  24
 110 ben  14  19  18
 111 ben  14  19  20
 112 prop tor  14  19  20   5
 113 prop tor  14  19  20   9
 114 ben  15  14  19
 115 prop tor  15  14  19  18
 116 prop tor  15  14  19  20
 117 ben  15  16  17
 118 prop tor  15  16  17  18
 119 prop tor  15  16  17  26
 120 ben  15  16  25
 121 ben  16  15  24
 122 ben  16  17  18
 123 prop tor  16  17  18   2
 124 prop tor  16  17  18  19
 125 ben  16  17  26
 126 ben  17  16  25
 127 ben  17  18  19
 128 prop tor  17  18  19  14
 129 prop tor  17  18  19  20
 130 prop tor  18   2   3   4
 131 prop tor  18   2   3   5
 132 ben  18  17  26
 133 ben  18  19  20
 134 prop tor  18  19  20   5
 135 prop tor  18  19  20   9
 136 prop tor  19  14  15  16
 137 prop tor  19  14  15  24
 138 prop tor  20   5   6   7
 139 prop tor  20   5   6  21
 140 prop tor  20   9  10  11
 141 prop tor  20   9  10  12
 142 prop tor  21   6   7   8
 143 prop tor  21   6   7  22
 144 prop tor  22   7   8   9
 145 prop tor  22   7   8  23
 146 prop tor  23   8   9  10
 147 prop tor  23   8   9  20
 148 prop tor  24  15  16  17
 149 prop tor  24  15  16  25
 150 prop tor  25  16  17  18
 151 prop tor  25  16  17  26
 152 prop tor  26  17  18   2
 153 prop tor  26  17  18  19
 nber bend=              48
 nber lin bend=           0
 nber prop tor=          76
 nber impr tor=           0
 nber tot redund int=         153
 Reading file: 
 ./conjugated_carbonyls_0_C-2S0.log                                             
                                          
  Entering Gaussian System, Link 0=g16                                          
  
 Gaussian format, type: g94, g98, g03= F F F
  #P Geom=AllCheck Guess=TCheck SCRF=Check Test GenChk UB3LYP/6-311G(d,p    
 energy type= B3LYP   
 Original G94 input coords:
  8  1.396465 -3.616902  0.000000
  6  0.740267 -2.545868  0.000000
  6 -0.740267 -2.545868  0.000000
  8 -1.396465 -3.616902  0.000000
  6 -1.427618 -1.235923  0.000000
  6 -2.831512 -1.209216  0.000000
  6 -3.522389  0.000000  0.000000
  6 -2.831512  1.209216  0.000000
  6 -1.427618  1.235923  0.000000
  6 -0.740267  2.545868  0.000000
  8 -1.396465  3.616902  0.000000
  6  0.740267  2.545868  0.000000
  8  1.396465  3.616902  0.000000
  6  1.427618  1.235923  0.000000
  6  2.831512  1.209216  0.000000
  6  3.522389  0.000000  0.000000
  6  2.831512 -1.209216  0.000000
  6  1.427618 -1.235923  0.000000
  6  0.717134  0.000000  0.000000
  6 -0.717134  0.000000  0.000000
  1 -3.342444 -2.166002  0.000000
  1 -4.612171  0.000000  0.000000
  1 -3.342444  2.166002  0.000000
  1  3.342444  2.166002  0.000000
  1  4.612171  0.000000  0.000000
  1  3.342444 -2.166002  0.000000
 nber atoms=          26
  SCF Done:  E(UB3LYP) =  -914.467643967     A.U. after    1 cycles             
  
          23          40 "  -914.467643967"
After scan for Atom:   Atom  AN      X      Y      Z        X      Y      Z        X      Y      Z   
After scan for Atom:   Atom  AN      X      Y      Z        X      Y      Z        X      Y      Z   
After scan for Atom:   Atom  AN      X      Y      Z        X      Y      Z        X      Y      Z   
After scan for Atom:   Atom  AN      X      Y      Z        X      Y      Z        X      Y      Z   
After scan for Atom:   Atom  AN      X      Y      Z        X      Y      Z        X      Y      Z   
After scan for Atom:   Atom  AN      X      Y      Z        X      Y      Z        X      Y      Z   
After scan for Atom:   Atom  AN      X      Y      Z        X      Y      Z        X      Y      Z   
After scan for Atom:   Atom  AN      X      Y      Z        X      Y      Z        X      Y      Z   
After scan for Atom:   Atom  AN      X      Y      Z        X      Y      Z        X      Y      Z   
After scan for Atom:   Atom  AN      X      Y      Z        X      Y      Z        X      Y      Z   
After scan for Atom:   Atom  AN      X      Y      Z        X      Y      Z        X      Y      Z   
After scan for Atom:   Atom  AN      X      Y      Z        X      Y      Z        X      Y      Z   
After scan for Atom:   Atom  AN      X      Y      Z        X      Y      Z        X      Y      Z   
After scan for Atom:   Atom  AN      X      Y      Z        X      Y      Z        X      Y      Z   
After scan for Atom:   Atom  AN      X      Y      Z        X      Y      Z        X      Y      Z   
After scan for Atom:   Atom  AN      X      Y      Z        X      Y      Z        X      Y      Z   
After scan for Atom:   Atom  AN      X      Y      Z        X      Y      Z        X      Y      Z   
After scan for Atom:   Atom  AN      X      Y      Z        X      Y      Z        X      Y      Z   
After scan for Atom:   Atom  AN      X      Y      Z        X      Y      Z        X      Y      Z   
After scan for Atom:   Atom  AN      X      Y      Z        X      Y      Z        X      Y      Z   
After scan for Atom:   Atom  AN      X      Y      Z        X      Y      Z        X      Y      Z   
After scan for Atom:   Atom  AN      X      Y      Z        X      Y      Z        X      Y      Z   
After scan for Atom:   Atom  AN      X      Y      Z        X      Y      Z        X      Y      Z   
After scan for Atom:   Atom  AN      X      Y      Z        X      Y      Z        X      Y      Z   
 g94    frequencies=
     0.0    0.0    0.0    0.0    0.0    0.0   62.8   66.9   87.0  141.6
   187.2  205.7  290.7  300.7  332.3  340.0  352.5  374.8  377.0  379.9
   383.9  445.3  470.6  508.8  513.3  520.1  528.3  567.8  642.5  643.3
   658.7  711.7  722.7  737.4  754.3  769.0  798.3  802.4  806.6  828.7
   911.9  912.4  917.7  946.5  950.0 1006.4 1048.0 1056.8 1082.0 1085.8
  1088.6 1152.7 1165.0 1243.2 1252.5 1258.3 1270.9 1302.8 1339.3 1359.2
  1402.7 1438.5 1454.5 1481.9 1501.9 1526.7 1534.7 1563.6 1579.1 1595.0
  1600.2 1606.0 3090.9 3091.6 3167.2 3167.4 3169.7 3170.4
 g94    symmetries=
                                                 A      A      A      A
       A      A      A      A      A      A      A      A      A      A
       A      A      A      A      A      A      A      A      A      A
       A      A      A      A      A      A      A      A      A      A
       A      A      A      A      A      A      A      A      A      A
       A      A      A      A      A      A      A      A      A      A
       A      A      A      A      A      A      A      A      A      A
       A      A      A      A      A      A      A      A
 atomic masses:
 15.9949 12.0000 12.0000 15.9949 12.0000 12.0000 12.0000 12.0000 12.0000 12.0000
 15.9949 12.0000 15.9949 12.0000 12.0000 12.0000 12.0000 12.0000 12.0000 12.0000
  1.0078  1.0078  1.0078  1.0078  1.0078  1.0078
 looking for force constants in 
 ./conjugated_carbonyls_0_C-2S0.fchk                                            
  
 Cartesian Force Constants                  R   N=        3081                  
  
 n3=          78        3081
 g94-fc frequencies=
    -7.5   -7.4   -6.6   -0.0    0.0    0.0   62.8   66.9   87.0  141.6
   187.2  205.7  290.7  300.7  332.4  340.0  352.5  374.8  377.0  379.9
   383.9  445.3  470.6  508.8  513.3  520.1  528.3  567.8  642.5  643.3
   658.7  711.7  722.8  737.4  754.3  769.0  798.3  802.4  806.6  828.7
   911.9  912.5  917.7  946.5  950.0 1006.4 1048.0 1056.8 1082.0 1085.8
  1088.6 1152.7 1165.1 1243.3 1252.6 1258.4 1270.9 1302.8 1339.3 1359.3
  1402.7 1438.5 1454.5 1482.0 1501.9 1526.8 1534.7 1563.7 1579.2 1595.0
  1600.2 1606.1 3091.0 3091.7 3167.2 3167.4 3169.7 3170.5
 at 99999: n3=          78
 symm operator            1 :  T  nop=           1
 symm operator            2 :  T  nop=           2
 symm operator            3 :  T  nop=           3
 symm operator            4 :  T  nop=           4
 symm operator            5 :  T  nop=           5
 symm operator            6 :  T  nop=           6
 symm operator            7 :  T  nop=           7
 The point group of the molecule is D2H
 enforcing symm op           1  jsymt=          -1          -1           1
 enforcing symm op           2  jsymt=          -1           1          -1
 enforcing symm op           3  jsymt=           1          -1          -1
 enforcing symm op           4  jsymt=          -1          -1          -1
 enforcing symm op           5  jsymt=           1           1          -1
 enforcing symm op           6  jsymt=           1          -1           1
 enforcing symm op           7  jsymt=          -1           1           1
 cartesian coord symmetries:
 Ag :   13 Au :    5 B1g:   13 B1u:    8 B2g:    8 B2u:   13 B3g:    5 B3u:   13
 Symmetry rotation matrix:
   1.00000   0.00000   0.00000
   0.00000   1.00000   0.00000
   0.00000   0.00000   1.00000

 Projecting out zero-frequency components
 generating redundant internal coords
         300        3600          26
 search for int coords
   1 str   2   1   1.256
   2 str   3   2   1.481
   3 str   4   3   1.256
   4 str   5   3   1.479
   5 str   6   5   1.404
   6 str   7   6   1.393
   7 str   8   7   1.393
   8 str   9   8   1.404
   9 str  10   9   1.479
  10 str  11  10   1.256
  11 str  12  10   1.481
  12 str  13  12   1.256
  13 str  14  12   1.479
  14 str  15  14   1.404
  15 str  16  15   1.393
  16 str  17  16   1.393
  17 str  18   2   1.479
  18 str  18  17   1.404
  19 str  19  14   1.426
  20 str  19  18   1.426
  21 str  20   5   1.426
  22 str  20   9   1.426
  23 str  20  19   1.434
  24 str  21   6   1.085
  25 str  22   7   1.090
  26 str  23   8   1.085
  27 str  24  15   1.085
  28 str  25  16   1.090
  29 str  26  17   1.085
 nber stretches=          29
  30 ben   1   2   3
  31 prop tor   1   2   3   4
  32 prop tor   1   2   3   5
  33 ben   1   2  18
  34 prop tor   1   2  18  17
  35 prop tor   1   2  18  19
  36 ben   2   3   4
  37 ben   2   3   5
  38 prop tor   2   3   5   6
  39 prop tor   2   3   5  20
  40 ben   2  18  17
  41 ben   2  18  19
  42 prop tor   2  18  19  14
  43 prop tor   2  18  19  20
  44 ben   3   2  18
  45 prop tor   3   2  18  17
  46 prop tor   3   2  18  19
  47 ben   3   5   6
  48 prop tor   3   5   6   7
  49 prop tor   3   5   6  21
  50 ben   3   5  20
  51 prop tor   3   5  20   9
  52 prop tor   3   5  20  19
  53 ben   4   3   5
  54 prop tor   4   3   5   6
  55 prop tor   4   3   5  20
  56 ben   5   6   7
  57 prop tor   5   6   7   8
  58 prop tor   5   6   7  22
  59 ben   5   6  21
  60 ben   5  20   9
  61 ben   5  20  19
  62 ben   6   5  20
  63 prop tor   6   5  20   9
  64 prop tor   6   5  20  19
  65 ben   6   7   8
  66 prop tor   6   7   8   9
  67 prop tor   6   7   8  23
  68 ben   6   7  22
  69 ben   7   6  21
  70 ben   7   8   9
  71 prop tor   7   8   9  10
  72 prop tor   7   8   9  20
  73 ben   7   8  23
  74 ben   8   7  22
  75 ben   8   9  10
  76 prop tor   8   9  10  11
  77 prop tor   8   9  10  12
  78 ben   8   9  20
  79 prop tor   8   9  20   5
  80 prop tor   8   9  20  19
  81 ben   9   8  23
  82 ben   9  10  11
  83 ben   9  10  12
  84 prop tor   9  10  12  13
  85 prop tor   9  10  12  14
  86 ben   9  20  19
  87 ben  10   9  20
  88 prop tor  10   9  20   5
  89 prop tor  10   9  20  19
  90 ben  10  12  13
  91 ben  10  12  14
  92 prop tor  10  12  14  15
  93 prop tor  10  12  14  19
  94 ben  11  10  12
  95 prop tor  11  10  12  13
  96 prop tor  11  10  12  14
  97 ben  12  14  15
  98 prop tor  12  14  15  16
  99 prop tor  12  14  15  24
 100 ben  12  14  19
 101 prop tor  12  14  19  18
 102 prop tor  12  14  19  20
 103 ben  13  12  14
 104 prop tor  13  12  14  15
 105 prop tor  13  12  14  19
 106 ben  14  15  16
 107 prop tor  14  15  16  17
 108 prop tor  14  15  16  25
 109 ben  14  15  24
 110 ben  14  19  18
 111 ben  14  19  20
 112 prop tor  14  19  20   5
 113 prop tor  14  19  20   9
 114 ben  15  14  19
 115 prop tor  15  14  19  18
 116 prop tor  15  14  19  20
 117 ben  15  16  17
 118 prop tor  15  16  17  18
 119 prop tor  15  16  17  26
 120 ben  15  16  25
 121 ben  16  15  24
 122 ben  16  17  18
 123 prop tor  16  17  18   2
 124 prop tor  16  17  18  19
 125 ben  16  17  26
 126 ben  17  16  25
 127 ben  17  18  19
 128 prop tor  17  18  19  14
 129 prop tor  17  18  19  20
 130 prop tor  18   2   3   4
 131 prop tor  18   2   3   5
 132 ben  18  17  26
 133 ben  18  19  20
 134 prop tor  18  19  20   5
 135 prop tor  18  19  20   9
 136 prop tor  19  14  15  16
 137 prop tor  19  14  15  24
 138 prop tor  20   5   6   7
 139 prop tor  20   5   6  21
 140 prop tor  20   9  10  11
 141 prop tor  20   9  10  12
 142 prop tor  21   6   7   8
 143 prop tor  21   6   7  22
 144 prop tor  22   7   8   9
 145 prop tor  22   7   8  23
 146 prop tor  23   8   9  10
 147 prop tor  23   8   9  20
 148 prop tor  24  15  16  17
 149 prop tor  24  15  16  25
 150 prop tor  25  16  17  18
 151 prop tor  25  16  17  26
 152 prop tor  26  17  18   2
 153 prop tor  26  17  18  19
 nber bend=              48
 nber lin bend=           0
 nber prop tor=          76
 nber impr tor=           0
 nber tot redund int=         153
 Eigenvalues of G in red int coords
    Gval -0.00000000 -0.00000000 -0.00000000 -0.00000000 -0.00000000 -0.00000000 -0.00000000 -0.00000000
    Gval -0.00000000 -0.00000000 -0.00000000 -0.00000000 -0.00000000 -0.00000000 -0.00000000 -0.00000000
    Gval -0.00000000 -0.00000000 -0.00000000 -0.00000000 -0.00000000 -0.00000000 -0.00000000 -0.00000000
    Gval -0.00000000 -0.00000000 -0.00000000 -0.00000000 -0.00000000 -0.00000000 -0.00000000 -0.00000000
    Gval -0.00000000 -0.00000000 -0.00000000 -0.00000000 -0.00000000 -0.00000000 -0.00000000 -0.00000000
    Gval -0.00000000 -0.00000000 -0.00000000 -0.00000000  0.00000000  0.00000000  0.00000000  0.00000000
    Gval  0.00000000  0.00000000  0.00000000  0.00000000  0.00000000  0.00000000  0.00000000  0.00000000
    Gval  0.00000000  0.00000000  0.00000000  0.00000000  0.00000000  0.00000000  0.00000000  0.00000000
    Gval  0.00000000  0.00000000  0.00000000  0.00000000  0.00000000  0.00000000  0.00000000  0.00000000
    Gval  0.00000000  0.00000000  0.00000000  0.00000000  0.00000000  0.00000000  0.00000000  0.00000000
    Gval  0.00000000  0.00000928  0.00000974  0.00001159  0.00001372  0.00001484  0.00001937  0.00002329
    Gval  0.00002394  0.00002614  0.00003129  0.00003967  0.00004561  0.00004701  0.00005377  0.00006139
    Gval  0.00006346  0.00006381  0.00006646  0.00008523  0.00008937  0.00009167  0.00009764  0.00010874
    Gval  0.00011103  0.00011722  0.00013369  0.00014859  0.00015525  0.00017395  0.00020846  0.00021021
    Gval  0.00021105  0.00025618  0.00030466  0.00031739  0.00032655  0.00032685  0.00036239  0.00038374
    Gval  0.00038473  0.00040776  0.00041676  0.00044953  0.00045961  0.00047770  0.00053822  0.00059426
    Gval  0.00059427  0.00060871  0.00060990  0.00064980  0.00065024  0.00076131  0.00077619  0.00101253
    Gval  0.00106049  0.00106091  0.00112818  0.00113887  0.00113890  0.00116331  0.00116340  0.00123383
    Gval  0.00161591  0.00171801  0.00192467  0.00211086  0.00261124  0.00310078  0.00310870  0.00391966
    Gval  0.00392016
  9.277017168260441E-006  9.277017168260441E-006
  9.744630313244136E-006  9.277017168260441E-006
  1.158802036786386E-005  9.277017168260441E-006
  1.372202467715052E-005  9.277017168260441E-006
  1.484449458036340E-005  9.277017168260441E-006
  1.937227498001163E-005  9.277017168260441E-006
  2.329025995344364E-005  9.277017168260441E-006
  2.394195248206560E-005  9.277017168260441E-006
  2.613762020808173E-005  9.277017168260441E-006
  3.128509822153831E-005  9.277017168260441E-006
  3.966867024534755E-005  9.277017168260441E-006
  4.560777438396888E-005  9.277017168260441E-006
  4.701324753608168E-005  9.277017168260441E-006
  5.377460144174867E-005  9.277017168260441E-006
  6.139441286307806E-005  9.277017168260441E-006
  6.345934066585852E-005  9.277017168260441E-006
  6.381065756113209E-005  9.277017168260441E-006
  6.646329657162349E-005  9.277017168260441E-006
  8.523374096698472E-005  9.277017168260441E-006
  8.937481713198128E-005  9.277017168260441E-006
  9.166552054754747E-005  9.277017168260441E-006
  9.763968883404683E-005  9.277017168260441E-006
  1.087403237048402E-004  9.277017168260441E-006
  1.110319650250000E-004  9.277017168260441E-006
  1.172222877370526E-004  9.277017168260441E-006
  1.336944022499791E-004  9.277017168260441E-006
  1.485938598901601E-004  9.277017168260441E-006
  1.552539845739182E-004  9.277017168260441E-006
  1.739513564164343E-004  9.277017168260441E-006
  2.084617999936901E-004  9.277017168260441E-006
  2.102121178927769E-004  9.277017168260441E-006
  2.110468496939702E-004  9.277017168260441E-006
  2.561825808889890E-004  9.277017168260441E-006
  3.046606396467409E-004  9.277017168260441E-006
  3.173855879224720E-004  9.277017168260441E-006
  3.265487593771999E-004  9.277017168260441E-006
  3.268472323166367E-004  9.277017168260441E-006
  3.623885447502981E-004  9.277017168260441E-006
  3.837351536689042E-004  9.277017168260441E-006
  3.847340625496334E-004  9.277017168260441E-006
  4.077592909832339E-004  9.277017168260441E-006
  4.167558250150982E-004  9.277017168260441E-006
  4.495348848454183E-004  9.277017168260441E-006
  4.596057779691838E-004  9.277017168260441E-006
  4.776984469940252E-004  9.277017168260441E-006
  5.382213438880677E-004  9.277017168260441E-006
  5.942587069522686E-004  9.277017168260441E-006
  5.942683895911343E-004  9.277017168260441E-006
  6.087084505674044E-004  9.277017168260441E-006
  6.098953420641265E-004  9.277017168260441E-006
  6.498042351555011E-004  9.277017168260441E-006
  6.502414013786359E-004  9.277017168260441E-006
  7.613116354255116E-004  9.277017168260441E-006
  7.761925042778078E-004  9.277017168260441E-006
  1.012532715105629E-003  9.277017168260441E-006
  1.060485818701229E-003  9.277017168260441E-006
  1.060912196572159E-003  9.277017168260441E-006
  1.128176300297842E-003  9.277017168260441E-006
  1.138871193374398E-003  9.277017168260441E-006
  1.138901048976502E-003  9.277017168260441E-006
  1.163309480235022E-003  9.277017168260441E-006
  1.163396969824795E-003  9.277017168260441E-006
  1.233833567380034E-003  9.277017168260441E-006
  1.615907451395420E-003  9.277017168260441E-006
  1.718013167834605E-003  9.277017168260441E-006
  1.924669616156315E-003  9.277017168260441E-006
  2.110855606035434E-003  9.277017168260441E-006
  2.611242605745368E-003  9.277017168260441E-006
  3.100778026896203E-003  9.277017168260441E-006
  3.108698775301892E-003  9.277017168260441E-006
  3.919657520518411E-003  9.277017168260441E-006
  3.920159661172392E-003  9.277017168260441E-006
 cut=1d-8, nber non-redundant internal coords=          72
 Check on Eigenvals of non-red overlap matrix:
  0.00000928  0.00000974  0.00001159  0.00001372  0.00001484  0.00001937  0.00002329  0.00002394
  0.00002614  0.00003129  0.00003967  0.00004561  0.00004701  0.00005377  0.00006139  0.00006346
  0.00006381  0.00006646  0.00008523  0.00008937  0.00009167  0.00009764  0.00010874  0.00011103
  0.00011722  0.00013369  0.00014859  0.00015525  0.00017395  0.00020846  0.00021021  0.00021105
  0.00025618  0.00030466  0.00031739  0.00032655  0.00032685  0.00036239  0.00038374  0.00038473
  0.00040776  0.00041676  0.00044953  0.00045961  0.00047770  0.00053822  0.00059426  0.00059427
  0.00060871  0.00060990  0.00064980  0.00065024  0.00076131  0.00077619  0.00101253  0.00106049
  0.00106091  0.00112818  0.00113887  0.00113890  0.00116331  0.00116340  0.00123383  0.00161591
  0.00171801  0.00192467  0.00211086  0.00261124  0.00310078  0.00310870  0.00391966  0.00392016
 Checking for correct frequencies
 recalc frequencies=
    -0.0   -0.0   -0.0   -0.0    0.0    0.0   62.8   66.9   87.0  141.6
   187.2  205.7  290.7  300.7  332.4  340.0  352.5  374.8  377.0  379.9
   383.9  445.3  470.6  508.8  513.3  520.1  528.3  567.8  642.5  643.3
   658.7  711.7  722.8  737.4  754.3  769.0  798.3  802.4  806.6  828.7
   911.9  912.5  917.7  946.5  950.0 1006.4 1048.0 1056.8 1082.0 1085.8
  1088.6 1152.7 1165.1 1243.3 1252.6 1258.4 1270.9 1302.8 1339.3 1359.3
  1402.7 1438.5 1454.5 1482.0 1501.9 1526.8 1534.7 1563.7 1579.2 1595.0
  1600.2 1606.1 3091.0 3091.7 3167.2 3167.4 3169.7 3170.5
 recalc symmetries=
     B2u    B2g    B1u    B3g    B1g    B3u    Au     B1u    B2g    B1u
     B3g    Au     B3u    B2g    B2u    B1g    Ag     Ag     B3g    B1g
     B2u    B1u    Ag     Au     B2u    B1u    B3u    B2g    B3g    B1g
     B3u    B2g    B1u    B2g    B1g    Au     B2g    B1u    Ag     B2u
     Au     B3g    B3u    B1u    B2g    B3u    Ag     B1g    B3u    B2u
     Ag     B2u    B1g    B1g    Ag     B3u    B2u    Ag     B2u    B1g
     B3u    B2u    B1g    Ag     B3u    B2u    B1g    Ag     B1g    B2u
     Ag     B3u    B3u    Ag     B1g    B2u    B3u    Ag 
 recalc freqs check OK
 Zero-point lengths:
 10.0000 10.0000 10.0000 10.0000 10.0000 10.0000 31.2821 30.3129 26.5829 20.8368
 18.1170 17.2849 14.5413 14.2959 13.5986 13.4453 13.2038 12.8053 12.7681 12.7186
 12.6534 11.7482 11.4280 10.9910 10.9427 10.8709 10.7856 10.4036  9.7801  9.7744
  9.6594  9.2927  9.2214  9.1294  9.0268  8.9398  8.7745  8.7518  8.7289  8.6116
  8.2096  8.2071  8.1835  8.0579  8.0432  7.8147  7.6580  7.6260  7.5366  7.5236
  7.5138  7.3020  7.2631  7.0310  7.0048  6.9886  6.9541  6.8684  6.7741  6.7242
  6.6193  6.5364  6.5003  6.4399  6.3970  6.3447  6.3282  6.2694  6.2385  6.2075
  6.1973  6.1861  4.4591  4.4586  4.4051  4.4050  4.4034  4.4028
 highest evec of mol 2
  0.0016 -0.0007  0.0000
 -0.0011  0.0023  0.0000
  0.0011  0.0023  0.0000
 -0.0016 -0.0007  0.0000
 -0.0022  0.0015  0.0000
  0.0650  0.1252  0.0000
  0.0435  0.0000  0.0000
  0.0650 -0.1252  0.0000
 -0.0022 -0.0015  0.0000
  0.0011 -0.0023  0.0000
 -0.0016  0.0007  0.0000
 -0.0011 -0.0023  0.0000
  0.0016  0.0007  0.0000
  0.0022 -0.0015  0.0000
 -0.0650 -0.1252  0.0000
 -0.0435  0.0000  0.0000
 -0.0650  0.1252  0.0000
  0.0022  0.0015  0.0000
  0.0012  0.0000  0.0000
 -0.0012  0.0000  0.0000
 -0.2268 -0.4121  0.0000
 -0.1255  0.0000  0.0000
 -0.2268  0.4121  0.0000
  0.2268  0.4121  0.0000
  0.1255  0.0000  0.0000
  0.2268 -0.4121  0.0000
 Enter nber and list of atoms to keep of mol #2
 keep list:          26           1           2           3           4
           5           6           7           8           9          10
          11          12          13          14          15          16
          17          18          19          20          21          22
          23          24          25          26
 reordering atoms
           1  -3.61690200000000     
           2  -2.54586800000000     
           3  -2.54586800000000     
           4  -3.61690200000000     
           5  -1.23592300000000     
           6  -1.20921600000000     
           7  1.387889161341309E-016
           8   1.20921600000000     
           9   1.23592300000000     
          10   2.54586800000000     
          11   3.61690200000000     
          12   2.54586800000000     
          13   3.61690200000000     
          14   1.23592300000000     
          15   1.20921600000000     
          16  1.387889161341309E-016
          17  -1.20921600000000     
          18  -1.23592300000000     
          19  1.387889161341309E-016
          20  1.387889161341309E-016
          21  -2.16600200000000     
          22  1.387889161341309E-016
          23   2.16600200000000     
          24   2.16600200000000     
          25  1.387889161341309E-016
          26  -2.16600200000000     
           1           1
           2           2
           3           3
           4           4
           5           5
           6           6
           7           7
           8           8
           9           9
          10          10
          11          11
          12          12
          13          13
          14          14
          15          15
          16          16
          17          17
          18          18
          19          19
          20          20
          21          21
          22          22
          23          23
          24          24
          25          25
          26          26
 initial cartes coords mol 1
   8   0.00000   1.37794  -3.60638
   6   0.00000   0.76043  -2.54185
   6   0.00000  -0.76043  -2.54185
   8   0.00000  -1.37794  -3.60638
   6   0.00000  -1.43980  -1.22847
   6   0.00000  -2.83661  -1.20290
   6   0.00000  -3.53727   0.00000
   6   0.00000  -2.83661   1.20290
   6   0.00000  -1.43980   1.22847
   6   0.00000  -0.76043   2.54185
   8   0.00000  -1.37794   3.60638
   6   0.00000   0.76043   2.54185
   8   0.00000   1.37794   3.60638
   6   0.00000   1.43980   1.22847
   6   0.00000   2.83661   1.20290
   6   0.00000   3.53727   0.00000
   6   0.00000   2.83661  -1.20290
   6   0.00000   1.43980  -1.22847
   6   0.00000   0.71488   0.00000
   6   0.00000  -0.71488   0.00000
   1   0.00000  -3.35025  -2.15829
   1   0.00000  -4.62292   0.00000
   1   0.00000  -3.35025   2.15829
   1   0.00000   3.35025   2.15829
   1   0.00000   4.62292   0.00000
   1   0.00000   3.35025  -2.15829
 initial cartes coords mol 2
   8   0.00000   1.39647  -3.61690
   6   0.00000   0.74027  -2.54587
   6   0.00000  -0.74027  -2.54587
   8   0.00000  -1.39647  -3.61690
   6   0.00000  -1.42762  -1.23592
   6   0.00000  -2.83151  -1.20922
   6   0.00000  -3.52239   0.00000
   6   0.00000  -2.83151   1.20922
   6   0.00000  -1.42762   1.23592
   6   0.00000  -0.74027   2.54587
   8   0.00000  -1.39647   3.61690
   6   0.00000   0.74027   2.54587
   8   0.00000   1.39647   3.61690
   6   0.00000   1.42762   1.23592
   6   0.00000   2.83151   1.20922
   6   0.00000   3.52239   0.00000
   6   0.00000   2.83151  -1.20922
   6   0.00000   1.42762  -1.23592
   6   0.00000   0.71713   0.00000
   6   0.00000  -0.71713   0.00000
   1   0.00000  -3.34244  -2.16600
   1   0.00000  -4.61217   0.00000
   1   0.00000  -3.34244   2.16600
   1   0.00000   3.34244   2.16600
   1   0.00000   4.61217   0.00000
   1   0.00000   3.34244  -2.16600
 loop 1 0
 mod cartes coords mol 2
   8   0.00000   1.39647  -3.61690
   6   0.00000   0.74027  -2.54587
   6   0.00000  -0.74027  -2.54587
   8   0.00000  -1.39647  -3.61690
   6   0.00000  -1.42762  -1.23592
   6   0.00000  -2.83151  -1.20922
   6   0.00000  -3.52239   0.00000
   6   0.00000  -2.83151   1.20922
   6   0.00000  -1.42762   1.23592
   6   0.00000  -0.74027   2.54587
   8   0.00000  -1.39647   3.61690
   6   0.00000   0.74027   2.54587
   8   0.00000   1.39647   3.61690
   6   0.00000   1.42762   1.23592
   6   0.00000   2.83151   1.20922
   6   0.00000   3.52239   0.00000
   6   0.00000   2.83151  -1.20922
   6   0.00000   1.42762  -1.23592
   6   0.00000   0.71713   0.00000
   6   0.00000  -0.71713   0.00000
   1   0.00000  -3.34244  -2.16600
   1   0.00000  -4.61217   0.00000
   1   0.00000  -3.34244   2.16600
   1   0.00000   3.34244   2.16600
   1   0.00000   4.61217   0.00000
   1   0.00000   3.34244  -2.16600
 read in order, maxerr=  0.02 for atom   1
 final axis swaps:           1           1           1
 final xyz swap pattern=           1
 reorder list:
   1   2   3   4   5   6   7   8   9  10  11  12  13  14  15  16  17  18  19  20
  21  22  23  24  25  26
 axis signs=           1           1           1
  8     0.000000  1.396465 -3.616902     0.000000  1.377945 -3.606382
  6     0.000000  0.740267 -2.545868     0.000000  0.760426 -2.541846
  6     0.000000 -0.740267 -2.545868     0.000000 -0.760426 -2.541846
  8     0.000000 -1.396465 -3.616902     0.000000 -1.377945 -3.606382
  6     0.000000 -1.427618 -1.235923     0.000000 -1.439800 -1.228466
  6     0.000000 -2.831512 -1.209216     0.000000 -2.836614 -1.202901
  6     0.000000 -3.522389  0.000000     0.000000 -3.537274  0.000000
  6     0.000000 -2.831512  1.209216     0.000000 -2.836614  1.202901
  6     0.000000 -1.427618  1.235923     0.000000 -1.439800  1.228466
  6     0.000000 -0.740267  2.545868     0.000000 -0.760426  2.541846
  8     0.000000 -1.396465  3.616902     0.000000 -1.377945  3.606382
  6     0.000000  0.740267  2.545868     0.000000  0.760426  2.541846
  8     0.000000  1.396465  3.616902     0.000000  1.377945  3.606382
  6     0.000000  1.427618  1.235923     0.000000  1.439800  1.228466
  6     0.000000  2.831512  1.209216     0.000000  2.836614  1.202901
  6     0.000000  3.522389  0.000000     0.000000  3.537274  0.000000
  6     0.000000  2.831512 -1.209216     0.000000  2.836614 -1.202901
  6     0.000000  1.427618 -1.235923     0.000000  1.439800 -1.228466
  6     0.000000  0.717134  0.000000     0.000000  0.714880  0.000000
  6     0.000000 -0.717134  0.000000     0.000000 -0.714880  0.000000
  1     0.000000 -3.342444 -2.166002     0.000000 -3.350246 -2.158289
  1     0.000000 -4.612171  0.000000     0.000000 -4.622917  0.000000
  1     0.000000 -3.342444  2.166002     0.000000 -3.350246  2.158289
  1     0.000000  3.342444  2.166002     0.000000  3.350246  2.158289
  1     0.000000  4.612171  0.000000     0.000000  4.622917  0.000000
  1     0.000000  3.342444 -2.166002     0.000000  3.350246 -2.158289
 generating redundant internal coords
         300        3600          26
 Adding extra bonds for z output only
           8           6           6           8           6           6
           6           6           6           6           8           6
           8           6           6           6           6           6
           6           6           1           1           1           1
           1           1
 search for int coords
   1 str   2   1   1.256
   2 str   3   2   1.481
   3 str   4   3   1.256
   4 str   5   3   1.479
   5 str   6   5   1.404
   6 str   7   6   1.393
   7 str   8   7   1.393
   8 str   9   8   1.404
   9 str  10   9   1.479
  10 str  11  10   1.256
  11 str  12  10   1.481
  12 str  13  12   1.256
  13 str  14  12   1.479
  14 str  15  14   1.404
  15 str  16  15   1.393
  16 str  17  16   1.393
  17 str  18   2   1.479
  18 str  18  17   1.404
  19 str  19  14   1.426
  20 str  19  18   1.426
  21 str  20   5   1.426
  22 str  20   9   1.426
  23 str  20  19   1.434
  24 str  21   6   1.085
  25 str  22   7   1.090
  26 str  23   8   1.085
  27 str  24  15   1.085
  28 str  25  16   1.090
  29 str  26  17   1.085
 nber stretches=          29
  30 ben   1   2   3
  31 prop tor   1   2   3   4
  32 prop tor   1   2   3   5
  33 ben   1   2  18
  34 prop tor   1   2  18  17
  35 prop tor   1   2  18  19
  36 ben   2   3   4
  37 ben   2   3   5
  38 prop tor   2   3   5   6
  39 prop tor   2   3   5  20
  40 ben   2  18  17
  41 ben   2  18  19
  42 prop tor   2  18  19  14
  43 prop tor   2  18  19  20
  44 ben   3   2  18
  45 prop tor   3   2  18  17
  46 prop tor   3   2  18  19
  47 ben   3   5   6
  48 prop tor   3   5   6   7
  49 prop tor   3   5   6  21
  50 ben   3   5  20
  51 prop tor   3   5  20   9
  52 prop tor   3   5  20  19
  53 ben   4   3   5
  54 prop tor   4   3   5   6
  55 prop tor   4   3   5  20
  56 ben   5   6   7
  57 prop tor   5   6   7   8
  58 prop tor   5   6   7  22
  59 ben   5   6  21
  60 ben   5  20   9
  61 ben   5  20  19
  62 ben   6   5  20
  63 prop tor   6   5  20   9
  64 prop tor   6   5  20  19
  65 ben   6   7   8
  66 prop tor   6   7   8   9
  67 prop tor   6   7   8  23
  68 ben   6   7  22
  69 ben   7   6  21
  70 ben   7   8   9
  71 prop tor   7   8   9  10
  72 prop tor   7   8   9  20
  73 ben   7   8  23
  74 ben   8   7  22
  75 ben   8   9  10
  76 prop tor   8   9  10  11
  77 prop tor   8   9  10  12
  78 ben   8   9  20
  79 prop tor   8   9  20   5
  80 prop tor   8   9  20  19
  81 ben   9   8  23
  82 ben   9  10  11
  83 ben   9  10  12
  84 prop tor   9  10  12  13
  85 prop tor   9  10  12  14
  86 ben   9  20  19
  87 ben  10   9  20
  88 prop tor  10   9  20   5
  89 prop tor  10   9  20  19
  90 ben  10  12  13
  91 ben  10  12  14
  92 prop tor  10  12  14  15
  93 prop tor  10  12  14  19
  94 ben  11  10  12
  95 prop tor  11  10  12  13
  96 prop tor  11  10  12  14
  97 ben  12  14  15
  98 prop tor  12  14  15  16
  99 prop tor  12  14  15  24
 100 ben  12  14  19
 101 prop tor  12  14  19  18
 102 prop tor  12  14  19  20
 103 ben  13  12  14
 104 prop tor  13  12  14  15
 105 prop tor  13  12  14  19
 106 ben  14  15  16
 107 prop tor  14  15  16  17
 108 prop tor  14  15  16  25
 109 ben  14  15  24
 110 ben  14  19  18
 111 ben  14  19  20
 112 prop tor  14  19  20   5
 113 prop tor  14  19  20   9
 114 ben  15  14  19
 115 prop tor  15  14  19  18
 116 prop tor  15  14  19  20
 117 ben  15  16  17
 118 prop tor  15  16  17  18
 119 prop tor  15  16  17  26
 120 ben  15  16  25
 121 ben  16  15  24
 122 ben  16  17  18
 123 prop tor  16  17  18   2
 124 prop tor  16  17  18  19
 125 ben  16  17  26
 126 ben  17  16  25
 127 ben  17  18  19
 128 prop tor  17  18  19  14
 129 prop tor  17  18  19  20
 130 prop tor  18   2   3   4
 131 prop tor  18   2   3   5
 132 ben  18  17  26
 133 ben  18  19  20
 134 prop tor  18  19  20   5
 135 prop tor  18  19  20   9
 136 prop tor  19  14  15  16
 137 prop tor  19  14  15  24
 138 prop tor  20   5   6   7
 139 prop tor  20   5   6  21
 140 prop tor  20   9  10  11
 141 prop tor  20   9  10  12
 142 prop tor  21   6   7   8
 143 prop tor  21   6   7  22
 144 prop tor  22   7   8   9
 145 prop tor  22   7   8  23
 146 prop tor  23   8   9  10
 147 prop tor  23   8   9  20
 148 prop tor  24  15  16  17
 149 prop tor  24  15  16  25
 150 prop tor  25  16  17  18
 151 prop tor  25  16  17  26
 152 prop tor  26  17  18   2
 153 prop tor  26  17  18  19
 nber bend=              48
 nber lin bend=           0
 nber prop tor=          76
 nber impr tor=           0
 nber tot redund int=         153
 generating redundant internal coords
         300        3600          26
 search for int coords
   1 str   2   1   1.231
   2 str   3   2   1.521
   3 str   4   3   1.231
   4 str   5   3   1.479
   5 str   6   5   1.397
   6 str   7   6   1.392
   7 str   8   7   1.392
   8 str   9   8   1.397
   9 str  10   9   1.479
  10 str  11  10   1.231
  11 str  12  10   1.521
  12 str  13  12   1.231
  13 str  14  12   1.479
  14 str  15  14   1.397
  15 str  16  15   1.392
  16 str  17  16   1.392
  17 str  18   2   1.479
  18 str  18  17   1.397
  19 str  19  14   1.426
  20 str  19  18   1.426
  21 str  20   5   1.426
  22 str  20   9   1.426
  23 str  20  19   1.430
  24 str  21   6   1.085
  25 str  22   7   1.086
  26 str  23   8   1.085
  27 str  24  15   1.085
  28 str  25  16   1.086
  29 str  26  17   1.085
 nber stretches=          29
  30 ben   1   2   3
  31 prop tor   1   2   3   4
  32 prop tor   1   2   3   5
  33 ben   1   2  18
  34 prop tor   1   2  18  17
  35 prop tor   1   2  18  19
  36 ben   2   3   4
  37 ben   2   3   5
  38 prop tor   2   3   5   6
  39 prop tor   2   3   5  20
  40 ben   2  18  17
  41 ben   2  18  19
  42 prop tor   2  18  19  14
  43 prop tor   2  18  19  20
  44 ben   3   2  18
  45 prop tor   3   2  18  17
  46 prop tor   3   2  18  19
  47 ben   3   5   6
  48 prop tor   3   5   6   7
  49 prop tor   3   5   6  21
  50 ben   3   5  20
  51 prop tor   3   5  20   9
  52 prop tor   3   5  20  19
  53 ben   4   3   5
  54 prop tor   4   3   5   6
  55 prop tor   4   3   5  20
  56 ben   5   6   7
  57 prop tor   5   6   7   8
  58 prop tor   5   6   7  22
  59 ben   5   6  21
  60 ben   5  20   9
  61 ben   5  20  19
  62 ben   6   5  20
  63 prop tor   6   5  20   9
  64 prop tor   6   5  20  19
  65 ben   6   7   8
  66 prop tor   6   7   8   9
  67 prop tor   6   7   8  23
  68 ben   6   7  22
  69 ben   7   6  21
  70 ben   7   8   9
  71 prop tor   7   8   9  10
  72 prop tor   7   8   9  20
  73 ben   7   8  23
  74 ben   8   7  22
  75 ben   8   9  10
  76 prop tor   8   9  10  11
  77 prop tor   8   9  10  12
  78 ben   8   9  20
  79 prop tor   8   9  20   5
  80 prop tor   8   9  20  19
  81 ben   9   8  23
  82 ben   9  10  11
  83 ben   9  10  12
  84 prop tor   9  10  12  13
  85 prop tor   9  10  12  14
  86 ben   9  20  19
  87 ben  10   9  20
  88 prop tor  10   9  20   5
  89 prop tor  10   9  20  19
  90 ben  10  12  13
  91 ben  10  12  14
  92 prop tor  10  12  14  15
  93 prop tor  10  12  14  19
  94 ben  11  10  12
  95 prop tor  11  10  12  13
  96 prop tor  11  10  12  14
  97 ben  12  14  15
  98 prop tor  12  14  15  16
  99 prop tor  12  14  15  24
 100 ben  12  14  19
 101 prop tor  12  14  19  18
 102 prop tor  12  14  19  20
 103 ben  13  12  14
 104 prop tor  13  12  14  15
 105 prop tor  13  12  14  19
 106 ben  14  15  16
 107 prop tor  14  15  16  17
 108 prop tor  14  15  16  25
 109 ben  14  15  24
 110 ben  14  19  18
 111 ben  14  19  20
 112 prop tor  14  19  20   5
 113 prop tor  14  19  20   9
 114 ben  15  14  19
 115 prop tor  15  14  19  18
 116 prop tor  15  14  19  20
 117 ben  15  16  17
 118 prop tor  15  16  17  18
 119 prop tor  15  16  17  26
 120 ben  15  16  25
 121 ben  16  15  24
 122 ben  16  17  18
 123 prop tor  16  17  18   2
 124 prop tor  16  17  18  19
 125 ben  16  17  26
 126 ben  17  16  25
 127 ben  17  18  19
 128 prop tor  17  18  19  14
 129 prop tor  17  18  19  20
 130 prop tor  18   2   3   4
 131 prop tor  18   2   3   5
 132 ben  18  17  26
 133 ben  18  19  20
 134 prop tor  18  19  20   5
 135 prop tor  18  19  20   9
 136 prop tor  19  14  15  16
 137 prop tor  19  14  15  24
 138 prop tor  20   5   6   7
 139 prop tor  20   5   6  21
 140 prop tor  20   9  10  11
 141 prop tor  20   9  10  12
 142 prop tor  21   6   7   8
 143 prop tor  21   6   7  22
 144 prop tor  22   7   8   9
 145 prop tor  22   7   8  23
 146 prop tor  23   8   9  10
 147 prop tor  23   8   9  20
 148 prop tor  24  15  16  17
 149 prop tor  24  15  16  25
 150 prop tor  25  16  17  18
 151 prop tor  25  16  17  26
 152 prop tor  26  17  18   2
 153 prop tor  26  17  18  19
 nber bend=              48
 nber lin bend=           0
 nber prop tor=          76
 nber impr tor=           0
 nber tot redund int=         153
 Eigenvalues of G in red int coords
    Gval -0.00000000 -0.00000000 -0.00000000 -0.00000000 -0.00000000 -0.00000000 -0.00000000 -0.00000000
    Gval -0.00000000 -0.00000000 -0.00000000 -0.00000000 -0.00000000 -0.00000000 -0.00000000 -0.00000000
    Gval -0.00000000 -0.00000000 -0.00000000 -0.00000000 -0.00000000 -0.00000000 -0.00000000 -0.00000000
    Gval -0.00000000 -0.00000000 -0.00000000 -0.00000000 -0.00000000 -0.00000000 -0.00000000 -0.00000000
    Gval -0.00000000 -0.00000000 -0.00000000 -0.00000000  0.00000000  0.00000000  0.00000000  0.00000000
    Gval  0.00000000  0.00000000  0.00000000  0.00000000  0.00000000  0.00000000  0.00000000  0.00000000
    Gval  0.00000000  0.00000000  0.00000000  0.00000000  0.00000000  0.00000000  0.00000000  0.00000000
    Gval  0.00000000  0.00000000  0.00000000  0.00000000  0.00000000  0.00000000  0.00000000  0.00000000
    Gval  0.00000000  0.00000000  0.00000000  0.00000000  0.00000000  0.00000000  0.00000000  0.00000000
    Gval  0.00000000  0.00000000  0.00000000  0.00000000  0.00000000  0.00000000  0.00000000  0.00000000
    Gval  0.00000000  0.00000943  0.00000975  0.00001160  0.00001379  0.00001485  0.00001941  0.00002371
    Gval  0.00002442  0.00002607  0.00003123  0.00003949  0.00004546  0.00004753  0.00005382  0.00006173
    Gval  0.00006342  0.00006395  0.00006683  0.00008527  0.00008946  0.00009292  0.00009841  0.00010949
    Gval  0.00011161  0.00011760  0.00013383  0.00014987  0.00015882  0.00017452  0.00021056  0.00021155
    Gval  0.00021465  0.00025829  0.00030532  0.00032007  0.00032332  0.00032528  0.00037640  0.00038673
    Gval  0.00038705  0.00040593  0.00040912  0.00044538  0.00046332  0.00047739  0.00055385  0.00059427
    Gval  0.00059428  0.00060904  0.00061025  0.00065044  0.00065081  0.00075645  0.00076949  0.00101675
    Gval  0.00106472  0.00106517  0.00111042  0.00113826  0.00113828  0.00116842  0.00116849  0.00124746
    Gval  0.00160671  0.00171979  0.00194077  0.00212704  0.00262237  0.00308596  0.00309385  0.00393745
    Gval  0.00393794
  9.428901111271964E-006  9.428901111271964E-006
  9.752292869728463E-006  9.428901111271964E-006
  1.159908823178647E-005  9.428901111271964E-006
  1.378857067033026E-005  9.428901111271964E-006
  1.484869553918618E-005  9.428901111271964E-006
  1.941382855844877E-005  9.428901111271964E-006
  2.370588961711542E-005  9.428901111271964E-006
  2.441620455418411E-005  9.428901111271964E-006
  2.607375456096105E-005  9.428901111271964E-006
  3.123202322971473E-005  9.428901111271964E-006
  3.949358362213319E-005  9.428901111271964E-006
  4.545879873117090E-005  9.428901111271964E-006
  4.753066081220107E-005  9.428901111271964E-006
  5.381710495989841E-005  9.428901111271964E-006
  6.173259616027224E-005  9.428901111271964E-006
  6.341711676844391E-005  9.428901111271964E-006
  6.394722136950471E-005  9.428901111271964E-006
  6.683359993145400E-005  9.428901111271964E-006
  8.526693433565075E-005  9.428901111271964E-006
  8.945590983990324E-005  9.428901111271964E-006
  9.291558722921656E-005  9.428901111271964E-006
  9.840602860778448E-005  9.428901111271964E-006
  1.094893424803767E-004  9.428901111271964E-006
  1.116102036489478E-004  9.428901111271964E-006
  1.176044339064138E-004  9.428901111271964E-006
  1.338259113314819E-004  9.428901111271964E-006
  1.498747014171551E-004  9.428901111271964E-006
  1.588199894348636E-004  9.428901111271964E-006
  1.745190921034104E-004  9.428901111271964E-006
  2.105644417456236E-004  9.428901111271964E-006
  2.115549737184981E-004  9.428901111271964E-006
  2.146519421337985E-004  9.428901111271964E-006
  2.582851571667749E-004  9.428901111271964E-006
  3.053186533490053E-004  9.428901111271964E-006
  3.200680850831048E-004  9.428901111271964E-006
  3.233174218441639E-004  9.428901111271964E-006
  3.252752632383017E-004  9.428901111271964E-006
  3.763966148029813E-004  9.428901111271964E-006
  3.867252150208875E-004  9.428901111271964E-006
  3.870480942732968E-004  9.428901111271964E-006
  4.059264940707250E-004  9.428901111271964E-006
  4.091152180600543E-004  9.428901111271964E-006
  4.453753818777094E-004  9.428901111271964E-006
  4.633214738033717E-004  9.428901111271964E-006
  4.773880811561281E-004  9.428901111271964E-006
  5.538500532825399E-004  9.428901111271964E-006
  5.942723944966184E-004  9.428901111271964E-006
  5.942781920606830E-004  9.428901111271964E-006
  6.090357768354913E-004  9.428901111271964E-006
  6.102497126494861E-004  9.428901111271964E-006
  6.504383394546108E-004  9.428901111271964E-006
  6.508075060912247E-004  9.428901111271964E-006
  7.564523352732717E-004  9.428901111271964E-006
  7.694887508604776E-004  9.428901111271964E-006
  1.016749434164353E-003  9.428901111271964E-006
  1.064718180427235E-003  9.428901111271964E-006
  1.065171956636199E-003  9.428901111271964E-006
  1.110418804553221E-003  9.428901111271964E-006
  1.138255619978126E-003  9.428901111271964E-006
  1.138282230665194E-003  9.428901111271964E-006
  1.168416171869802E-003  9.428901111271964E-006
  1.168490676798047E-003  9.428901111271964E-006
  1.247462482742330E-003  9.428901111271964E-006
  1.606714881702950E-003  9.428901111271964E-006
  1.719794984066860E-003  9.428901111271964E-006
  1.940770405145532E-003  9.428901111271964E-006
  2.127035582974226E-003  9.428901111271964E-006
  2.622367670892719E-003  9.428901111271964E-006
  3.085959766789438E-003  9.428901111271964E-006
  3.093853615508027E-003  9.428901111271964E-006
  3.937448097210770E-003  9.428901111271964E-006
  3.937939542597124E-003  9.428901111271964E-006
 cut=1d-8, nber non-redundant internal coords=          72
 Check on Eigenvals of non-red overlap matrix:
  0.00000943  0.00000975  0.00001160  0.00001379  0.00001485  0.00001941  0.00002371  0.00002442
  0.00002607  0.00003123  0.00003949  0.00004546  0.00004753  0.00005382  0.00006173  0.00006342
  0.00006395  0.00006683  0.00008527  0.00008946  0.00009292  0.00009841  0.00010949  0.00011161
  0.00011760  0.00013383  0.00014987  0.00015882  0.00017452  0.00021056  0.00021155  0.00021465
  0.00025829  0.00030532  0.00032007  0.00032332  0.00032528  0.00037640  0.00038673  0.00038705
  0.00040593  0.00040912  0.00044538  0.00046332  0.00047739  0.00055385  0.00059427  0.00059428
  0.00060904  0.00061025  0.00065044  0.00065081  0.00075645  0.00076949  0.00101675  0.00106472
  0.00106517  0.00111042  0.00113826  0.00113828  0.00116842  0.00116849  0.00124746  0.00160671
  0.00171979  0.00194077  0.00212704  0.00262237  0.00308596  0.00309385  0.00393745  0.00393794
 generating redundant internal coords
         300        3600          26
 search for int coords
   1 str   2   1   1.256
   2 str   3   2   1.481
   3 str   4   3   1.256
   4 str   5   3   1.479
   5 str   6   5   1.404
   6 str   7   6   1.393
   7 str   8   7   1.393
   8 str   9   8   1.404
   9 str  10   9   1.479
  10 str  11  10   1.256
  11 str  12  10   1.481
  12 str  13  12   1.256
  13 str  14  12   1.479
  14 str  15  14   1.404
  15 str  16  15   1.393
  16 str  17  16   1.393
  17 str  18   2   1.479
  18 str  18  17   1.404
  19 str  19  14   1.426
  20 str  19  18   1.426
  21 str  20   5   1.426
  22 str  20   9   1.426
  23 str  20  19   1.434
  24 str  21   6   1.085
  25 str  22   7   1.090
  26 str  23   8   1.085
  27 str  24  15   1.085
  28 str  25  16   1.090
  29 str  26  17   1.085
 nber stretches=          29
  30 ben   1   2   3
  31 prop tor   1   2   3   4
  32 prop tor   1   2   3   5
  33 ben   1   2  18
  34 prop tor   1   2  18  17
  35 prop tor   1   2  18  19
  36 ben   2   3   4
  37 ben   2   3   5
  38 prop tor   2   3   5   6
  39 prop tor   2   3   5  20
  40 ben   2  18  17
  41 ben   2  18  19
  42 prop tor   2  18  19  14
  43 prop tor   2  18  19  20
  44 ben   3   2  18
  45 prop tor   3   2  18  17
  46 prop tor   3   2  18  19
  47 ben   3   5   6
  48 prop tor   3   5   6   7
  49 prop tor   3   5   6  21
  50 ben   3   5  20
  51 prop tor   3   5  20   9
  52 prop tor   3   5  20  19
  53 ben   4   3   5
  54 prop tor   4   3   5   6
  55 prop tor   4   3   5  20
  56 ben   5   6   7
  57 prop tor   5   6   7   8
  58 prop tor   5   6   7  22
  59 ben   5   6  21
  60 ben   5  20   9
  61 ben   5  20  19
  62 ben   6   5  20
  63 prop tor   6   5  20   9
  64 prop tor   6   5  20  19
  65 ben   6   7   8
  66 prop tor   6   7   8   9
  67 prop tor   6   7   8  23
  68 ben   6   7  22
  69 ben   7   6  21
  70 ben   7   8   9
  71 prop tor   7   8   9  10
  72 prop tor   7   8   9  20
  73 ben   7   8  23
  74 ben   8   7  22
  75 ben   8   9  10
  76 prop tor   8   9  10  11
  77 prop tor   8   9  10  12
  78 ben   8   9  20
  79 prop tor   8   9  20   5
  80 prop tor   8   9  20  19
  81 ben   9   8  23
  82 ben   9  10  11
  83 ben   9  10  12
  84 prop tor   9  10  12  13
  85 prop tor   9  10  12  14
  86 ben   9  20  19
  87 ben  10   9  20
  88 prop tor  10   9  20   5
  89 prop tor  10   9  20  19
  90 ben  10  12  13
  91 ben  10  12  14
  92 prop tor  10  12  14  15
  93 prop tor  10  12  14  19
  94 ben  11  10  12
  95 prop tor  11  10  12  13
  96 prop tor  11  10  12  14
  97 ben  12  14  15
  98 prop tor  12  14  15  16
  99 prop tor  12  14  15  24
 100 ben  12  14  19
 101 prop tor  12  14  19  18
 102 prop tor  12  14  19  20
 103 ben  13  12  14
 104 prop tor  13  12  14  15
 105 prop tor  13  12  14  19
 106 ben  14  15  16
 107 prop tor  14  15  16  17
 108 prop tor  14  15  16  25
 109 ben  14  15  24
 110 ben  14  19  18
 111 ben  14  19  20
 112 prop tor  14  19  20   5
 113 prop tor  14  19  20   9
 114 ben  15  14  19
 115 prop tor  15  14  19  18
 116 prop tor  15  14  19  20
 117 ben  15  16  17
 118 prop tor  15  16  17  18
 119 prop tor  15  16  17  26
 120 ben  15  16  25
 121 ben  16  15  24
 122 ben  16  17  18
 123 prop tor  16  17  18   2
 124 prop tor  16  17  18  19
 125 ben  16  17  26
 126 ben  17  16  25
 127 ben  17  18  19
 128 prop tor  17  18  19  14
 129 prop tor  17  18  19  20
 130 prop tor  18   2   3   4
 131 prop tor  18   2   3   5
 132 ben  18  17  26
 133 ben  18  19  20
 134 prop tor  18  19  20   5
 135 prop tor  18  19  20   9
 136 prop tor  19  14  15  16
 137 prop tor  19  14  15  24
 138 prop tor  20   5   6   7
 139 prop tor  20   5   6  21
 140 prop tor  20   9  10  11
 141 prop tor  20   9  10  12
 142 prop tor  21   6   7   8
 143 prop tor  21   6   7  22
 144 prop tor  22   7   8   9
 145 prop tor  22   7   8  23
 146 prop tor  23   8   9  10
 147 prop tor  23   8   9  20
 148 prop tor  24  15  16  17
 149 prop tor  24  15  16  25
 150 prop tor  25  16  17  18
 151 prop tor  25  16  17  26
 152 prop tor  26  17  18   2
 153 prop tor  26  17  18  19
 nber bend=              48
 nber lin bend=           0
 nber prop tor=          76
 nber impr tor=           0
 nber tot redund int=         153
 Eigenvalues of G in red int coords
    Gval -0.00000000 -0.00000000 -0.00000000 -0.00000000 -0.00000000 -0.00000000 -0.00000000 -0.00000000
    Gval -0.00000000 -0.00000000 -0.00000000 -0.00000000 -0.00000000 -0.00000000 -0.00000000 -0.00000000
    Gval -0.00000000 -0.00000000 -0.00000000 -0.00000000 -0.00000000 -0.00000000 -0.00000000 -0.00000000
    Gval -0.00000000 -0.00000000 -0.00000000 -0.00000000 -0.00000000 -0.00000000 -0.00000000 -0.00000000
    Gval -0.00000000 -0.00000000 -0.00000000 -0.00000000 -0.00000000 -0.00000000 -0.00000000 -0.00000000
    Gval -0.00000000  0.00000000  0.00000000  0.00000000  0.00000000  0.00000000  0.00000000  0.00000000
    Gval  0.00000000  0.00000000  0.00000000  0.00000000  0.00000000  0.00000000  0.00000000  0.00000000
    Gval  0.00000000  0.00000000  0.00000000  0.00000000  0.00000000  0.00000000  0.00000000  0.00000000
    Gval  0.00000000  0.00000000  0.00000000  0.00000000  0.00000000  0.00000000  0.00000000  0.00000000
    Gval  0.00000000  0.00000000  0.00000000  0.00000000  0.00000000  0.00000000  0.00000000  0.00000000
    Gval  0.00000000  0.00000928  0.00000974  0.00001159  0.00001372  0.00001484  0.00001937  0.00002329
    Gval  0.00002394  0.00002614  0.00003129  0.00003967  0.00004561  0.00004701  0.00005377  0.00006139
    Gval  0.00006346  0.00006381  0.00006646  0.00008523  0.00008937  0.00009167  0.00009764  0.00010874
    Gval  0.00011103  0.00011722  0.00013369  0.00014859  0.00015525  0.00017395  0.00020846  0.00021021
    Gval  0.00021105  0.00025618  0.00030466  0.00031739  0.00032655  0.00032685  0.00036239  0.00038374
    Gval  0.00038473  0.00040776  0.00041676  0.00044953  0.00045961  0.00047770  0.00053822  0.00059426
    Gval  0.00059427  0.00060871  0.00060990  0.00064980  0.00065024  0.00076131  0.00077619  0.00101253
    Gval  0.00106049  0.00106091  0.00112818  0.00113887  0.00113890  0.00116331  0.00116340  0.00123383
    Gval  0.00161591  0.00171801  0.00192467  0.00211086  0.00261124  0.00310078  0.00310870  0.00391966
    Gval  0.00392016
  9.277017168260363E-006  9.277017168260363E-006
  9.744630313244119E-006  9.277017168260363E-006
  1.158802036786383E-005  9.277017168260363E-006
  1.372202467715047E-005  9.277017168260363E-006
  1.484449458036344E-005  9.277017168260363E-006
  1.937227498001159E-005  9.277017168260363E-006
  2.329025995344363E-005  9.277017168260363E-006
  2.394195248206566E-005  9.277017168260363E-006
  2.613762020808171E-005  9.277017168260363E-006
  3.128509822153863E-005  9.277017168260363E-006
  3.966867024534745E-005  9.277017168260363E-006
  4.560777438396873E-005  9.277017168260363E-006
  4.701324753608144E-005  9.277017168260363E-006
  5.377460144174862E-005  9.277017168260363E-006
  6.139441286307793E-005  9.277017168260363E-006
  6.345934066585851E-005  9.277017168260363E-006
  6.381065756113208E-005  9.277017168260363E-006
  6.646329657162395E-005  9.277017168260363E-006
  8.523374096698456E-005  9.277017168260363E-006
  8.937481713198125E-005  9.277017168260363E-006
  9.166552054754715E-005  9.277017168260363E-006
  9.763968883404669E-005  9.277017168260363E-006
  1.087403237048398E-004  9.277017168260363E-006
  1.110319650249999E-004  9.277017168260363E-006
  1.172222877370524E-004  9.277017168260363E-006
  1.336944022499789E-004  9.277017168260363E-006
  1.485938598901598E-004  9.277017168260363E-006
  1.552539845739179E-004  9.277017168260363E-006
  1.739513564164343E-004  9.277017168260363E-006
  2.084617999936898E-004  9.277017168260363E-006
  2.102121178927763E-004  9.277017168260363E-006
  2.110468496939704E-004  9.277017168260363E-006
  2.561825808889884E-004  9.277017168260363E-006
  3.046606396467410E-004  9.277017168260363E-006
  3.173855879224716E-004  9.277017168260363E-006
  3.265487593771994E-004  9.277017168260363E-006
  3.268472323166366E-004  9.277017168260363E-006
  3.623885447502966E-004  9.277017168260363E-006
  3.837351536689036E-004  9.277017168260363E-006
  3.847340625496330E-004  9.277017168260363E-006
  4.077592909832336E-004  9.277017168260363E-006
  4.167558250150985E-004  9.277017168260363E-006
  4.495348848454185E-004  9.277017168260363E-006
  4.596057779691823E-004  9.277017168260363E-006
  4.776984469940235E-004  9.277017168260363E-006
  5.382213438880683E-004  9.277017168260363E-006
  5.942587069522681E-004  9.277017168260363E-006
  5.942683895911338E-004  9.277017168260363E-006
  6.087084505674028E-004  9.277017168260363E-006
  6.098953420641256E-004  9.277017168260363E-006
  6.498042351554992E-004  9.277017168260363E-006
  6.502414013786343E-004  9.277017168260363E-006
  7.613116354255090E-004  9.277017168260363E-006
  7.761925042778080E-004  9.277017168260363E-006
  1.012532715105629E-003  9.277017168260363E-006
  1.060485818701229E-003  9.277017168260363E-006
  1.060912196572159E-003  9.277017168260363E-006
  1.128176300297842E-003  9.277017168260363E-006
  1.138871193374394E-003  9.277017168260363E-006
  1.138901048976499E-003  9.277017168260363E-006
  1.163309480235021E-003  9.277017168260363E-006
  1.163396969824795E-003  9.277017168260363E-006
  1.233833567380030E-003  9.277017168260363E-006
  1.615907451395416E-003  9.277017168260363E-006
  1.718013167834604E-003  9.277017168260363E-006
  1.924669616156308E-003  9.277017168260363E-006
  2.110855606035433E-003  9.277017168260363E-006
  2.611242605745366E-003  9.277017168260363E-006
  3.100778026896196E-003  9.277017168260363E-006
  3.108698775301886E-003  9.277017168260363E-006
  3.919657520518404E-003  9.277017168260363E-006
  3.920159661172385E-003  9.277017168260363E-006
 cut=1d-8, nber non-redundant internal coords=          72
 Check on Eigenvals of non-red overlap matrix:
  0.00000928  0.00000974  0.00001159  0.00001372  0.00001484  0.00001937  0.00002329  0.00002394
  0.00002614  0.00003129  0.00003967  0.00004561  0.00004701  0.00005377  0.00006139  0.00006346
  0.00006381  0.00006646  0.00008523  0.00008937  0.00009167  0.00009764  0.00010874  0.00011103
  0.00011722  0.00013369  0.00014859  0.00015525  0.00017395  0.00020846  0.00021021  0.00021105
  0.00025618  0.00030466  0.00031739  0.00032655  0.00032685  0.00036239  0.00038374  0.00038473
  0.00040776  0.00041676  0.00044953  0.00045961  0.00047770  0.00053822  0.00059426  0.00059427
  0.00060871  0.00060990  0.00064980  0.00065024  0.00076131  0.00077619  0.00101253  0.00106049
  0.00106091  0.00112818  0.00113887  0.00113890  0.00116331  0.00116340  0.00123383  0.00161591
  0.00171801  0.00192467  0.00211086  0.00261124  0.00310078  0.00310870  0.00391966  0.00392016
 d1=
  -0.0  -3.0   0.0  -0.0  -5.1   0.0   4.7  -0.0  -0.0   0.0   0.0   0.0  -0.0   0.0   1.6   0.0  -0.0  -0.0  -0.0   3.8
   0.0   1.7   0.0   0.0   0.0  -0.0   0.0  -0.0  -0.6  -0.0  -0.0  -0.0  -6.6   0.0  -0.0   0.0  -0.0  -0.0   1.8  -0.0
  -0.0   0.0  -0.0   0.0  -0.2  -0.0   0.3   0.0  -0.0  -0.0   0.2   0.0  -0.0   0.0   0.0   0.0  -0.0   0.0   0.9   0.0
  -0.0   0.0   0.0  -0.0   0.0  -0.0  -0.0   0.0   0.0  -0.0   0.0   0.0
 d2=
[...]
 nber times 1st assigned=          13           0
 nber times 1st assigned=          17           0
 nber times 1st assigned=          18           0
 nber times 1st assigned=          19           0
 nber times 1st assigned=          20           0
 nber times 1st assigned=          21           0
 nber times 1st assigned=          22           0
 nber times 1st assigned=          23           0
 nber times 1st assigned=          24           0
 nber times 1st assigned=          25           0
 nber times 1st assigned=          26           0
 nber times 1st assigned=          27           0
 nber times 1st assigned=          28           0
 nber times 1st assigned=          29           0
 nber times 1st assigned=          30           0
 nber times 1st assigned=          31           0
 nber times 1st assigned=          32           0
 nber times 1st assigned=          33           0
 nber times 1st assigned=          34           0
 nber times 1st assigned=          35           0
 nber times 1st assigned=          36           0
 nber times 1st assigned=          37           0
 nber times 1st assigned=          38           0
 nber times 1st assigned=          39           0
 nber times 1st assigned=          40           0
 nber times 1st assigned=          41           0
 nber times 1st assigned=          42           0
 nber times 1st assigned=          43           0
 nber times 1st assigned=          44           0
 nber times 1st assigned=          45           0
 nber times 1st assigned=          46           0
 nber times 1st assigned=          47           0
 nber times 1st assigned=          48           0
 nber times 1st assigned=          49           0
 nber times 1st assigned=          50           0
 nber times 1st assigned=          51           0
 nber times 1st assigned=          52           0
 nber times 1st assigned=          53           0
 nber times 1st assigned=          54           0
 nber times 1st assigned=          55           0
 nber times 1st assigned=          56           0
 nber times 1st assigned=          57           0
 nber times 1st assigned=          58           0
 nber times 1st assigned=          59           0
 nber times 1st assigned=          60           0
 nber times 1st assigned=          61           0
 nber times 1st assigned=          62           0
 nber times 1st assigned=          63           0
 nber times 1st assigned=          64           0
 nber times 1st assigned=          65           0
 nber times 1st assigned=          66           0
 nber times 1st assigned=          67           0
 nber times 1st assigned=          68           0
 nber times 1st assigned=          69           0
 nber times 1st assigned=          70           0
 nber times 1st assigned=          71           0
 nber times 1st assigned=          72           0
 nber times 1st assigned=          73           0
 nber times 1st assigned=          74           0
 nber times 1st assigned=          75           0
 nber times 1st assigned=          76           0
 nber times 1st assigned=          77           0
 nber times 1st assigned=          78           0
 Dushinsky matrix written to .out file
 modes represented=   71.7762916846314     

 Dushinsky matrix, ncs 1 in terms of ncs 2

   mode   freq    coeff     %      %tot     of    at

   7 Au     53.  0.9985    99.7    99.1   7 Au     63.
   8 B1u    64.  0.9999   100.0   100.4   8 B1u    67.
   9 B2g    74. -0.9994    99.9    98.9   9 B2g    87.
  10 B1u   137.  0.9999   100.0   100.2  10 B1u   142.
  11 B3g   186.  0.9995    99.9    98.8  11 B3g   187.
  12 Au    203.  0.9973    99.5    98.9  12 Au    206.
  13 B2g   281.  0.9990    99.8   100.4  14 B2g   301.
  14 B3u   291. -0.9998   100.0    98.3  13 B3u   291.
  15 B2u   291.  0.9449    89.3    98.7  15 B2u   332.
  16 B1g   341.  0.9995    99.9    97.8  16 B1g   340.
  17 Ag    352. -0.9984    99.7   101.1  17 Ag    353.
  18 B2u   370.  0.9646    93.0    99.0  21 B2u   384.
  19 B1g   374.  0.9993    99.9   101.2  20 B1g   380.
  20 Ag    377.  0.9979    99.6    96.7  18 Ag    375.
  21 B3g   377.  0.9997    99.9    96.2  19 B3g   377.
  22 B1u   425.  0.9955    99.1    98.9  22 B1u   445.
  23 Ag    461.  0.9983    99.7    99.9  23 Ag    471.
  24 B2u   486.  0.9622    92.6    99.4  25 B2u   513.
  25 Au    500.  0.9977    99.5    99.5  24 Au    509.
  26 B1u   513.  0.9963    99.3    98.9  26 B1u   520.
  27 B3u   526. -0.9993    99.9   100.7  27 B3u   528.
  28 B2g   562. -0.9809    96.2    99.8  28 B2g   568.
  29 B3g   620.  0.9986    99.7    98.1  29 B3g   643.
  30 B1g   648. -0.9994    99.9   100.3  30 B1g   643.
  31 B3u   658. -0.9994    99.9    99.7  31 B3u   659.
  32 B1u   727.  0.9963    99.3    99.8  33 B1u   723.
  33 B2g   738.  0.9946    98.9   100.6  32 B2g   712.
  34 B1g   763.  0.9991    99.8    98.0  35 B1g   754.
  35 B2g   775.  0.9133    83.4    99.7  34 B2g   737.
                -0.3610    13.0          37 B2g   798.
  36 B2u   803.  0.9368    87.8    98.5  40 B2u   829.
  37 Ag    805. -0.9994    99.9   100.2  39 Ag    807.
  38 Au    820.  0.9987    99.7   101.6  36 Au    769.
  39 B1u   822.  0.9907    98.1    98.8  38 B1u   802.
  40 B2g   849.  0.3536    12.5    99.7  34 B2g   737.
                 0.9235    85.3          37 B2g   798.
  41 B3u   920.  0.9988    99.8   100.8  43 B3u   918.
  42 B2u   973.  0.3277    10.7   100.3  40 B2u   829.
                 0.8330    69.4          50 B2u  1086.
  43 B3g   985.  0.9991    99.8   100.4  42 B3g   912.
  44 Au    989.  0.9995    99.9   100.4  41 Au    912.
  45 B1u   999.  0.9935    98.7    99.9  44 B1u   947.
  46 B2g  1003.  0.9911    98.2    99.9  45 B2g   950.
  47 B3u  1015.  0.9980    99.6    99.9  46 B3u  1006.
  48 Ag   1024. -0.9195    84.5    98.8  47 Ag   1048.
                 0.3637    13.2          51 Ag   1089.
  49 B1g  1051. -0.9915    98.3   101.6  48 B1g  1057.
  50 Ag   1093. -0.3813    14.5    99.5  47 Ag   1048.
                -0.9220    85.0          51 Ag   1089.
  51 B3u  1100.  0.9986    99.7    99.9  49 B3u  1082.
  52 B2u  1175.  0.9392    88.2    99.9  52 B2u  1153.
  53 B1g  1183.  0.9989    99.8   100.0  53 B1g  1165.
  54 B1g  1248. -0.9715    94.4    99.7  54 B1g  1243.
  55 Ag   1256.  0.9601    92.2   100.1  55 Ag   1253.
  56 B2u  1258.  0.3176    10.1   100.3  50 B2u  1086.
                 0.7553    57.0          57 B2u  1271.
                -0.4302    18.5          59 B2u  1339.
  57 B3u  1268. -0.9933    98.7   100.8  56 B3u  1258.
  58 Ag   1319. -0.9682    93.7    99.7  58 Ag   1303.
  59 B1g  1338.  0.9695    94.0   100.1  60 B1g  1359.
  60 B2u  1347. -0.5562    30.9    99.2  57 B2u  1271.
                -0.7704    59.4          59 B2u  1339.
  61 B2u  1417.  0.7305    53.4    99.6  62 B2u  1438.
                 0.4607    21.2          70 B2u  1595.
  62 B3u  1426.  0.9562    91.4    99.8  61 B3u  1403.
  63 B1g  1483.  0.9374    87.9    99.7  63 B1g  1455.
                 0.3363    11.3          67 B1g  1535.
  64 Ag   1497.  0.9860    97.2    99.7  64 Ag   1482.
  65 B2u  1520.  0.6106    37.3    99.9  62 B2u  1438.
                -0.7287    53.1          70 B2u  1595.
  66 B1g  1576.  0.4527    20.5   100.0  67 B1g  1535.
                 0.8818    77.8          69 B1g  1579.
  67 B2u  1582.  0.9261    85.8    99.9  66 B2u  1527.
  68 B3u  1599. -0.8655    74.9    99.8  65 B3u  1502.
                -0.4364    19.0          72 B3u  1606.
  69 Ag   1599. -0.8262    68.3    99.6  68 Ag   1564.
                -0.5522    30.5          71 Ag   1600.
  70 B1g  1663. -0.3255    10.6   100.3  63 B1g  1455.
                 0.8240    67.9          67 B1g  1535.
                -0.4611    21.3          69 B1g  1579.
  71 Ag   1678. -0.5384    29.0   100.1  68 Ag   1564.
                 0.8268    68.4          71 Ag   1600.
  72 B3u  1682. -0.4149    17.2   100.1  65 B3u  1502.
                 0.8980    80.6          72 B3u  1606.
  73 B3u  3148.  0.9837    96.8   100.0  73 B3u  3091.
  74 Ag   3148.  0.9835    96.7   100.0  74 Ag   3092.
  75 B2u  3177.  1.0000   100.0   100.0  76 B2u  3167.
  76 B1g  3177.  1.0000   100.0   100.0  75 B1g  3167.
  77 B3u  3181.  0.9837    96.8   100.0  77 B3u  3170.
  78 Ag   3181. -0.9835    96.7   100.0  78 Ag   3170.
 nber times 1st assigned=           1           0
 nber times 1st assigned=           2           0
 nber times 1st assigned=           3           0
 nber times 1st assigned=           4           0
 nber times 1st assigned=           5           0
 nber times 1st assigned=           6           0
 nber times 1st assigned=           7           0
 nber times 1st assigned=           8           0
 nber times 1st assigned=           9           0
 nber times 1st assigned=          10           0
 nber times 1st assigned=          11           0
 nber times 1st assigned=          12           0
 nber times 1st assigned=          13           0
 nber times 1st assigned=          14           0
 nber times 1st assigned=          15           0
 nber times 1st assigned=          16           0
 nber times 1st assigned=          17           0
 nber times 1st assigned=          18           0
 nber times 1st assigned=          19           0
 nber times 1st assigned=          20           0
 nber times 1st assigned=          21           0
 nber times 1st assigned=          22           0
 nber times 1st assigned=          23           0
 nber times 1st assigned=          24           0
 nber times 1st assigned=          25           0
 nber times 1st assigned=          26           0
 nber times 1st assigned=          27           0
 nber times 1st assigned=          28           0
 nber times 1st assigned=          29           0
 nber times 1st assigned=          30           0
 nber times 1st assigned=          31           0
 nber times 1st assigned=          32           0
 nber times 1st assigned=          33           0
 nber times 1st assigned=          34           0
 nber times 1st assigned=          35           0
 nber times 1st assigned=          36           0
 nber times 1st assigned=          37           0
 nber times 1st assigned=          38           0
 nber times 1st assigned=          39           0
 nber times 1st assigned=          40           0
 nber times 1st assigned=          41           0
 nber times 1st assigned=          42           0
 nber times 1st assigned=          43           0
 nber times 1st assigned=          44           0
 nber times 1st assigned=          45           0
 nber times 1st assigned=          46           0
 nber times 1st assigned=          47           0
 nber times 1st assigned=          48           0
 nber times 1st assigned=          49           0
 nber times 1st assigned=          50           0
 nber times 1st assigned=          51           0
 nber times 1st assigned=          52           0
 nber times 1st assigned=          53           0
 nber times 1st assigned=          54           0
 nber times 1st assigned=          55           0
 nber times 1st assigned=          56           0
 nber times 1st assigned=          57           0
 nber times 1st assigned=          58           0
 nber times 1st assigned=          59           0
 nber times 1st assigned=          60           0
 nber times 1st assigned=          61           0
 nber times 1st assigned=          62           0
 nber times 1st assigned=          63           0
 nber times 1st assigned=          64           0
 nber times 1st assigned=          65           0
 nber times 1st assigned=          66           0
 nber times 1st assigned=          67           0
 nber times 1st assigned=          68           0
 nber times 1st assigned=          69           0
 nber times 1st assigned=          70           0
 nber times 1st assigned=          71           0
 nber times 1st assigned=          72           0
 nber times 1st assigned=          73           0
 nber times 1st assigned=          74           0
 nber times 1st assigned=          75           0
 nber times 1st assigned=          76           0
 nber times 1st assigned=          77           0
 nber times 1st assigned=          78           0
 modes represented=   71.7762916846314     
 p1=
   -0.   -0.    0.    0.    0.    0.   -0.   -0.   -0.   -0.    0.   -0.    0.    0.    0.   -0.    8.    0.   -0.    2.
    0.   -0.    1.   -0.    0.    0.   -0.    0.    0.   -0.    0.    0.    0.   -0.   -0.   -0.   -2.   -0.    0.    0.
   -0.   -0.   -0.   -0.   -0.    0.   -0.    4.    0.   -0.   -0.   -0.   -0.    0.   -2.    0.   -0.    0.   -0.   -0.
    0.   -0.    0.   -0.    0.   -0.    0.   -0.    4.    0.    4.   -0.   -0.   -0.    0.    0.   -0.   -0.
 p2=
    0.    0.   -0.    0.    0.   -0.    0.    0.   -0.    0.   -0.    0.    0.   -0.    0.   -0.    8.   -3.   -0.    0.
   -0.    0.   -1.   -0.    0.   -0.   -0.    0.   -0.   -0.    0.   -0.   -0.    0.   -0.    0.   -0.   -0.   -2.    0.
    0.    0.    0.   -0.   -0.    0.    3.    0.    0.   -0.   -1.    0.   -0.   -0.    2.   -0.   -0.    1.    0.    0.
    0.   -0.   -0.    1.   -0.   -0.    0.    6.    0.    0.   -1.    0.    0.    0.   -0.   -0.   -0.   -0.

 Displacement: in terms of nc of 1 THEN of nc of 2

   1 B2u freq=    -0. Q= -0.000 lam=    -0.0 B2u freq=    -0. Q= -0.000 lam=    -0.0
   2 B1u freq=    -0. Q= -0.000 lam=    -0.0 B2g freq=    -0. Q= -0.000 lam=    -0.0
   3 B3g freq=     0. Q=  0.000 lam=     0.0 B1u freq=    -0. Q=  0.000 lam=    -0.0
   4 B2g freq=     0. Q=  0.000 lam=     0.0 B3g freq=    -0. Q=  0.000 lam=    -0.0
   5 B1g freq=     0. Q=  0.000 lam=     0.0 B1g freq=     0. Q=  0.000 lam=     0.0
   6 B3u freq=     0. Q=  0.000 lam=     0.0 B3u freq=     0. Q=  0.000 lam=     0.0
   7 Au  freq=    53. Q= -0.000 lam=     0.0 Au  freq=    63. Q= -0.000 lam=     0.0
   8 B1u freq=    64. Q= -0.000 lam=     0.0 B1u freq=    67. Q= -0.000 lam=     0.0
   9 B2g freq=    74. Q= -0.000 lam=     0.0 B2g freq=    87. Q= -0.000 lam=     0.0
  10 B1u freq=   137. Q= -0.000 lam=     0.0 B1u freq=   142. Q= -0.000 lam=     0.0
  11 B3g freq=   186. Q=  0.000 lam=     0.0 B3g freq=   187. Q=  0.000 lam=     0.0
  12 Au  freq=   203. Q= -0.000 lam=     0.0 Au  freq=   206. Q= -0.000 lam=     0.0
  13 B2g freq=   281. Q=  0.000 lam=     0.0 B3u freq=   291. Q=  0.000 lam=     0.0
  14 B3u freq=   291. Q=  0.000 lam=     0.0 B2g freq=   301. Q=  0.000 lam=     0.0
  15 B2u freq=   291. Q=  0.000 lam=     0.0 B2u freq=   332. Q=  0.000 lam=     0.0
  16 B1g freq=   341. Q= -0.000 lam=     0.0 B1g freq=   340. Q= -0.000 lam=     0.0
  17 Ag  freq=   352. Q=  0.614 lam=    66.2 Ag  freq=   353. Q=  0.595 lam=    62.4
  18 B2u freq=   370. Q=  0.000 lam=     0.0 Ag  freq=   375. Q=  0.211 lam=     8.4
  19 B1g freq=   374. Q= -0.000 lam=     0.0 B3g freq=   377. Q= -0.000 lam=     0.0
  20 Ag  freq=   377. Q=  0.142 lam=     3.8 B1g freq=   380. Q=  0.000 lam=     0.0
  21 B3g freq=   377. Q=  0.000 lam=     0.0 B2u freq=   384. Q=  0.000 lam=     0.0
  22 B1u freq=   425. Q= -0.000 lam=     0.0 B1u freq=   445. Q= -0.000 lam=     0.0
  23 Ag  freq=   461. Q=  0.061 lam=     0.9 Ag  freq=   471. Q=  0.050 lam=     0.6
  24 B2u freq=   486. Q= -0.000 lam=     0.0 Au  freq=   509. Q= -0.000 lam=     0.0
  25 Au  freq=   500. Q=  0.000 lam=     0.0 B2u freq=   513. Q=  0.000 lam=     0.0
  26 B1u freq=   513. Q=  0.000 lam=     0.0 B1u freq=   520. Q=  0.000 lam=     0.0
  27 B3u freq=   526. Q= -0.000 lam=     0.0 B3u freq=   528. Q= -0.000 lam=     0.0
  28 B2g freq=   562. Q=  0.000 lam=     0.0 B2g freq=   568. Q=  0.000 lam=     0.0
  29 B3g freq=   620. Q=  0.000 lam=     0.0 B3g freq=   643. Q=  0.000 lam=     0.0
  30 B1g freq=   648. Q= -0.000 lam=     0.0 B1g freq=   643. Q= -0.000 lam=     0.0
  31 B3u freq=   658. Q=  0.000 lam=     0.0 B3u freq=   659. Q=  0.000 lam=     0.0
  32 B1u freq=   727. Q=  0.000 lam=     0.0 B2g freq=   712. Q=  0.000 lam=     0.0
  33 B2g freq=   738. Q=  0.000 lam=     0.0 B1u freq=   723. Q=  0.000 lam=     0.0
  34 B1g freq=   763. Q= -0.000 lam=     0.0 B2g freq=   737. Q= -0.000 lam=     0.0
  35 B2g freq=   775. Q= -0.000 lam=     0.0 B1g freq=   754. Q= -0.000 lam=     0.0
  36 B2u freq=   803. Q= -0.000 lam=     0.0 Au  freq=   769. Q= -0.000 lam=     0.0
  37 Ag  freq=   805. Q= -0.203 lam=    16.5 B2g freq=   798. Q= -0.000 lam=     0.0
  38 Au  freq=   820. Q= -0.000 lam=     0.0 B1u freq=   802. Q= -0.000 lam=     0.0
  39 B1u freq=   822. Q=  0.000 lam=     0.0 Ag  freq=   807. Q=  0.192 lam=    14.8
  40 B2g freq=   849. Q=  0.000 lam=     0.0 B2u freq=   829. Q=  0.000 lam=     0.0
  41 B3u freq=   920. Q= -0.000 lam=     0.0 Au  freq=   912. Q= -0.000 lam=     0.0
  42 B2u freq=   973. Q= -0.000 lam=     0.0 B3g freq=   912. Q= -0.000 lam=     0.0
  43 B3g freq=   985. Q= -0.000 lam=     0.0 B3u freq=   918. Q= -0.000 lam=     0.0
  44 Au  freq=   989. Q= -0.000 lam=     0.0 B1u freq=   947. Q= -0.000 lam=     0.0
  45 B1u freq=   999. Q= -0.000 lam=     0.0 B2g freq=   950. Q= -0.000 lam=     0.0
  46 B2g freq=  1003. Q=  0.000 lam=     0.0 B3u freq=  1006. Q=  0.000 lam=     0.0
  47 B3u freq=  1015. Q= -0.000 lam=     0.0 Ag  freq=  1048. Q= -0.420 lam=    92.4
  48 Ag  freq=  1024. Q=  0.519 lam=   138.0 B1g freq=  1057. Q=  0.000 lam=     0.0
  49 B1g freq=  1051. Q=  0.000 lam=     0.0 B3u freq=  1082. Q=  0.000 lam=     0.0
  50 Ag  freq=  1093. Q= -0.038 lam=     0.8 B2u freq=  1086. Q= -0.000 lam=     0.0
  51 B3u freq=  1100. Q= -0.000 lam=     0.0 Ag  freq=  1089. Q= -0.157 lam=    13.5
  52 B2u freq=  1175. Q= -0.000 lam=     0.0 B2u freq=  1153. Q= -0.000 lam=     0.0
  53 B1g freq=  1183. Q= -0.000 lam=     0.0 B1g freq=  1165. Q= -0.000 lam=     0.0
  54 B1g freq=  1248. Q=  0.000 lam=     0.0 B1g freq=  1243. Q=  0.000 lam=     0.0
  55 Ag  freq=  1256. Q= -0.312 lam=    61.2 Ag  freq=  1253. Q= -0.345 lam=    74.7
  56 B2u freq=  1258. Q=  0.000 lam=     0.0 B3u freq=  1258. Q=  0.000 lam=     0.0
  57 B3u freq=  1268. Q= -0.000 lam=     0.0 B2u freq=  1271. Q= -0.000 lam=     0.0
  58 Ag  freq=  1319. Q=  0.027 lam=     0.5 Ag  freq=  1303. Q=  0.120 lam=     9.3
  59 B1g freq=  1338. Q= -0.000 lam=     0.0 B2u freq=  1339. Q= -0.000 lam=     0.0
  60 B2u freq=  1347. Q= -0.000 lam=     0.0 B1g freq=  1359. Q= -0.000 lam=     0.0
  61 B2u freq=  1417. Q=  0.000 lam=     0.0 B3u freq=  1403. Q=  0.000 lam=     0.0
  62 B3u freq=  1426. Q= -0.000 lam=     0.0 B2u freq=  1438. Q= -0.000 lam=     0.0
  63 B1g freq=  1483. Q=  0.000 lam=     0.0 B1g freq=  1455. Q=  0.000 lam=     0.0
  64 Ag  freq=  1497. Q= -0.076 lam=     4.3 Ag  freq=  1482. Q= -0.208 lam=    31.9
  65 B2u freq=  1520. Q=  0.000 lam=     0.0 B3u freq=  1502. Q=  0.000 lam=     0.0
  66 B1g freq=  1576. Q= -0.000 lam=     0.0 B2u freq=  1527. Q= -0.000 lam=     0.0
  67 B2u freq=  1582. Q=  0.000 lam=     0.0 B1g freq=  1535. Q=  0.000 lam=     0.0
  68 B3u freq=  1599. Q= -0.000 lam=     0.0 Ag  freq=  1564. Q= -0.878 lam=   602.9
  69 Ag  freq=  1599. Q=  0.590 lam=   278.7 B1g freq=  1579. Q=  0.000 lam=     0.0
  70 B1g freq=  1663. Q=  0.000 lam=     0.0 B2u freq=  1595. Q=  0.000 lam=     0.0
  71 Ag  freq=  1678. Q=  0.694 lam=   403.6 Ag  freq=  1600. Q=  0.217 lam=    37.7
  72 B3u freq=  1682. Q= -0.000 lam=     0.0 B3u freq=  1606. Q= -0.000 lam=     0.0
  73 B3u freq=  3148. Q= -0.000 lam=     0.0 B3u freq=  3091. Q= -0.000 lam=     0.0
  74 Ag  freq=  3148. Q= -0.048 lam=     3.6 Ag  freq=  3092. Q= -0.052 lam=     4.1
  75 B2u freq=  3177. Q=  0.000 lam=     0.0 B1g freq=  3167. Q=  0.000 lam=     0.0
  76 B1g freq=  3177. Q=  0.000 lam=     0.0 B2u freq=  3167. Q=  0.000 lam=     0.0
  77 B3u freq=  3181. Q= -0.000 lam=     0.0 B3u freq=  3170. Q= -0.000 lam=     0.0
  78 Ag  freq=  3181. Q= -0.022 lam=     0.7 Ag  freq=  3170. Q= -0.013 lam=     0.3

 total reorg energy (cm**-1, kcal/mol)=      979.      953.      2.80      2.72
 Nber of molecules processed=           2
