 Enter ifcurve (0=recti, 1=orth curvi, 2=apprx curvi, -1 = skip
 And atom ordering flag, 0= never changes, 1= use the first order thenceforth,
  2= deduce it (does read on fail), 3= always read it
 Reading file: 
 ./CDT-A_3_C0S1.log                                                             
                                          
  Entering Gaussian System, Link 0=g16                                          
  
 Gaussian format, type: g94, g98, g03= F F F
  #P Geom=AllCheck Guess=TCheck SCRF=Check GenChk RCAM-B3LYP TD(FC,Read)    
 energy type= TD      
 Original G94 input coords:
  6 12.987899 14.193900-25.809257
  6 11.539713 14.671467-25.754425
  6 10.635663 13.964252-26.759848
  7 10.989614 14.605900-24.377304
  6 10.860288 13.361563-23.757017
  8 11.191944 12.340010-24.331053
  6 10.311292 13.342532-22.393697
  6 10.165089 12.132356-21.739163
  6  9.652476 12.079762-20.457282
  6  9.262200 13.238940-19.771985
  6  8.724467 13.203061-18.430838
  6  8.548338 11.990988-17.730303
  6  8.041121 11.957952-16.462353
  6  7.682310 13.147076-15.805135
  6  7.156942 13.047036-14.475173
  8  6.958388 12.004621-13.888998
  7  6.851492 14.321315-13.809270
  6  6.460583 14.334041-12.493924
  6  6.456279 13.235154-11.600784
  6  5.995624 13.585264-10.358915
  6  5.766529 12.888100 -9.042637
  6  5.246152 14.022307 -8.199480
  6  4.810517 14.205983 -6.882505
  6  4.436441 15.507740 -6.655554
 16  4.606189 16.531414 -8.033854
  6  5.194071 15.199121 -8.953390
  6  5.641079 14.944220-10.260672
 16  5.892932 15.824444-11.718089
  6  6.933357 15.589105-14.502458
  8  6.561106 16.584371-13.902837
  6  7.456795 15.582789-15.830501
  6  7.590819 16.807763-16.504844
  6  8.096052 16.846174-17.773327
  6  8.493227 15.674139-18.452060
  6  9.030240 15.714918-19.793621
  6  9.199296 16.914389-20.499781
  6  9.714655 16.935784-21.781325
  6 10.084412 15.762518-22.415235
  6 10.629160 15.823061-23.778336
  8 10.765516 16.877641-24.369481
  6  9.934738 14.533609-21.748547
  6  9.404700 14.495556-20.426481
  6  8.356240 14.420258-17.795455
  6  7.832125 14.382768-16.462364
  1 13.394498 14.393714-26.803431
  1 13.062473 13.127034-25.607879
  1 13.598128 14.735513-25.083359
  1 11.525901 15.735144-25.977209
  1 10.622271 12.888681-26.594599
  1 11.000430 14.160519-27.770815
  1  9.614777 14.346241-26.692674
  1 10.463367 11.231051-22.258833
  1  9.558026 11.112841-19.985994
  1  8.816100 11.056171-18.199400
  1  7.908232 11.020962-15.939468
  1  6.771175 12.257743-11.912770
  1  6.688131 12.462417 -8.638031
  1  5.042859 12.074087 -9.131698
  1  4.765363 13.438989 -6.123206
  1  4.063423 15.928201 -5.734508
  1  7.289099 17.713109-15.996305
  1  8.187964 17.805505-18.259798
  1  8.926176 17.855102-20.045527
  1  9.840700 17.867964-22.316495
 nber atoms=          64
  Total Energy, E(TD-HF/TD-DFT) =  -2590.23201350                               
  
          32          49 "  -2590.23201350"
After scan for Atom:   Atom  AN      X      Y      Z        X      Y      Z        X      Y      Z   
After scan for Atom:   Atom  AN      X      Y      Z        X      Y      Z        X      Y      Z   
After scan for Atom:   Atom  AN      X      Y      Z        X      Y      Z        X      Y      Z   
After scan for Atom:   Atom  AN      X      Y      Z        X      Y      Z        X      Y      Z   
After scan for Atom:   Atom  AN      X      Y      Z        X      Y      Z        X      Y      Z   
After scan for Atom:   Atom  AN      X      Y      Z        X      Y      Z        X      Y      Z   
After scan for Atom:   Atom  AN      X      Y      Z        X      Y      Z        X      Y      Z   
After scan for Atom:   Atom  AN      X      Y      Z        X      Y      Z        X      Y      Z   
After scan for Atom:   Atom  AN      X      Y      Z        X      Y      Z        X      Y      Z   
After scan for Atom:   Atom  AN      X      Y      Z        X      Y      Z        X      Y      Z   
After scan for Atom:   Atom  AN      X      Y      Z        X      Y      Z        X      Y      Z   
After scan for Atom:   Atom  AN      X      Y      Z        X      Y      Z        X      Y      Z   
After scan for Atom:   Atom  AN      X      Y      Z        X      Y      Z        X      Y      Z   
After scan for Atom:   Atom  AN      X      Y      Z        X      Y      Z        X      Y      Z   
After scan for Atom:   Atom  AN      X      Y      Z        X      Y      Z        X      Y      Z   
After scan for Atom:   Atom  AN      X      Y      Z        X      Y      Z        X      Y      Z   
After scan for Atom:   Atom  AN      X      Y      Z        X      Y      Z        X      Y      Z   
After scan for Atom:   Atom  AN      X      Y      Z        X      Y      Z        X      Y      Z   
After scan for Atom:   Atom  AN      X      Y      Z        X      Y      Z        X      Y      Z   
After scan for Atom:   Atom  AN      X      Y      Z        X      Y      Z        X      Y      Z   
After scan for Atom:   Atom  AN      X      Y      Z        X      Y      Z        X      Y      Z   
After scan for Atom:   Atom  AN      X      Y      Z        X      Y      Z        X      Y      Z   
After scan for Atom:   Atom  AN      X      Y      Z        X      Y      Z        X      Y      Z   
After scan for Atom:   Atom  AN      X      Y      Z        X      Y      Z        X      Y      Z   
After scan for Atom:   Atom  AN      X      Y      Z        X      Y      Z        X      Y      Z   
After scan for Atom:   Atom  AN      X      Y      Z        X      Y      Z        X      Y      Z   
After scan for Atom:   Atom  AN      X      Y      Z        X      Y      Z        X      Y      Z   
After scan for Atom:   Atom  AN      X      Y      Z        X      Y      Z        X      Y      Z   
After scan for Atom:   Atom  AN      X      Y      Z        X      Y      Z        X      Y      Z   
After scan for Atom:   Atom  AN      X      Y      Z        X      Y      Z        X      Y      Z   
After scan for Atom:   Atom  AN      X      Y      Z        X      Y      Z        X      Y      Z   
After scan for Atom:   Atom  AN      X      Y      Z        X      Y      Z        X      Y      Z   
After scan for Atom:   Atom  AN      X      Y      Z        X      Y      Z        X      Y      Z   
After scan for Atom:   Atom  AN      X      Y      Z        X      Y      Z        X      Y      Z   
After scan for Atom:   Atom  AN      X      Y      Z        X      Y      Z        X      Y      Z   
After scan for Atom:   Atom  AN      X      Y      Z        X      Y      Z        X      Y      Z   
After scan for Atom:   Atom  AN      X      Y      Z        X      Y      Z        X      Y      Z   
After scan for Atom:   Atom  AN      X      Y      Z        X      Y      Z        X      Y      Z   
After scan for Atom:   Atom  AN      X      Y      Z        X      Y      Z        X      Y      Z   
After scan for Atom:   Atom  AN      X      Y      Z        X      Y      Z        X      Y      Z   
After scan for Atom:   Atom  AN      X      Y      Z        X      Y      Z        X      Y      Z   
After scan for Atom:   Atom  AN      X      Y      Z        X      Y      Z        X      Y      Z   
After scan for Atom:   Atom  AN      X      Y      Z        X      Y      Z        X      Y      Z   
After scan for Atom:   Atom  AN      X      Y      Z        X      Y      Z        X      Y      Z   
After scan for Atom:   Atom  AN      X      Y      Z        X      Y      Z        X      Y      Z   
After scan for Atom:   Atom  AN      X      Y      Z        X      Y      Z        X      Y      Z   
After scan for Atom:   Atom  AN      X      Y      Z        X      Y      Z        X      Y      Z   
After scan for Atom:   Atom  AN      X      Y      Z        X      Y      Z        X      Y      Z   
After scan for Atom:   Atom  AN      X      Y      Z        X      Y      Z        X      Y      Z   
After scan for Atom:   Atom  AN      X      Y      Z        X      Y      Z        X      Y      Z   
After scan for Atom:   Atom  AN      X      Y      Z        X      Y      Z        X      Y      Z   
After scan for Atom:   Atom  AN      X      Y      Z        X      Y      Z        X      Y      Z   
After scan for Atom:   Atom  AN      X      Y      Z        X      Y      Z        X      Y      Z   
After scan for Atom:   Atom  AN      X      Y      Z        X      Y      Z        X      Y      Z   
After scan for Atom:   Atom  AN      X      Y      Z        X      Y      Z        X      Y      Z   
After scan for Atom:   Atom  AN      X      Y      Z        X      Y      Z        X      Y      Z   
After scan for Atom:   Atom  AN      X      Y      Z        X      Y      Z        X      Y      Z   
After scan for Atom:   Atom  AN      X      Y      Z        X      Y      Z        X      Y      Z   
After scan for Atom:   Atom  AN      X      Y      Z        X      Y      Z        X      Y      Z   
After scan for Atom:   Atom  AN      X      Y      Z        X      Y      Z        X      Y      Z   
After scan for Atom:   Atom  AN      X      Y      Z        X      Y      Z        X      Y      Z   
After scan for Atom:   Atom  AN      X      Y      Z        X      Y      Z        X      Y      Z   
 g94    frequencies=
     0.0    0.0    0.0    0.0    0.0    0.0    8.2   16.8   26.8   28.2
    50.2   53.4   58.2   71.6   83.0   92.7  104.6  110.9  139.6  149.0
   165.6  169.7  175.3  186.4  197.3  214.6  233.3  239.2  239.5  246.5
   259.5  265.4  293.8  301.5  304.6  316.9  336.6  346.3  371.2  381.0
   399.9  416.4  425.3  436.9  441.8  447.8  460.6  461.0  470.9  477.9
   480.6  501.6  508.5  510.1  521.3  527.5  541.8  556.7  564.8  584.6
   586.4  593.6  597.6  613.7  616.8  635.9  636.9  660.9  666.5  675.1
   679.9  707.8  723.0  728.6  740.0  757.5  760.0  765.5  771.6  777.2
   786.3  807.2  816.2  821.7  833.2  838.7  843.2  847.2  853.0  855.8
   862.9  868.2  898.9  917.7  929.2  942.6  951.0  968.1  970.1  970.9
   980.5  992.5  994.0  996.9 1013.9 1014.4 1016.8 1020.1 1030.3 1085.3
  1094.0 1117.5 1118.4 1155.4 1167.8 1173.4 1173.9 1177.7 1189.1 1192.1
  1207.2 1211.5 1213.8 1227.7 1244.5 1250.7 1262.3 1280.1 1293.5 1300.0
  1305.0 1309.5 1340.5 1344.6 1365.2 1368.4 1384.7 1392.3 1395.7 1407.0
  1407.3 1414.3 1419.3 1422.8 1444.4 1446.9 1457.9 1465.8 1489.7 1490.3
  1495.1 1497.6 1499.0 1503.2 1509.2 1512.8 1515.7 1519.6 1530.4 1564.7
  1585.4 1597.7 1612.5 1620.6 1632.3 1652.0 1666.1 1670.5 1738.2 1754.2
  1774.6 1795.8 3056.0 3060.2 3077.0 3112.8 3117.3 3120.6 3139.4 3159.1
  3168.5 3216.6 3217.1 3224.4 3224.5 3233.9 3234.1 3242.3 3249.2 3250.0
  3268.5 3316.6
 g94    symmetries=
                                                 A      A      A      A
       A      A      A      A      A      A      A      A      A      A
       A      A      A      A      A      A      A      A      A      A
       A      A      A      A      A      A      A      A      A      A
       A      A      A      A      A      A      A      A      A      A
       A      A      A      A      A      A      A      A      A      A
       A      A      A      A      A      A      A      A      A      A
       A      A      A      A      A      A      A      A      A      A
       A      A      A      A      A      A      A      A      A      A
       A      A      A      A      A      A      A      A      A      A
       A      A      A      A      A      A      A      A      A      A
       A      A      A      A      A      A      A      A      A      A
       A      A      A      A      A      A      A      A      A      A
       A      A      A      A      A      A      A      A      A      A
       A      A      A      A      A      A      A      A      A      A
       A      A      A      A      A      A      A      A      A      A
       A      A      A      A      A      A      A      A      A      A
       A      A      A      A      A      A      A      A      A      A
       A      A      A      A      A      A      A      A      A      A
       A      A
 atomic masses:
 12.0000 12.0000 12.0000 14.0031 12.0000 15.9949 12.0000 12.0000 12.0000 12.0000
 12.0000 12.0000 12.0000 12.0000 12.0000 15.9949 14.0031 12.0000 12.0000 12.0000
 12.0000 12.0000 12.0000 12.0000 31.9721 12.0000 12.0000 31.9721 12.0000 15.9949
 12.0000 12.0000 12.0000 12.0000 12.0000 12.0000 12.0000 12.0000 12.0000 15.9949
 12.0000 12.0000 12.0000 12.0000  1.0078  1.0078  1.0078  1.0078  1.0078  1.0078
  1.0078  1.0078  1.0078  1.0078  1.0078  1.0078  1.0078  1.0078  1.0078  1.0078
  1.0078  1.0078  1.0078  1.0078
 looking for force constants in 
 ./CDT-A_3_C0S1.fchk                                                            
  
 Cartesian Force Constants                  R   N=       18528                  
  
 n3=         192       18528
 g94-fc frequencies=
    -2.4   -1.1   -0.0   -0.0    0.0    1.5    8.3   16.8   26.8   28.2
    50.2   53.4   58.2   71.6   83.0   92.8  104.6  110.9  139.7  149.0
   165.6  169.7  175.3  186.4  197.3  214.6  233.4  239.2  239.5  246.5
   259.5  265.4  293.8  301.5  304.6  316.9  336.6  346.3  371.3  381.0
   399.9  416.4  425.3  436.9  441.8  447.8  460.6  461.0  470.9  477.9
   480.6  501.6  508.5  510.1  521.3  527.5  541.8  556.7  564.8  584.6
   586.4  593.6  597.7  613.7  616.8  635.9  636.9  660.9  666.5  675.1
   679.9  707.8  723.1  728.7  740.0  757.5  760.0  765.5  771.6  777.2
   786.3  807.2  816.2  821.7  833.2  838.7  843.2  847.2  853.1  855.8
   862.9  868.2  898.9  917.7  929.2  942.6  951.0  968.1  970.2  970.9
   980.6  992.5  994.0  996.9 1013.9 1014.4 1016.8 1020.1 1030.4 1085.3
  1094.0 1117.6 1118.4 1155.5 1167.8 1173.4 1173.9 1177.7 1189.1 1192.2
  1207.2 1211.5 1213.8 1227.8 1244.6 1250.7 1262.3 1280.1 1293.5 1300.0
  1305.0 1309.6 1340.6 1344.6 1365.2 1368.4 1384.8 1392.3 1395.7 1407.1
  1407.4 1414.3 1419.4 1422.8 1444.4 1446.9 1457.9 1465.8 1489.7 1490.3
  1495.2 1497.7 1499.1 1503.3 1509.2 1512.9 1515.7 1519.7 1530.4 1564.7
  1585.5 1597.8 1612.6 1620.6 1632.3 1652.0 1666.2 1670.6 1738.3 1754.2
  1774.6 1795.9 3056.1 3060.2 3077.1 3112.9 3117.4 3120.7 3139.5 3159.2
  3168.6 3216.7 3217.2 3224.5 3224.5 3234.0 3234.2 3242.3 3249.3 3250.0
  3268.6 3316.7
 at 99999: n3=         192
 symm operator            1 :  F  nop=           0
 symm operator            2 :  F  nop=           0
 symm operator            3 :  F  nop=           0
 symm operator            4 :  F  nop=           0
 symm operator            5 :  F  nop=           0
 symm operator            6 :  F  nop=           0
 symm operator            7 :  F  nop=           0
 The point group of the molecule is  C1
 Symmetry rotation matrix:
   1.00000   0.00000   0.00000
   0.00000   1.00000   0.00000
   0.00000   0.00000   1.00000

 Projecting out zero-frequency components
 generating redundant internal coords
         300        3600          64
 search for int coords
   1 str   2   1   1.526
   2 str   3   2   1.526
   3 str   4   2   1.484
   4 str   5   4   1.396
   5 str   6   5   1.218
   6 str   7   5   1.470
   7 str   8   7   1.384
   8 str   9   8   1.382
   9 str  10   9   1.402
  10 str  11  10   1.445
  11 str  12  11   1.411
  12 str  13  12   1.366
  13 str  14  13   1.405
  14 str  15  14   1.433
  15 str  16  15   1.212
  16 str  17  15   1.470
  17 str  18  17   1.372
  18 str  19  18   1.416
  19 str  20  19   1.370
  20 str  21  20   1.507
  21 str  22  21   1.506
  22 str  23  22   1.399
  23 str  24  23   1.373
  24 str  25  24   1.725
  25 str  26  22   1.399
  26 str  26  25   1.722
  27 str  27  20   1.408
  28 str  27  26   1.405
  29 str  28  18   1.774
  30 str  28  27   1.721
  31 str  29  17   1.447
  32 str  30  28   2.408
  33 str  30  29   1.220
  34 str  31  29   1.427
  35 str  32  31   1.405
  36 str  33  32   1.366
  37 str  34  33   1.411
  38 str  35  34   1.446
  39 str  36  35   1.402
  40 str  37  36   1.381
  41 str  38  37   1.384
  42 str  39   4   1.404
  43 str  39  38   1.469
  44 str  40  39   1.217
  45 str  41   7   1.406
  46 str  41  38   1.406
  47 str  42  10   1.424
  48 str  42  35   1.424
  49 str  42  41   1.425
  50 str  43  11   1.422
  51 str  43  34   1.422
  52 str  44  14   1.408
  53 str  44  31   1.407
  54 str  44  43   1.433
  55 str  45   1   1.093
  56 str  46   1   1.088
  57 str  47   1   1.092
  58 str  48   2   1.087
  59 str  49   3   1.088
  60 str  50   3   1.093
  61 str  51   3   1.092
  62 str  52   8   1.082
  63 str  53   9   1.080
  64 str  54  12   1.080
  65 str  55  13   1.081
  66 str  56  19   1.073
  67 str  57  21   1.093
  68 str  58  21   1.093
  69 str  59  23   1.080
  70 str  60  24   1.079
  71 str  61  32   1.081
  72 str  62  33   1.080
  73 str  63  36   1.080
  74 str  64  37   1.082
 nber stretches=          74
  75 ben   1   2   3
  76 prop tor   1   2   3  49
  77 prop tor   1   2   3  50
  78 prop tor   1   2   3  51
  79 ben   1   2   4
  80 prop tor   1   2   4   5
  81 prop tor   1   2   4  39
  82 ben   1   2  48
  83 ben   2   1  45
  84 ben   2   1  46
  85 ben   2   1  47
  86 ben   2   3  49
  87 ben   2   3  50
  88 ben   2   3  51
  89 ben   2   4   5
  90 prop tor   2   4   5   6
  91 prop tor   2   4   5   7
  92 ben   2   4  39
  93 prop tor   2   4  39  38
  94 prop tor   2   4  39  40
  95 ben   3   2   4
  96 prop tor   3   2   4   5
  97 prop tor   3   2   4  39
  98 ben   3   2  48
  99 prop tor   4   2   3  49
 100 prop tor   4   2   3  50
 101 prop tor   4   2   3  51
 102 ben   4   2  48
 103 ben   4   5   6
 104 ben   4   5   7
 105 prop tor   4   5   7   8
 106 prop tor   4   5   7  41
 107 ben   4  39  38
 108 ben   4  39  40
 109 ben   5   4  39
 110 prop tor   5   4  39  38
 111 prop tor   5   4  39  40
 112 ben   5   7   8
 113 prop tor   5   7   8   9
 114 prop tor   5   7   8  52
 115 ben   5   7  41
 116 prop tor   5   7  41  38
 117 prop tor   5   7  41  42
 118 ben   6   5   7
 119 prop tor   6   5   7   8
 120 prop tor   6   5   7  41
 121 ben   7   8   9
 122 prop tor   7   8   9  10
 123 prop tor   7   8   9  53
 124 ben   7   8  52
 125 ben   7  41  38
 126 ben   7  41  42
 127 prop tor   7  41  42  10
 128 prop tor   7  41  42  35
 129 ben   8   7  41
 130 prop tor   8   7  41  38
 131 prop tor   8   7  41  42
 132 ben   8   9  10
 133 prop tor   8   9  10  11
 134 prop tor   8   9  10  42
 135 ben   8   9  53
 136 ben   9   8  52
 137 ben   9  10  11
 138 prop tor   9  10  11  12
 139 prop tor   9  10  11  43
 140 ben   9  10  42
 141 prop tor   9  10  42  35
 142 prop tor   9  10  42  41
 143 ben  10   9  53
 144 ben  10  11  12
 145 prop tor  10  11  12  13
 146 prop tor  10  11  12  54
 147 ben  10  11  43
 148 prop tor  10  11  43  34
 149 prop tor  10  11  43  44
 150 ben  10  42  35
 151 ben  10  42  41
 152 ben  11  10  42
 153 prop tor  11  10  42  35
 154 prop tor  11  10  42  41
 155 ben  11  12  13
 156 prop tor  11  12  13  14
 157 prop tor  11  12  13  55
 158 ben  11  12  54
 159 ben  11  43  34
 160 ben  11  43  44
 161 prop tor  11  43  44  14
 162 prop tor  11  43  44  31
 163 ben  12  11  43
 164 prop tor  12  11  43  34
 165 prop tor  12  11  43  44
 166 ben  12  13  14
 167 prop tor  12  13  14  15
 168 prop tor  12  13  14  44
 169 ben  12  13  55
 170 ben  13  12  54
 171 ben  13  14  15
 172 prop tor  13  14  15  16
 173 prop tor  13  14  15  17
 174 ben  13  14  44
 175 prop tor  13  14  44  31
 176 prop tor  13  14  44  43
 177 ben  14  13  55
 178 ben  14  15  16
 179 ben  14  15  17
 180 prop tor  14  15  17  18
 181 prop tor  14  15  17  29
 182 ben  14  44  31
 183 ben  14  44  43
 184 ben  15  14  44
 185 prop tor  15  14  44  31
 186 prop tor  15  14  44  43
 187 ben  15  17  18
 188 prop tor  15  17  18  19
 189 prop tor  15  17  18  28
 190 ben  15  17  29
 191 prop tor  15  17  29  30
 192 prop tor  15  17  29  31
 193 ben  16  15  17
 194 prop tor  16  15  17  18
 195 prop tor  16  15  17  29
 196 ben  17  18  19
 197 prop tor  17  18  19  20
 198 prop tor  17  18  19  56
 199 ben  17  18  28
 200 prop tor  17  18  28  27
 201 prop tor  17  18  28  30
 202 ben  17  29  30
 203 prop tor  17  29  30  28
 204 ben  17  29  31
 205 prop tor  17  29  31  32
 206 prop tor  17  29  31  44
 207 ben  18  17  29
 208 prop tor  18  17  29  30
 209 prop tor  18  17  29  31
 210 ben  18  19  20
 211 prop tor  18  19  20  21
 212 prop tor  18  19  20  27
 213 ben  18  19  56
 214 ben  18  28  27
 215 ben  18  28  30
 216 prop tor  18  28  30  29
 217 ben  19  18  28
 218 prop tor  19  18  28  27
 219 prop tor  19  18  28  30
 220 ben  19  20  21
 221 prop tor  19  20  21  22
 222 prop tor  19  20  21  57
 223 prop tor  19  20  21  58
 224 ben  19  20  27
 225 prop tor  19  20  27  26
 226 prop tor  19  20  27  28
 227 ben  20  19  56
 228 ben  20  21  22
 229 prop tor  20  21  22  23
 230 prop tor  20  21  22  26
 231 ben  20  21  57
 232 ben  20  21  58
 233 ben  20  27  26
 234 ben  20  27  28
 235 prop tor  20  27  28  18
 236 prop tor  20  27  28  30
 237 ben  21  20  27
 238 prop tor  21  20  27  26
 239 prop tor  21  20  27  28
 240 ben  21  22  23
 241 prop tor  21  22  23  24
 242 prop tor  21  22  23  59
 243 ben  21  22  26
 244 prop tor  21  22  26  25
 245 prop tor  21  22  26  27
 246 ben  22  21  57
 247 ben  22  21  58
 248 ben  22  23  24
 249 prop tor  22  23  24  25
 250 prop tor  22  23  24  60
 251 ben  22  23  59
 252 ben  22  26  25
 253 ben  22  26  27
 254 prop tor  22  26  27  20
 255 prop tor  22  26  27  28
 256 ben  23  22  26
 257 prop tor  23  22  26  25
 258 prop tor  23  22  26  27
 259 ben  23  24  25
 260 prop tor  23  24  25  26
 261 ben  23  24  60
 262 ben  24  23  59
 263 ben  24  25  26
 264 prop tor  24  25  26  22
 265 prop tor  24  25  26  27
 266 ben  25  24  60
 267 ben  25  26  27
 268 prop tor  25  26  27  20
 269 prop tor  25  26  27  28
 270 prop tor  26  22  23  24
 271 prop tor  26  22  23  59
 272 ben  26  27  28
 273 prop tor  26  27  28  18
 274 prop tor  26  27  28  30
 275 prop tor  27  20  21  22
 276 prop tor  27  20  21  57
 277 prop tor  27  20  21  58
 278 ben  27  28  30
 279 prop tor  27  28  30  29
 280 prop tor  28  18  19  20
 281 prop tor  28  18  19  56
 282 ben  28  30  29
 283 prop tor  29  17  18  19
 284 prop tor  29  17  18  28
 285 ben  29  31  32
 286 prop tor  29  31  32  33
 287 prop tor  29  31  32  61
 288 ben  29  31  44
 289 prop tor  29  31  44  14
 290 prop tor  29  31  44  43
 291 ben  30  29  31
 292 prop tor  30  29  31  32
 293 prop tor  30  29  31  44
 294 prop tor  31  29  30  28
 295 ben  31  32  33
 296 prop tor  31  32  33  34
 297 prop tor  31  32  33  62
 298 ben  31  32  61
 299 ben  31  44  43
 300 ben  32  31  44
 301 prop tor  32  31  44  14
 302 prop tor  32  31  44  43
 303 ben  32  33  34
 304 prop tor  32  33  34  35
 305 prop tor  32  33  34  43
 306 ben  32  33  62
 307 ben  33  32  61
 308 ben  33  34  35
 309 prop tor  33  34  35  36
 310 prop tor  33  34  35  42
 311 ben  33  34  43
 312 prop tor  33  34  43  11
 313 prop tor  33  34  43  44
 314 ben  34  33  62
 315 ben  34  35  36
 316 prop tor  34  35  36  37
 317 prop tor  34  35  36  63
 318 ben  34  35  42
 319 prop tor  34  35  42  10
 320 prop tor  34  35  42  41
 321 ben  34  43  44
 322 prop tor  34  43  44  14
 323 prop tor  34  43  44  31
 324 ben  35  34  43
 325 prop tor  35  34  43  11
 326 prop tor  35  34  43  44
 327 ben  35  36  37
 328 prop tor  35  36  37  38
 329 prop tor  35  36  37  64
 330 ben  35  36  63
 331 ben  35  42  41
 332 ben  36  35  42
 333 prop tor  36  35  42  10
 334 prop tor  36  35  42  41
 335 ben  36  37  38
 336 prop tor  36  37  38  39
 337 prop tor  36  37  38  41
 338 ben  36  37  64
 339 ben  37  36  63
 340 ben  37  38  39
 341 prop tor  37  38  39   4
 342 prop tor  37  38  39  40
 343 ben  37  38  41
 344 prop tor  37  38  41   7
 345 prop tor  37  38  41  42
 346 ben  38  37  64
 347 ben  38  39  40
 348 ben  38  41  42
 349 prop tor  38  41  42  10
 350 prop tor  38  41  42  35
 351 prop tor  39   4   5   6
 352 prop tor  39   4   5   7
 353 ben  39  38  41
 354 prop tor  39  38  41   7
 355 prop tor  39  38  41  42
 356 prop tor  41   7   8   9
 357 prop tor  41   7   8  52
 358 prop tor  41  38  39   4
 359 prop tor  41  38  39  40
 360 prop tor  42  10  11  12
 361 prop tor  42  10  11  43
 362 prop tor  42  35  36  37
 363 prop tor  42  35  36  63
 364 prop tor  43  11  12  13
 365 prop tor  43  11  12  54
 366 prop tor  43  34  35  36
 367 prop tor  43  34  35  42
 368 prop tor  44  14  15  16
 369 prop tor  44  14  15  17
 370 prop tor  44  31  32  33
 371 prop tor  44  31  32  61
 372 prop tor  45   1   2   3
 373 prop tor  45   1   2   4
 374 prop tor  45   1   2  48
 375 ben  45   1  46
 376 ben  45   1  47
 377 prop tor  46   1   2   3
 378 prop tor  46   1   2   4
 379 prop tor  46   1   2  48
 380 ben  46   1  47
 381 prop tor  47   1   2   3
 382 prop tor  47   1   2   4
 383 prop tor  47   1   2  48
 384 prop tor  48   2   3  49
 385 prop tor  48   2   3  50
 386 prop tor  48   2   3  51
 387 prop tor  48   2   4   5
 388 prop tor  48   2   4  39
 389 ben  49   3  50
 390 ben  49   3  51
 391 ben  50   3  51
 392 prop tor  52   8   9  10
 393 prop tor  52   8   9  53
 394 prop tor  53   9  10  11
 395 prop tor  53   9  10  42
 396 prop tor  54  12  13  14
 397 prop tor  54  12  13  55
 398 prop tor  55  13  14  15
 399 prop tor  55  13  14  44
 400 prop tor  56  19  20  21
 401 prop tor  56  19  20  27
 402 prop tor  57  21  22  23
 403 prop tor  57  21  22  26
 404 ben  57  21  58
 405 prop tor  58  21  22  23
 406 prop tor  58  21  22  26
 407 prop tor  59  23  24  25
 408 prop tor  59  23  24  60
 409 prop tor  60  24  25  26
 410 prop tor  61  32  33  34
 411 prop tor  61  32  33  62
 412 prop tor  62  33  34  35
 413 prop tor  62  33  34  43
 414 prop tor  63  36  37  38
 415 prop tor  63  36  37  64
 416 prop tor  64  37  38  39
 417 prop tor  64  37  38  41
 nber bend=             131
 nber lin bend=           0
 nber prop tor=         212
 nber impr tor=           0
 nber tot redund int=         417
 Eigenvalues of G in red int coords
    Gval -0.00000000 -0.00000000 -0.00000000 -0.00000000 -0.00000000 -0.00000000 -0.00000000 -0.00000000
    Gval -0.00000000 -0.00000000 -0.00000000 -0.00000000 -0.00000000 -0.00000000 -0.00000000 -0.00000000
    Gval -0.00000000 -0.00000000 -0.00000000 -0.00000000 -0.00000000 -0.00000000 -0.00000000 -0.00000000
    Gval -0.00000000 -0.00000000 -0.00000000 -0.00000000 -0.00000000 -0.00000000 -0.00000000 -0.00000000
    Gval -0.00000000 -0.00000000 -0.00000000 -0.00000000 -0.00000000 -0.00000000 -0.00000000 -0.00000000
    Gval -0.00000000 -0.00000000 -0.00000000 -0.00000000 -0.00000000 -0.00000000 -0.00000000 -0.00000000
    Gval -0.00000000 -0.00000000 -0.00000000 -0.00000000 -0.00000000 -0.00000000 -0.00000000 -0.00000000
    Gval -0.00000000 -0.00000000 -0.00000000 -0.00000000 -0.00000000 -0.00000000 -0.00000000 -0.00000000
    Gval -0.00000000 -0.00000000 -0.00000000 -0.00000000 -0.00000000 -0.00000000 -0.00000000 -0.00000000
    Gval -0.00000000 -0.00000000 -0.00000000 -0.00000000 -0.00000000 -0.00000000 -0.00000000 -0.00000000
    Gval -0.00000000 -0.00000000 -0.00000000 -0.00000000 -0.00000000 -0.00000000 -0.00000000 -0.00000000
    Gval -0.00000000 -0.00000000 -0.00000000 -0.00000000 -0.00000000 -0.00000000 -0.00000000 -0.00000000
    Gval -0.00000000 -0.00000000 -0.00000000 -0.00000000 -0.00000000 -0.00000000 -0.00000000 -0.00000000
    Gval -0.00000000 -0.00000000 -0.00000000 -0.00000000 -0.00000000 -0.00000000 -0.00000000 -0.00000000
    Gval -0.00000000 -0.00000000 -0.00000000 -0.00000000 -0.00000000  0.00000000  0.00000000  0.00000000
    Gval  0.00000000  0.00000000  0.00000000  0.00000000  0.00000000  0.00000000  0.00000000  0.00000000
    Gval  0.00000000  0.00000000  0.00000000  0.00000000  0.00000000  0.00000000  0.00000000  0.00000000
    Gval  0.00000000  0.00000000  0.00000000  0.00000000  0.00000000  0.00000000  0.00000000  0.00000000
    Gval  0.00000000  0.00000000  0.00000000  0.00000000  0.00000000  0.00000000  0.00000000  0.00000000
    Gval  0.00000000  0.00000000  0.00000000  0.00000000  0.00000000  0.00000000  0.00000000  0.00000000
    Gval  0.00000000  0.00000000  0.00000000  0.00000000  0.00000000  0.00000000  0.00000000  0.00000000
    Gval  0.00000000  0.00000000  0.00000000  0.00000000  0.00000000  0.00000000  0.00000000  0.00000000
    Gval  0.00000000  0.00000000  0.00000000  0.00000000  0.00000000  0.00000000  0.00000000  0.00000000
    Gval  0.00000000  0.00000000  0.00000000  0.00000000  0.00000000  0.00000000  0.00000000  0.00000000
    Gval  0.00000000  0.00000000  0.00000000  0.00000000  0.00000000  0.00000000  0.00000000  0.00000000
    Gval  0.00000000  0.00000000  0.00000000  0.00000000  0.00000000  0.00000000  0.00000000  0.00000000
    Gval  0.00000000  0.00000000  0.00000000  0.00000000  0.00000000  0.00000000  0.00000000  0.00000000
    Gval  0.00000000  0.00000000  0.00000000  0.00000000  0.00000000  0.00000000  0.00000000  0.00000000
    Gval  0.00000000  0.00000000  0.00000000  0.00000000  0.00000000  0.00000000  0.00000000  0.00000034
    Gval  0.00000078  0.00000140  0.00000176  0.00000412  0.00000492  0.00000552  0.00000678  0.00000772
    Gval  0.00001018  0.00001227  0.00001343  0.00001469  0.00001613  0.00001770  0.00001838  0.00001890
    Gval  0.00001990  0.00002121  0.00002264  0.00002411  0.00002492  0.00002549  0.00002889  0.00003021
    Gval  0.00003706  0.00003767  0.00004005  0.00004170  0.00004647  0.00004788  0.00004889  0.00005133
    Gval  0.00005317  0.00005372  0.00005487  0.00005681  0.00005912  0.00006466  0.00006614  0.00006901
    Gval  0.00007291  0.00007383  0.00007568  0.00008150  0.00008269  0.00008340  0.00008645  0.00008694
    Gval  0.00008779  0.00009394  0.00009642  0.00009828  0.00010088  0.00010461  0.00011664  0.00012162
    Gval  0.00012549  0.00012762  0.00013653  0.00013857  0.00013989  0.00014112  0.00014852  0.00015766
    Gval  0.00016041  0.00016599  0.00016868  0.00018382  0.00018505  0.00020236  0.00020496  0.00021612
    Gval  0.00022608  0.00023082  0.00023299  0.00023851  0.00026867  0.00028564  0.00029398  0.00029516
    Gval  0.00030169  0.00030440  0.00034780  0.00034920  0.00035666  0.00036875  0.00037348  0.00038503
    Gval  0.00038947  0.00039183  0.00039422  0.00039991  0.00042029  0.00042496  0.00043381  0.00043509
    Gval  0.00043629  0.00043799  0.00044373  0.00044572  0.00045394  0.00046671  0.00047271  0.00047523
    Gval  0.00049791  0.00053175  0.00053488  0.00053759  0.00055393  0.00055543  0.00055594  0.00055940
    Gval  0.00058311  0.00059678  0.00059863  0.00059938  0.00059971  0.00060000  0.00060232  0.00060911
    Gval  0.00062477  0.00062924  0.00063190  0.00064236  0.00064597  0.00064677  0.00064862  0.00067160
    Gval  0.00069586  0.00069830  0.00079727  0.00081317  0.00086273  0.00094153  0.00100772  0.00108402
    Gval  0.00109364  0.00109590  0.00109697  0.00109752  0.00109826  0.00115114  0.00115983  0.00116624
    Gval  0.00116677  0.00116914  0.00116972  0.00117026  0.00117080  0.00118579  0.00121355  0.00127884
    Gval  0.00129121  0.00129727  0.00139133  0.00146700  0.00152119  0.00165583  0.00167307  0.00168032
    Gval  0.00174952  0.00186633  0.00195665  0.00207410  0.00228933  0.00235282  0.00253297  0.00255743
    Gval  0.00259165  0.00266943  0.00280204  0.00293169  0.00296566  0.00303046  0.00303733  0.00305013
    Gval  0.00309175  0.00309825  0.00367420  0.00367755  0.00372295  0.00372678  0.00382281  0.00394438
    Gval  0.00409035
  3.369582752467569E-007  3.369582752467569E-007
  7.807654820778265E-007  3.369582752467569E-007
  1.403570973170200E-006  3.369582752467569E-007
  1.761625311057491E-006  3.369582752467569E-007
  4.124065250442476E-006  3.369582752467569E-007
  4.916071811739926E-006  3.369582752467569E-007
  5.520813120000500E-006  3.369582752467569E-007
  6.775393092699904E-006  3.369582752467569E-007
  7.715191313371051E-006  3.369582752467569E-007
  1.018199724057575E-005  3.369582752467569E-007
  1.226987917427602E-005  3.369582752467569E-007
  1.343461717005638E-005  3.369582752467569E-007
  1.468717019046076E-005  3.369582752467569E-007
  1.612798136091878E-005  3.369582752467569E-007
  1.769863040164011E-005  3.369582752467569E-007
  1.838242563909420E-005  3.369582752467569E-007
  1.890413098986987E-005  3.369582752467569E-007
  1.990113597724640E-005  3.369582752467569E-007
  2.120907282860186E-005  3.369582752467569E-007
  2.263932572472389E-005  3.369582752467569E-007
  2.411218741251039E-005  3.369582752467569E-007
  2.491861134755587E-005  3.369582752467569E-007
  2.549269035175057E-005  3.369582752467569E-007
  2.888501307144563E-005  3.369582752467569E-007
  3.020756914897427E-005  3.369582752467569E-007
  3.705773836959827E-005  3.369582752467569E-007
  3.767010158482291E-005  3.369582752467569E-007
  4.004655218627558E-005  3.369582752467569E-007
  4.170415247661205E-005  3.369582752467569E-007
  4.646938916444595E-005  3.369582752467569E-007
  4.787663231826162E-005  3.369582752467569E-007
  4.889482376529426E-005  3.369582752467569E-007
  5.133225614143283E-005  3.369582752467569E-007
  5.316888324499416E-005  3.369582752467569E-007
  5.371547278744175E-005  3.369582752467569E-007
  5.487284131974630E-005  3.369582752467569E-007
  5.680922944563843E-005  3.369582752467569E-007
  5.912249914366188E-005  3.369582752467569E-007
  6.465956107888757E-005  3.369582752467569E-007
  6.613958926669293E-005  3.369582752467569E-007
  6.901253617170152E-005  3.369582752467569E-007
  7.290555991274550E-005  3.369582752467569E-007
  7.382514812636091E-005  3.369582752467569E-007
  7.568094514744166E-005  3.369582752467569E-007
  8.150120157815490E-005  3.369582752467569E-007
  8.269044202979366E-005  3.369582752467569E-007
  8.340188324427910E-005  3.369582752467569E-007
  8.644947681616481E-005  3.369582752467569E-007
  8.694139250312422E-005  3.369582752467569E-007
  8.779058887482211E-005  3.369582752467569E-007
  9.393606310568760E-005  3.369582752467569E-007
  9.642013361996797E-005  3.369582752467569E-007
  9.828354829694399E-005  3.369582752467569E-007
  1.008755568763972E-004  3.369582752467569E-007
  1.046135645105823E-004  3.369582752467569E-007
  1.166408860532066E-004  3.369582752467569E-007
  1.216248491552907E-004  3.369582752467569E-007
  1.254882051138521E-004  3.369582752467569E-007
  1.276197609053442E-004  3.369582752467569E-007
  1.365250542725762E-004  3.369582752467569E-007
  1.385747787562885E-004  3.369582752467569E-007
  1.398889858251181E-004  3.369582752467569E-007
  1.411182849149391E-004  3.369582752467569E-007
  1.485180443619532E-004  3.369582752467569E-007
  1.576588929241326E-004  3.369582752467569E-007
  1.604146190353058E-004  3.369582752467569E-007
  1.659949797000044E-004  3.369582752467569E-007
  1.686752826228226E-004  3.369582752467569E-007
  1.838179575686852E-004  3.369582752467569E-007
  1.850451944276381E-004  3.369582752467569E-007
  2.023623498409321E-004  3.369582752467569E-007
  2.049570358273115E-004  3.369582752467569E-007
  2.161170594942332E-004  3.369582752467569E-007
  2.260843932168167E-004  3.369582752467569E-007
  2.308170637384626E-004  3.369582752467569E-007
  2.329915525928663E-004  3.369582752467569E-007
  2.385111550820963E-004  3.369582752467569E-007
  2.686742082034833E-004  3.369582752467569E-007
  2.856449513581516E-004  3.369582752467569E-007
  2.939776149111694E-004  3.369582752467569E-007
  2.951569063059032E-004  3.369582752467569E-007
  3.016869081454154E-004  3.369582752467569E-007
  3.044001501727897E-004  3.369582752467569E-007
  3.477991112471992E-004  3.369582752467569E-007
  3.491967860153512E-004  3.369582752467569E-007
  3.566616478142694E-004  3.369582752467569E-007
  3.687525415981576E-004  3.369582752467569E-007
  3.734814420612070E-004  3.369582752467569E-007
  3.850259757013657E-004  3.369582752467569E-007
  3.894662525763809E-004  3.369582752467569E-007
  3.918287098786886E-004  3.369582752467569E-007
  3.942226537119161E-004  3.369582752467569E-007
  3.999114827005108E-004  3.369582752467569E-007
  4.202885652665941E-004  3.369582752467569E-007
  4.249555773253675E-004  3.369582752467569E-007
  4.338073717260506E-004  3.369582752467569E-007
  4.350913134786174E-004  3.369582752467569E-007
  4.362898542778613E-004  3.369582752467569E-007
  4.379910821766312E-004  3.369582752467569E-007
  4.437332924856123E-004  3.369582752467569E-007
  4.457168193948616E-004  3.369582752467569E-007
  4.539435413119484E-004  3.369582752467569E-007
  4.667097308591129E-004  3.369582752467569E-007
  4.727094332393947E-004  3.369582752467569E-007
  4.752308195592499E-004  3.369582752467569E-007
  4.979147197106514E-004  3.369582752467569E-007
  5.317548296109256E-004  3.369582752467569E-007
  5.348773035232504E-004  3.369582752467569E-007
  5.375925177592594E-004  3.369582752467569E-007
  5.539344808111284E-004  3.369582752467569E-007
  5.554257957409812E-004  3.369582752467569E-007
  5.559355488342236E-004  3.369582752467569E-007
  5.594031717542499E-004  3.369582752467569E-007
  5.831084058867928E-004  3.369582752467569E-007
  5.967826480881886E-004  3.369582752467569E-007
  5.986294761329613E-004  3.369582752467569E-007
  5.993830734646156E-004  3.369582752467569E-007
  5.997071683276287E-004  3.369582752467569E-007
  6.000034236916192E-004  3.369582752467569E-007
  6.023214752359302E-004  3.369582752467569E-007
  6.091120160105186E-004  3.369582752467569E-007
  6.247708786857022E-004  3.369582752467569E-007
  6.292429752093426E-004  3.369582752467569E-007
  6.319005498781013E-004  3.369582752467569E-007
  6.423567012184036E-004  3.369582752467569E-007
  6.459668130471165E-004  3.369582752467569E-007
  6.467734993103361E-004  3.369582752467569E-007
  6.486219132078282E-004  3.369582752467569E-007
  6.716004111531997E-004  3.369582752467569E-007
  6.958599007700500E-004  3.369582752467569E-007
  6.983037840989646E-004  3.369582752467569E-007
  7.972699319153769E-004  3.369582752467569E-007
  8.131730739429344E-004  3.369582752467569E-007
  8.627343362038134E-004  3.369582752467569E-007
  9.415250896164425E-004  3.369582752467569E-007
  1.007717698258482E-003  3.369582752467569E-007
  1.084022242133268E-003  3.369582752467569E-007
  1.093641239895524E-003  3.369582752467569E-007
  1.095902110273042E-003  3.369582752467569E-007
  1.096972063606745E-003  3.369582752467569E-007
  1.097521599049880E-003  3.369582752467569E-007
  1.098259015260443E-003  3.369582752467569E-007
  1.151138700941507E-003  3.369582752467569E-007
  1.159832960513468E-003  3.369582752467569E-007
  1.166240929126848E-003  3.369582752467569E-007
  1.166769945208871E-003  3.369582752467569E-007
  1.169139264962934E-003  3.369582752467569E-007
  1.169717404079133E-003  3.369582752467569E-007
  1.170257875934901E-003  3.369582752467569E-007
  1.170798376720643E-003  3.369582752467569E-007
  1.185792535247376E-003  3.369582752467569E-007
  1.213546122273822E-003  3.369582752467569E-007
  1.278842618047150E-003  3.369582752467569E-007
  1.291211467964477E-003  3.369582752467569E-007
  1.297274701944185E-003  3.369582752467569E-007
  1.391333526984632E-003  3.369582752467569E-007
  1.467001210993717E-003  3.369582752467569E-007
  1.521194642697868E-003  3.369582752467569E-007
  1.655834804229989E-003  3.369582752467569E-007
  1.673072742968172E-003  3.369582752467569E-007
  1.680317376434846E-003  3.369582752467569E-007
  1.749515122525390E-003  3.369582752467569E-007
  1.866325211034652E-003  3.369582752467569E-007
  1.956653247294032E-003  3.369582752467569E-007
  2.074097811237258E-003  3.369582752467569E-007
  2.289327664028199E-003  3.369582752467569E-007
  2.352817168349320E-003  3.369582752467569E-007
  2.532970686499580E-003  3.369582752467569E-007
  2.557427298045636E-003  3.369582752467569E-007
  2.591651003086217E-003  3.369582752467569E-007
  2.669429549975024E-003  3.369582752467569E-007
  2.802042225046300E-003  3.369582752467569E-007
  2.931686941042801E-003  3.369582752467569E-007
  2.965663385032554E-003  3.369582752467569E-007
  3.030463233177840E-003  3.369582752467569E-007
  3.037328393667227E-003  3.369582752467569E-007
  3.050125165031864E-003  3.369582752467569E-007
  3.091745089255212E-003  3.369582752467569E-007
  3.098248596364417E-003  3.369582752467569E-007
  3.674197415302970E-003  3.369582752467569E-007
  3.677546227266225E-003  3.369582752467569E-007
  3.722945857568755E-003  3.369582752467569E-007
  3.726783828302447E-003  3.369582752467569E-007
  3.822814642098806E-003  3.369582752467569E-007
  3.944376484561429E-003  3.369582752467569E-007
  4.090351953212181E-003  3.369582752467569E-007
 cut=1d-8, nber non-redundant internal coords=         186
 Check on Eigenvals of non-red overlap matrix:
  0.00000034  0.00000078  0.00000140  0.00000176  0.00000412  0.00000492  0.00000552  0.00000678
  0.00000772  0.00001018  0.00001227  0.00001343  0.00001469  0.00001613  0.00001770  0.00001838
  0.00001890  0.00001990  0.00002121  0.00002264  0.00002411  0.00002492  0.00002549  0.00002889
  0.00003021  0.00003706  0.00003767  0.00004005  0.00004170  0.00004647  0.00004788  0.00004889
  0.00005133  0.00005317  0.00005372  0.00005487  0.00005681  0.00005912  0.00006466  0.00006614
  0.00006901  0.00007291  0.00007383  0.00007568  0.00008150  0.00008269  0.00008340  0.00008645
  0.00008694  0.00008779  0.00009394  0.00009642  0.00009828  0.00010088  0.00010461  0.00011664
  0.00012162  0.00012549  0.00012762  0.00013653  0.00013857  0.00013989  0.00014112  0.00014852
  0.00015766  0.00016041  0.00016599  0.00016868  0.00018382  0.00018505  0.00020236  0.00020496
  0.00021612  0.00022608  0.00023082  0.00023299  0.00023851  0.00026867  0.00028564  0.00029398
  0.00029516  0.00030169  0.00030440  0.00034780  0.00034920  0.00035666  0.00036875  0.00037348
  0.00038503  0.00038947  0.00039183  0.00039422  0.00039991  0.00042029  0.00042496  0.00043381
  0.00043509  0.00043629  0.00043799  0.00044373  0.00044572  0.00045394  0.00046671  0.00047271
  0.00047523  0.00049791  0.00053175  0.00053488  0.00053759  0.00055393  0.00055543  0.00055594
  0.00055940  0.00058311  0.00059678  0.00059863  0.00059938  0.00059971  0.00060000  0.00060232
  0.00060911  0.00062477  0.00062924  0.00063190  0.00064236  0.00064597  0.00064677  0.00064862
  0.00067160  0.00069586  0.00069830  0.00079727  0.00081317  0.00086273  0.00094153  0.00100772
  0.00108402  0.00109364  0.00109590  0.00109697  0.00109752  0.00109826  0.00115114  0.00115983
  0.00116624  0.00116677  0.00116914  0.00116972  0.00117026  0.00117080  0.00118579  0.00121355
  0.00127884  0.00129121  0.00129727  0.00139133  0.00146700  0.00152119  0.00165583  0.00167307
  0.00168032  0.00174952  0.00186633  0.00195665  0.00207410  0.00228933  0.00235282  0.00253297
  0.00255743  0.00259165  0.00266943  0.00280204  0.00293169  0.00296566  0.00303046  0.00303733
  0.00305013  0.00309175  0.00309825  0.00367420  0.00367755  0.00372295  0.00372678  0.00382281
  0.00394438  0.00409035
 Checking for correct frequencies
 recalc frequencies=
    -0.0   -0.0   -0.0    0.0    0.0    0.0    8.2   16.8   26.8   28.2
    50.2   53.4   58.2   71.6   83.0   92.8  104.6  110.9  139.7  149.0
   165.6  169.7  175.3  186.4  197.3  214.6  233.4  239.2  239.5  246.5
   259.5  265.4  293.8  301.5  304.6  316.9  336.6  346.3  371.3  381.0
   399.9  416.4  425.3  436.9  441.8  447.8  460.6  461.0  470.9  477.9
   480.6  501.6  508.5  510.1  521.3  527.5  541.8  556.7  564.8  584.6
   586.4  593.6  597.7  613.7  616.8  635.9  636.9  660.9  666.5  675.1
   679.9  707.8  723.1  728.7  740.0  757.5  760.0  765.5  771.6  777.2
   786.3  807.2  816.2  821.7  833.2  838.7  843.2  847.2  853.1  855.8
   862.9  868.2  898.9  917.7  929.2  942.6  951.0  968.1  970.2  970.9
   980.6  992.5  994.0  996.9 1013.9 1014.4 1016.8 1020.1 1030.4 1085.3
  1094.0 1117.6 1118.4 1155.5 1167.8 1173.4 1173.9 1177.7 1189.1 1192.2
  1207.2 1211.5 1213.8 1227.8 1244.6 1250.7 1262.3 1280.1 1293.5 1300.0
  1305.0 1309.6 1340.6 1344.6 1365.2 1368.4 1384.8 1392.3 1395.7 1407.1
  1407.4 1414.3 1419.4 1422.8 1444.4 1446.9 1457.9 1465.8 1489.7 1490.3
  1495.2 1497.7 1499.1 1503.3 1509.2 1512.9 1515.7 1519.7 1530.4 1564.7
  1585.5 1597.8 1612.6 1620.6 1632.3 1652.0 1666.2 1670.6 1738.3 1754.2
  1774.6 1795.9 3056.1 3060.2 3077.1 3112.9 3117.4 3120.7 3139.5 3159.2
  3168.6 3216.7 3217.2 3224.5 3224.5 3234.0 3234.2 3242.3 3249.3 3250.0
  3268.6 3316.7
 recalc symmetries=
                                                                       
                                                                       
                                                                       
                                                                       
                                                                       
                                                                       
                                                                       
                                                                       
                                                                       
                                                                       
                                                                       
                                                                       
                                                                       
                                                                       
                                                                       
                                                                       
                                                                       
                                                                       
                                                                       
               
 recalc freqs check OK
 Zero-point lengths:
 10.0000 10.0000 10.0000 10.0000 10.0000 10.0000 86.3328 60.5149 47.9282 46.6731
 34.9939 33.9098 32.5012 29.3039 27.2104 25.7415 24.2404 23.5396 20.9784 20.3120
 19.2661 19.0322 18.7219 18.1584 17.6496 16.9224 16.2290 16.0278 16.0203 15.7900
 15.3887 15.2174 14.4644 14.2769 14.2057 13.9269 13.5118 13.3225 12.8664 12.7000
 12.3976 12.1492 12.0206 11.8606 11.7950 11.7151 11.5509 11.5460 11.4245 11.3405
 11.3085 11.0688 10.9935 10.9763 10.8579 10.7940 10.6506 10.5073 10.4313 10.2536
 10.2379 10.1750 10.1408 10.0070  9.9821  9.8307  9.8235  9.6431  9.6028  9.5415
  9.5074  9.3181  9.2195  9.1840  9.1134  9.0077  8.9925  8.9601  8.9248  8.8928
  8.8408  8.7259  8.6773  8.6486  8.5884  8.5605  8.5375  8.5171  8.4880  8.4745
  8.4394  8.4135  8.2686  8.1837  8.1328  8.0747  8.0389  7.9678  7.9593  7.9561
  7.9170  7.8691  7.8632  7.8517  7.7856  7.7838  7.7746  7.7620  7.7233  7.5251
  7.4951  7.4158  7.4129  7.2932  7.2546  7.2372  7.2358  7.2239  7.1892  7.1801
  7.1351  7.1225  7.1157  7.0752  7.0273  7.0099  6.9776  6.9291  6.8930  6.8757
  6.8626  6.8506  6.7710  6.7607  6.7096  6.7018  6.6620  6.6440  6.6358  6.6090
  6.6084  6.5921  6.5803  6.5724  6.5231  6.5174  6.4928  6.4753  6.4231  6.4217
  6.4114  6.4060  6.4030  6.3941  6.3815  6.3738  6.3678  6.3595  6.3370  6.2673
  6.2261  6.2021  6.1736  6.1582  6.1362  6.0995  6.0735  6.0655  5.9462  5.9191
  5.8849  5.8501  4.4845  4.4815  4.4691  4.4434  4.4402  4.4378  4.4245  4.4107
  4.4042  4.3711  4.3708  4.3658  4.3658  4.3594  4.3593  4.3538  4.3491  4.3486
  4.3363  4.3047
 highest evec of mol 1
 -0.0000 -0.0000  0.0000
 -0.0000 -0.0000  0.0000
 -0.0000 -0.0000  0.0000
  0.0000  0.0000 -0.0000
 -0.0000  0.0000  0.0001
  0.0000 -0.0000 -0.0000
  0.0000  0.0000 -0.0001
 -0.0000 -0.0000  0.0001
  0.0000 -0.0000 -0.0000
  0.0000  0.0000 -0.0000
 -0.0000 -0.0001  0.0001
  0.0000  0.0002 -0.0001
 -0.0001  0.0002  0.0002
  0.0003  0.0005 -0.0009
 -0.0004 -0.0046  0.0010
 -0.0006  0.0047  0.0040
 -0.0005  0.0023  0.0013
  0.0003 -0.0072  0.0044
 -0.0875  0.2684  0.0823
  0.0059 -0.0071 -0.0134
 -0.0005  0.0007  0.0007
 -0.0001 -0.0001  0.0005
  0.0000 -0.0001 -0.0000
 -0.0001  0.0001  0.0003
  0.0000 -0.0000 -0.0001
 -0.0001 -0.0000  0.0005
  0.0013 -0.0027 -0.0014
  0.0007 -0.0018 -0.0008
  0.0002  0.0001 -0.0009
 -0.0001  0.0001  0.0003
 -0.0002  0.0003  0.0003
  0.0001 -0.0000 -0.0001
 -0.0000  0.0002  0.0001
  0.0001 -0.0001 -0.0001
 -0.0000 -0.0000  0.0001
  0.0000  0.0001 -0.0001
 -0.0000  0.0001  0.0001
  0.0000 -0.0000 -0.0001
 -0.0000 -0.0001  0.0001
  0.0000  0.0001 -0.0000
  0.0000 -0.0000 -0.0000
 -0.0000 -0.0000  0.0000
  0.0000 -0.0000 -0.0000
  0.0001 -0.0005  0.0000
  0.0000  0.0000 -0.0001
 -0.0000  0.0000  0.0000
 -0.0000 -0.0000  0.0000
 -0.0000  0.0001 -0.0000
 -0.0000  0.0000  0.0000
  0.0000  0.0000 -0.0001
 -0.0000  0.0000  0.0000
  0.0000 -0.0000 -0.0000
  0.0000  0.0000 -0.0000
  0.0000 -0.0001 -0.0000
 -0.0000 -0.0003  0.0003
  0.2794 -0.8729 -0.2703
  0.0002 -0.0002  0.0006
 -0.0005 -0.0006  0.0004
  0.0000  0.0003 -0.0003
  0.0004 -0.0003 -0.0009
 -0.0001  0.0003  0.0001
 -0.0000 -0.0003  0.0001
 -0.0000  0.0000  0.0000
  0.0000 -0.0000  0.0000
 generating redundant internal coords
         300        3600          64
 Adding extra bonds for z output only
           6           6           6           7           6           8
           6           6           6           6           6           6
           6           6           6           8           7           6
           6           6           6           6           6           6
          16           6           6          16           6           8
           6           6           6           6           6           6
           6           6           6           8           6           6
           6           6           1           1           1           1
           1           1           1           1           1           1
           1           1           1           1           1           1
           1           1           1           1
 search for int coords
   1 str   2   1   1.526
   2 str   3   2   1.526
   3 str   4   2   1.484
   4 str   5   4   1.396
   5 str   6   5   1.218
   6 str   7   5   1.470
   7 str   8   7   1.384
   8 str   9   8   1.382
   9 str  10   9   1.402
  10 str  11  10   1.445
  11 str  12  11   1.411
  12 str  13  12   1.366
  13 str  14  13   1.405
  14 str  15  14   1.433
  15 str  16  15   1.212
  16 str  17  15   1.470
  17 str  18  17   1.372
  18 str  19  18   1.416
  19 str  20  19   1.370
  20 str  21  20   1.507
  21 str  22  21   1.506
  22 str  23  22   1.399
  23 str  24  23   1.373
  24 str  25  24   1.725
  25 str  26  22   1.399
  26 str  26  25   1.722
  27 str  27  20   1.408
  28 str  27  26   1.405
  29 str  28  18   1.774
  30 str  28  27   1.721
  31 str  29  17   1.447
  32 str  30  28   2.408
  33 str  30  29   1.220
  34 str  31  29   1.427
  35 str  32  31   1.405
  36 str  33  32   1.366
  37 str  34  33   1.411
  38 str  35  34   1.446
  39 str  36  35   1.402
  40 str  37  36   1.381
  41 str  38  37   1.384
  42 str  39   4   1.404
  43 str  39  38   1.469
  44 str  40  39   1.217
  45 str  41   7   1.406
  46 str  41  38   1.406
  47 str  42  10   1.424
  48 str  42  35   1.424
  49 str  42  41   1.425
  50 str  43  11   1.422
  51 str  43  34   1.422
  52 str  44  14   1.408
  53 str  44  31   1.407
  54 str  44  43   1.433
  55 str  45   1   1.093
  56 str  46   1   1.088
  57 str  47   1   1.092
  58 str  48   2   1.087
  59 str  49   3   1.088
  60 str  50   3   1.093
  61 str  51   3   1.092
  62 str  52   8   1.082
  63 str  53   9   1.080
  64 str  54  12   1.080
  65 str  55  13   1.081
  66 str  56  19   1.073
  67 str  57  21   1.093
  68 str  58  21   1.093
  69 str  59  23   1.080
  70 str  60  24   1.079
  71 str  61  32   1.081
  72 str  62  33   1.080
  73 str  63  36   1.080
  74 str  64  37   1.082
 nber stretches=          74
  75 ben   1   2   3
  76 prop tor   1   2   3  49
  77 prop tor   1   2   3  50
  78 prop tor   1   2   3  51
  79 ben   1   2   4
  80 prop tor   1   2   4   5
  81 prop tor   1   2   4  39
  82 ben   1   2  48
  83 ben   2   1  45
  84 ben   2   1  46
  85 ben   2   1  47
  86 ben   2   3  49
  87 ben   2   3  50
  88 ben   2   3  51
  89 ben   2   4   5
  90 prop tor   2   4   5   6
  91 prop tor   2   4   5   7
  92 ben   2   4  39
  93 prop tor   2   4  39  38
  94 prop tor   2   4  39  40
  95 ben   3   2   4
  96 prop tor   3   2   4   5
  97 prop tor   3   2   4  39
  98 ben   3   2  48
  99 prop tor   4   2   3  49
 100 prop tor   4   2   3  50
 101 prop tor   4   2   3  51
 102 ben   4   2  48
 103 ben   4   5   6
 104 ben   4   5   7
 105 prop tor   4   5   7   8
 106 prop tor   4   5   7  41
 107 ben   4  39  38
 108 ben   4  39  40
 109 ben   5   4  39
 110 prop tor   5   4  39  38
 111 prop tor   5   4  39  40
 112 ben   5   7   8
 113 prop tor   5   7   8   9
 114 prop tor   5   7   8  52
 115 ben   5   7  41
 116 prop tor   5   7  41  38
 117 prop tor   5   7  41  42
 118 ben   6   5   7
 119 prop tor   6   5   7   8
 120 prop tor   6   5   7  41
 121 ben   7   8   9
 122 prop tor   7   8   9  10
 123 prop tor   7   8   9  53
 124 ben   7   8  52
 125 ben   7  41  38
 126 ben   7  41  42
 127 prop tor   7  41  42  10
 128 prop tor   7  41  42  35
 129 ben   8   7  41
 130 prop tor   8   7  41  38
 131 prop tor   8   7  41  42
 132 ben   8   9  10
 133 prop tor   8   9  10  11
 134 prop tor   8   9  10  42
 135 ben   8   9  53
 136 ben   9   8  52
 137 ben   9  10  11
 138 prop tor   9  10  11  12
 139 prop tor   9  10  11  43
 140 ben   9  10  42
 141 prop tor   9  10  42  35
 142 prop tor   9  10  42  41
 143 ben  10   9  53
 144 ben  10  11  12
 145 prop tor  10  11  12  13
 146 prop tor  10  11  12  54
 147 ben  10  11  43
 148 prop tor  10  11  43  34
 149 prop tor  10  11  43  44
 150 ben  10  42  35
 151 ben  10  42  41
 152 ben  11  10  42
 153 prop tor  11  10  42  35
 154 prop tor  11  10  42  41
 155 ben  11  12  13
 156 prop tor  11  12  13  14
 157 prop tor  11  12  13  55
 158 ben  11  12  54
 159 ben  11  43  34
 160 ben  11  43  44
 161 prop tor  11  43  44  14
 162 prop tor  11  43  44  31
 163 ben  12  11  43
 164 prop tor  12  11  43  34
 165 prop tor  12  11  43  44
 166 ben  12  13  14
 167 prop tor  12  13  14  15
 168 prop tor  12  13  14  44
 169 ben  12  13  55
 170 ben  13  12  54
 171 ben  13  14  15
 172 prop tor  13  14  15  16
 173 prop tor  13  14  15  17
 174 ben  13  14  44
 175 prop tor  13  14  44  31
 176 prop tor  13  14  44  43
 177 ben  14  13  55
 178 ben  14  15  16
 179 ben  14  15  17
 180 prop tor  14  15  17  18
 181 prop tor  14  15  17  29
 182 ben  14  44  31
 183 ben  14  44  43
 184 ben  15  14  44
 185 prop tor  15  14  44  31
 186 prop tor  15  14  44  43
 187 ben  15  17  18
 188 prop tor  15  17  18  19
 189 prop tor  15  17  18  28
 190 ben  15  17  29
 191 prop tor  15  17  29  30
 192 prop tor  15  17  29  31
 193 ben  16  15  17
 194 prop tor  16  15  17  18
 195 prop tor  16  15  17  29
 196 ben  17  18  19
 197 prop tor  17  18  19  20
 198 prop tor  17  18  19  56
 199 ben  17  18  28
 200 prop tor  17  18  28  27
 201 prop tor  17  18  28  30
 202 ben  17  29  30
 203 prop tor  17  29  30  28
 204 ben  17  29  31
 205 prop tor  17  29  31  32
 206 prop tor  17  29  31  44
 207 ben  18  17  29
 208 prop tor  18  17  29  30
 209 prop tor  18  17  29  31
 210 ben  18  19  20
 211 prop tor  18  19  20  21
 212 prop tor  18  19  20  27
 213 ben  18  19  56
 214 ben  18  28  27
 215 ben  18  28  30
 216 prop tor  18  28  30  29
 217 ben  19  18  28
 218 prop tor  19  18  28  27
 219 prop tor  19  18  28  30
 220 ben  19  20  21
 221 prop tor  19  20  21  22
 222 prop tor  19  20  21  57
 223 prop tor  19  20  21  58
 224 ben  19  20  27
 225 prop tor  19  20  27  26
 226 prop tor  19  20  27  28
 227 ben  20  19  56
 228 ben  20  21  22
 229 prop tor  20  21  22  23
 230 prop tor  20  21  22  26
 231 ben  20  21  57
 232 ben  20  21  58
 233 ben  20  27  26
 234 ben  20  27  28
 235 prop tor  20  27  28  18
 236 prop tor  20  27  28  30
 237 ben  21  20  27
 238 prop tor  21  20  27  26
 239 prop tor  21  20  27  28
 240 ben  21  22  23
 241 prop tor  21  22  23  24
 242 prop tor  21  22  23  59
 243 ben  21  22  26
 244 prop tor  21  22  26  25
 245 prop tor  21  22  26  27
 246 ben  22  21  57
 247 ben  22  21  58
 248 ben  22  23  24
 249 prop tor  22  23  24  25
 250 prop tor  22  23  24  60
 251 ben  22  23  59
 252 ben  22  26  25
 253 ben  22  26  27
 254 prop tor  22  26  27  20
 255 prop tor  22  26  27  28
 256 ben  23  22  26
 257 prop tor  23  22  26  25
 258 prop tor  23  22  26  27
 259 ben  23  24  25
 260 prop tor  23  24  25  26
 261 ben  23  24  60
 262 ben  24  23  59
 263 ben  24  25  26
 264 prop tor  24  25  26  22
 265 prop tor  24  25  26  27
 266 ben  25  24  60
 267 ben  25  26  27
 268 prop tor  25  26  27  20
 269 prop tor  25  26  27  28
 270 prop tor  26  22  23  24
 271 prop tor  26  22  23  59
 272 ben  26  27  28
 273 prop tor  26  27  28  18
 274 prop tor  26  27  28  30
 275 prop tor  27  20  21  22
 276 prop tor  27  20  21  57
 277 prop tor  27  20  21  58
 278 ben  27  28  30
 279 prop tor  27  28  30  29
 280 prop tor  28  18  19  20
 281 prop tor  28  18  19  56
 282 ben  28  30  29
 283 prop tor  29  17  18  19
 284 prop tor  29  17  18  28
 285 ben  29  31  32
 286 prop tor  29  31  32  33
 287 prop tor  29  31  32  61
 288 ben  29  31  44
 289 prop tor  29  31  44  14
 290 prop tor  29  31  44  43
 291 ben  30  29  31
 292 prop tor  30  29  31  32
 293 prop tor  30  29  31  44
 294 prop tor  31  29  30  28
 295 ben  31  32  33
 296 prop tor  31  32  33  34
 297 prop tor  31  32  33  62
 298 ben  31  32  61
 299 ben  31  44  43
 300 ben  32  31  44
 301 prop tor  32  31  44  14
 302 prop tor  32  31  44  43
 303 ben  32  33  34
 304 prop tor  32  33  34  35
 305 prop tor  32  33  34  43
 306 ben  32  33  62
 307 ben  33  32  61
 308 ben  33  34  35
 309 prop tor  33  34  35  36
 310 prop tor  33  34  35  42
 311 ben  33  34  43
 312 prop tor  33  34  43  11
 313 prop tor  33  34  43  44
 314 ben  34  33  62
 315 ben  34  35  36
 316 prop tor  34  35  36  37
 317 prop tor  34  35  36  63
 318 ben  34  35  42
 319 prop tor  34  35  42  10
 320 prop tor  34  35  42  41
 321 ben  34  43  44
 322 prop tor  34  43  44  14
 323 prop tor  34  43  44  31
 324 ben  35  34  43
 325 prop tor  35  34  43  11
 326 prop tor  35  34  43  44
 327 ben  35  36  37
 328 prop tor  35  36  37  38
 329 prop tor  35  36  37  64
 330 ben  35  36  63
 331 ben  35  42  41
 332 ben  36  35  42
 333 prop tor  36  35  42  10
 334 prop tor  36  35  42  41
 335 ben  36  37  38
 336 prop tor  36  37  38  39
 337 prop tor  36  37  38  41
 338 ben  36  37  64
 339 ben  37  36  63
 340 ben  37  38  39
 341 prop tor  37  38  39   4
 342 prop tor  37  38  39  40
 343 ben  37  38  41
 344 prop tor  37  38  41   7
 345 prop tor  37  38  41  42
 346 ben  38  37  64
 347 ben  38  39  40
 348 ben  38  41  42
 349 prop tor  38  41  42  10
 350 prop tor  38  41  42  35
 351 prop tor  39   4   5   6
 352 prop tor  39   4   5   7
 353 ben  39  38  41
 354 prop tor  39  38  41   7
 355 prop tor  39  38  41  42
 356 prop tor  41   7   8   9
 357 prop tor  41   7   8  52
 358 prop tor  41  38  39   4
 359 prop tor  41  38  39  40
 360 prop tor  42  10  11  12
 361 prop tor  42  10  11  43
 362 prop tor  42  35  36  37
 363 prop tor  42  35  36  63
 364 prop tor  43  11  12  13
 365 prop tor  43  11  12  54
 366 prop tor  43  34  35  36
 367 prop tor  43  34  35  42
 368 prop tor  44  14  15  16
 369 prop tor  44  14  15  17
 370 prop tor  44  31  32  33
 371 prop tor  44  31  32  61
 372 prop tor  45   1   2   3
 373 prop tor  45   1   2   4
 374 prop tor  45   1   2  48
 375 ben  45   1  46
 376 ben  45   1  47
 377 prop tor  46   1   2   3
 378 prop tor  46   1   2   4
 379 prop tor  46   1   2  48
 380 ben  46   1  47
 381 prop tor  47   1   2   3
 382 prop tor  47   1   2   4
 383 prop tor  47   1   2  48
 384 prop tor  48   2   3  49
 385 prop tor  48   2   3  50
 386 prop tor  48   2   3  51
 387 prop tor  48   2   4   5
 388 prop tor  48   2   4  39
 389 ben  49   3  50
 390 ben  49   3  51
 391 ben  50   3  51
 392 prop tor  52   8   9  10
 393 prop tor  52   8   9  53
 394 prop tor  53   9  10  11
 395 prop tor  53   9  10  42
 396 prop tor  54  12  13  14
 397 prop tor  54  12  13  55
 398 prop tor  55  13  14  15
 399 prop tor  55  13  14  44
 400 prop tor  56  19  20  21
 401 prop tor  56  19  20  27
 402 prop tor  57  21  22  23
 403 prop tor  57  21  22  26
 404 ben  57  21  58
 405 prop tor  58  21  22  23
 406 prop tor  58  21  22  26
 407 prop tor  59  23  24  25
 408 prop tor  59  23  24  60
 409 prop tor  60  24  25  26
 410 prop tor  61  32  33  34
 411 prop tor  61  32  33  62
 412 prop tor  62  33  34  35
 413 prop tor  62  33  34  43
 414 prop tor  63  36  37  38
 415 prop tor  63  36  37  64
 416 prop tor  64  37  38  39
 417 prop tor  64  37  38  41
 nber bend=             131
 nber lin bend=           0
 nber prop tor=         212
 nber impr tor=           0
 nber tot redund int=         417
 Reading file: 
 ./CDT-A_3_C0S2.log                                                             
                                          
  Entering Gaussian System, Link 0=g16                                          
  
 Gaussian format, type: g94, g98, g03= F F F
  #P Geom=AllCheck Guess=TCheck SCRF=Check GenChk RCAM-B3LYP TD(FC,Read)    
 energy type= TD      
 Original G94 input coords:
  6 12.783283 13.884816-25.941879
  6 11.457851 14.627430-25.806507
  6 10.407684 14.180066-26.818234
  7 10.936823 14.570092-24.412974
  6 10.582916 13.336798-23.871382
  8 10.690394 12.308226-24.510102
  6 10.070121 13.324154-22.487508
  6  9.705210 12.106936-21.913739
  6  9.224501 12.061592-20.627593
  6  9.083564 13.236659-19.845605
  6  8.583135 13.205477-18.500366
  6  8.197847 11.996044-17.868175
  6  7.721025 11.979551-16.580620
  6  7.602977 13.165289-15.856293
  6  7.086075 13.101494-14.478039
  8  6.759899 12.063847-13.952630
  7  6.989042 14.326873-13.788999
  6  6.504612 14.294535-12.456575
  6  7.238819 14.149881-11.322294
  6  6.420472 14.162258-10.169025
  6  6.614289 14.050581 -8.676302
  6  5.194691 14.164097 -8.175659
  6  4.531324 14.154014 -6.923081
  6  3.184798 14.299493 -7.063848
 16  2.697589 14.451720 -8.722635
  6  4.331706 14.317054 -9.230700
  6  5.089154 14.315914-10.462351
 16  4.795161 14.449600-12.145985
  6  7.341103 15.581632-14.325504
  8  7.225479 16.592146-13.673834
  6  7.851580 15.582025-15.707450
  6  8.216848 16.797981-16.284183
  6  8.696529 16.841354-17.570066
  6  8.836335 15.664784-18.349105
  6  9.336809 15.695953-19.694341
  6  9.723161 16.903661-20.330020
  6 10.200590 16.917834-21.618116
  6 10.318008 15.730514-22.340003
  6 10.834246 15.782196-23.720781
  8 11.155580 16.836235-24.231297
  6  9.947793 14.512161-21.752132
  6  9.451244 14.481359-20.417779
  6  8.468334 14.420062-17.775265
  6  7.971253 14.389041-16.439536
  1 13.197880 14.073780-26.934382
  1 12.654875 12.811281-25.817182
  1 13.504603 14.244896-25.205382
  1 11.645367 15.687194-25.957819
  1 10.191572 13.117291-26.727292
  1 10.778398 14.375884-27.826638
  1  9.481580 14.743856-26.688396
  1  9.811844 11.209348-22.508197
  1  8.950808 11.102543-20.213497
  1  8.275960 11.060213-18.401221
  1  7.426868 11.055947-16.099984
  1  8.314229 14.041077-11.334446
  1  7.251555 14.849242 -8.285121
  1  7.073597 13.098908 -8.392878
  1  5.015581 14.045399 -5.962323
  1  2.433682 14.328001 -6.290486
  1  8.110186 17.696862-15.691536
  1  8.969529 17.799474-17.986610
  1  9.644822 17.841011-19.799543
  1 10.494371 17.840712-22.100112
 nber atoms=          64
  Total Energy, E(TD-HF/TD-DFT) =  -2590.21309492                               
  
          32          49 "  -2590.21309492"
After scan for Atom:   Atom  AN      X      Y      Z        X      Y      Z        X      Y      Z   
After scan for Atom:   Atom  AN      X      Y      Z        X      Y      Z        X      Y      Z   
After scan for Atom:   Atom  AN      X      Y      Z        X      Y      Z        X      Y      Z   
After scan for Atom:   Atom  AN      X      Y      Z        X      Y      Z        X      Y      Z   
After scan for Atom:   Atom  AN      X      Y      Z        X      Y      Z        X      Y      Z   
After scan for Atom:   Atom  AN      X      Y      Z        X      Y      Z        X      Y      Z   
After scan for Atom:   Atom  AN      X      Y      Z        X      Y      Z        X      Y      Z   
After scan for Atom:   Atom  AN      X      Y      Z        X      Y      Z        X      Y      Z   
After scan for Atom:   Atom  AN      X      Y      Z        X      Y      Z        X      Y      Z   
After scan for Atom:   Atom  AN      X      Y      Z        X      Y      Z        X      Y      Z   
After scan for Atom:   Atom  AN      X      Y      Z        X      Y      Z        X      Y      Z   
After scan for Atom:   Atom  AN      X      Y      Z        X      Y      Z        X      Y      Z   
After scan for Atom:   Atom  AN      X      Y      Z        X      Y      Z        X      Y      Z   
After scan for Atom:   Atom  AN      X      Y      Z        X      Y      Z        X      Y      Z   
After scan for Atom:   Atom  AN      X      Y      Z        X      Y      Z        X      Y      Z   
After scan for Atom:   Atom  AN      X      Y      Z        X      Y      Z        X      Y      Z   
After scan for Atom:   Atom  AN      X      Y      Z        X      Y      Z        X      Y      Z   
After scan for Atom:   Atom  AN      X      Y      Z        X      Y      Z        X      Y      Z   
After scan for Atom:   Atom  AN      X      Y      Z        X      Y      Z        X      Y      Z   
After scan for Atom:   Atom  AN      X      Y      Z        X      Y      Z        X      Y      Z   
After scan for Atom:   Atom  AN      X      Y      Z        X      Y      Z        X      Y      Z   
After scan for Atom:   Atom  AN      X      Y      Z        X      Y      Z        X      Y      Z   
After scan for Atom:   Atom  AN      X      Y      Z        X      Y      Z        X      Y      Z   
After scan for Atom:   Atom  AN      X      Y      Z        X      Y      Z        X      Y      Z   
After scan for Atom:   Atom  AN      X      Y      Z        X      Y      Z        X      Y      Z   
After scan for Atom:   Atom  AN      X      Y      Z        X      Y      Z        X      Y      Z   
After scan for Atom:   Atom  AN      X      Y      Z        X      Y      Z        X      Y      Z   
After scan for Atom:   Atom  AN      X      Y      Z        X      Y      Z        X      Y      Z   
After scan for Atom:   Atom  AN      X      Y      Z        X      Y      Z        X      Y      Z   
After scan for Atom:   Atom  AN      X      Y      Z        X      Y      Z        X      Y      Z   
After scan for Atom:   Atom  AN      X      Y      Z        X      Y      Z        X      Y      Z   
After scan for Atom:   Atom  AN      X      Y      Z        X      Y      Z        X      Y      Z   
After scan for Atom:   Atom  AN      X      Y      Z        X      Y      Z        X      Y      Z   
After scan for Atom:   Atom  AN      X      Y      Z        X      Y      Z        X      Y      Z   
After scan for Atom:   Atom  AN      X      Y      Z        X      Y      Z        X      Y      Z   
After scan for Atom:   Atom  AN      X      Y      Z        X      Y      Z        X      Y      Z   
After scan for Atom:   Atom  AN      X      Y      Z        X      Y      Z        X      Y      Z   
After scan for Atom:   Atom  AN      X      Y      Z        X      Y      Z        X      Y      Z   
After scan for Atom:   Atom  AN      X      Y      Z        X      Y      Z        X      Y      Z   
After scan for Atom:   Atom  AN      X      Y      Z        X      Y      Z        X      Y      Z   
After scan for Atom:   Atom  AN      X      Y      Z        X      Y      Z        X      Y      Z   
After scan for Atom:   Atom  AN      X      Y      Z        X      Y      Z        X      Y      Z   
After scan for Atom:   Atom  AN      X      Y      Z        X      Y      Z        X      Y      Z   
After scan for Atom:   Atom  AN      X      Y      Z        X      Y      Z        X      Y      Z   
After scan for Atom:   Atom  AN      X      Y      Z        X      Y      Z        X      Y      Z   
After scan for Atom:   Atom  AN      X      Y      Z        X      Y      Z        X      Y      Z   
After scan for Atom:   Atom  AN      X      Y      Z        X      Y      Z        X      Y      Z   
After scan for Atom:   Atom  AN      X      Y      Z        X      Y      Z        X      Y      Z   
After scan for Atom:   Atom  AN      X      Y      Z        X      Y      Z        X      Y      Z   
After scan for Atom:   Atom  AN      X      Y      Z        X      Y      Z        X      Y      Z   
After scan for Atom:   Atom  AN      X      Y      Z        X      Y      Z        X      Y      Z   
After scan for Atom:   Atom  AN      X      Y      Z        X      Y      Z        X      Y      Z   
After scan for Atom:   Atom  AN      X      Y      Z        X      Y      Z        X      Y      Z   
After scan for Atom:   Atom  AN      X      Y      Z        X      Y      Z        X      Y      Z   
After scan for Atom:   Atom  AN      X      Y      Z        X      Y      Z        X      Y      Z   
After scan for Atom:   Atom  AN      X      Y      Z        X      Y      Z        X      Y      Z   
After scan for Atom:   Atom  AN      X      Y      Z        X      Y      Z        X      Y      Z   
After scan for Atom:   Atom  AN      X      Y      Z        X      Y      Z        X      Y      Z   
After scan for Atom:   Atom  AN      X      Y      Z        X      Y      Z        X      Y      Z   
After scan for Atom:   Atom  AN      X      Y      Z        X      Y      Z        X      Y      Z   
After scan for Atom:   Atom  AN      X      Y      Z        X      Y      Z        X      Y      Z   
After scan for Atom:   Atom  AN      X      Y      Z        X      Y      Z        X      Y      Z   
 g94    frequencies=
     0.0    0.0    0.0    0.0    0.0    0.0   10.7   16.5   21.5   30.5
    32.4   55.3   59.6   78.1   82.2   91.9   95.2  107.9  121.8  132.8
   144.3  169.9  180.9  189.9  197.3  208.6  219.5  227.5  237.0  239.0
   241.4  257.5  261.1  285.4  303.7  307.3  327.4  345.3  360.5  382.0
   394.3  398.6  423.9  437.0  441.2  443.1  445.2  455.1  463.2  483.4
   483.9  491.3  495.4  509.9  517.7  519.1  538.5  553.6  558.7  579.0
   579.3  580.8  589.0  590.7  618.5  622.8  625.7  647.6  653.8  668.7
   683.7  689.9  713.7  720.1  722.2  723.9  730.0  734.5  769.3  771.7
   778.9  779.9  790.6  815.0  820.9  832.1  836.1  837.5  843.4  845.8
   849.5  862.2  868.7  906.4  917.9  940.4  951.6  952.4  960.5  964.1
   968.8  990.6 1000.7 1002.2 1013.3 1014.3 1022.5 1035.5 1078.4 1093.5
  1117.9 1122.2 1141.6 1154.6 1162.7 1170.2 1178.0 1180.2 1184.9 1191.3
  1197.6 1207.8 1216.9 1227.7 1248.7 1256.6 1262.7 1271.7 1284.2 1286.5
  1321.6 1322.6 1335.8 1340.0 1378.8 1383.3 1391.3 1391.6 1408.3 1415.4
  1416.0 1417.4 1426.7 1434.1 1452.0 1452.2 1455.0 1468.3 1476.5 1486.1
  1488.7 1491.0 1491.3 1504.2 1506.6 1511.5 1528.9 1530.6 1539.8 1578.5
  1579.0 1587.6 1607.9 1615.4 1617.9 1639.2 1641.8 1676.9 1738.7 1770.5
  1777.8 1804.2 3059.5 3060.7 3063.3 3093.9 3121.7 3125.0 3141.2 3159.5
  3169.2 3221.8 3221.9 3224.6 3227.1 3227.4 3233.7 3236.1 3236.2 3251.2
  3251.5 3265.9
 g94    symmetries=
                                                 A      A      A      A
       A      A      A      A      A      A      A      A      A      A
       A      A      A      A      A      A      A      A      A      A
       A      A      A      A      A      A      A      A      A      A
       A      A      A      A      A      A      A      A      A      A
       A      A      A      A      A      A      A      A      A      A
       A      A      A      A      A      A      A      A      A      A
       A      A      A      A      A      A      A      A      A      A
       A      A      A      A      A      A      A      A      A      A
       A      A      A      A      A      A      A      A      A      A
       A      A      A      A      A      A      A      A      A      A
       A      A      A      A      A      A      A      A      A      A
       A      A      A      A      A      A      A      A      A      A
       A      A      A      A      A      A      A      A      A      A
       A      A      A      A      A      A      A      A      A      A
       A      A      A      A      A      A      A      A      A      A
       A      A      A      A      A      A      A      A      A      A
       A      A      A      A      A      A      A      A      A      A
       A      A      A      A      A      A      A      A      A      A
       A      A
 atomic masses:
 12.0000 12.0000 12.0000 14.0031 12.0000 15.9949 12.0000 12.0000 12.0000 12.0000
 12.0000 12.0000 12.0000 12.0000 12.0000 15.9949 14.0031 12.0000 12.0000 12.0000
 12.0000 12.0000 12.0000 12.0000 31.9721 12.0000 12.0000 31.9721 12.0000 15.9949
 12.0000 12.0000 12.0000 12.0000 12.0000 12.0000 12.0000 12.0000 12.0000 15.9949
 12.0000 12.0000 12.0000 12.0000  1.0078  1.0078  1.0078  1.0078  1.0078  1.0078
  1.0078  1.0078  1.0078  1.0078  1.0078  1.0078  1.0078  1.0078  1.0078  1.0078
  1.0078  1.0078  1.0078  1.0078
 looking for force constants in 
 ./CDT-A_3_C0S2.fchk                                                            
  
 Cartesian Force Constants                  R   N=       18528                  
  
 n3=         192       18528
 g94-fc frequencies=
    -2.0   -0.0    0.0    0.0    0.7    2.3   10.7   16.5   21.5   30.5
    32.4   55.3   59.6   78.1   82.2   91.9   95.2  107.9  121.8  132.8
   144.3  169.9  180.9  189.9  197.3  208.6  219.5  227.6  237.0  239.0
   241.4  257.5  261.1  285.4  303.8  307.3  327.4  345.4  360.5  382.0
   394.3  398.6  423.9  437.0  441.2  443.1  445.2  455.1  463.3  483.4
   483.9  491.3  495.4  509.9  517.7  519.1  538.6  553.6  558.7  579.0
   579.3  580.8  589.0  590.7  618.5  622.8  625.7  647.7  653.8  668.7
   683.7  689.9  713.8  720.1  722.3  723.9  730.1  734.5  769.4  771.7
   778.9  779.9  790.7  815.0  820.9  832.1  836.2  837.6  843.4  845.8
   849.5  862.2  868.7  906.5  917.9  940.5  951.6  952.5  960.5  964.1
   968.8  990.6 1000.7 1002.2 1013.4 1014.3 1022.5 1035.5 1078.4 1093.5
  1117.9 1122.3 1141.6 1154.6 1162.7 1170.2 1178.0 1180.3 1184.9 1191.3
  1197.7 1207.8 1217.0 1227.7 1248.7 1256.6 1262.8 1271.7 1284.2 1286.6
  1321.7 1322.6 1335.8 1340.0 1378.9 1383.4 1391.4 1391.7 1408.4 1415.5
  1416.1 1417.4 1426.7 1434.1 1452.1 1452.3 1455.1 1468.4 1476.5 1486.2
  1488.7 1491.1 1491.3 1504.2 1506.6 1511.5 1529.0 1530.7 1539.8 1578.6
  1579.1 1587.7 1607.9 1615.5 1617.9 1639.3 1641.8 1677.0 1738.8 1770.5
  1777.8 1804.2 3059.6 3060.7 3063.3 3093.9 3121.8 3125.1 3141.2 3159.6
  3169.3 3221.8 3222.0 3224.7 3227.2 3227.4 3233.7 3236.2 3236.3 3251.3
  3251.6 3266.0
 at 99999: n3=         192
 symm operator            1 :  F  nop=           0
 symm operator            2 :  F  nop=           0
 symm operator            3 :  F  nop=           0
 symm operator            4 :  F  nop=           0
 symm operator            5 :  F  nop=           0
 symm operator            6 :  F  nop=           0
 symm operator            7 :  F  nop=           0
 The point group of the molecule is  C1
 Symmetry rotation matrix:
   1.00000   0.00000   0.00000
   0.00000   1.00000   0.00000
   0.00000   0.00000   1.00000

 Projecting out zero-frequency components
 generating redundant internal coords
         300        3600          64
 search for int coords
   1 str   2   1   1.525
   2 str   3   2   1.525
   3 str   4   2   1.489
   4 str   5   4   1.393
   5 str   6   5   1.216
   6 str   7   5   1.476
   7 str   8   7   1.394
   8 str   9   8   1.374
   9 str  10   9   1.419
  10 str  11  10   1.436
  11 str  12  11   1.418
  12 str  13  12   1.373
  13 str  14  13   1.394
  14 str  15  14   1.473
  15 str  16  15   1.208
  16 str  17  15   1.409
  17 str  18  17   1.418
  18 str  19  18   1.359
  19 str  20  19   1.414
  20 str  21  20   1.509
  21 str  22  21   1.510
  22 str  23  22   1.417
  23 str  24  23   1.362
  24 str  25  24   1.736
  25 str  26  22   1.372
  26 str  26  25   1.717
  27 str  27  20   1.372
  28 str  27  26   1.446
  29 str  28  18   1.744
  30 str  28  27   1.714
  31 str  29  17   1.409
  32 str  30  29   1.208
  33 str  31  29   1.473
  34 str  32  31   1.394
  35 str  33  32   1.373
  36 str  34  33   1.418
  37 str  35  34   1.436
  38 str  36  35   1.418
  39 str  37  36   1.374
  40 str  38  37   1.395
  41 str  39   4   1.400
  42 str  39  38   1.475
  43 str  40  39   1.214
  44 str  41   7   1.403
  45 str  41  38   1.403
  46 str  42  10   1.418
  47 str  42  35   1.418
  48 str  42  41   1.424
  49 str  43  11   1.419
  50 str  43  34   1.419
  51 str  44  14   1.405
  52 str  44  31   1.405
  53 str  44  43   1.426
  54 str  45   1   1.092
  55 str  46   1   1.088
  56 str  47   1   1.092
  57 str  48   2   1.087
  58 str  49   3   1.088
  59 str  50   3   1.092
  60 str  51   3   1.092
  61 str  52   8   1.082
  62 str  53   9   1.080
  63 str  54  12   1.080
  64 str  55  13   1.082
  65 str  56  19   1.081
  66 str  57  21   1.094
  67 str  58  21   1.094
  68 str  59  23   1.081
  69 str  60  24   1.078
  70 str  61  32   1.082
  71 str  62  33   1.080
  72 str  63  36   1.080
  73 str  64  37   1.082
 nber stretches=          73
  74 ben   1   2   3
  75 prop tor   1   2   3  49
  76 prop tor   1   2   3  50
  77 prop tor   1   2   3  51
  78 ben   1   2   4
  79 prop tor   1   2   4   5
  80 prop tor   1   2   4  39
  81 ben   1   2  48
  82 ben   2   1  45
  83 ben   2   1  46
  84 ben   2   1  47
  85 ben   2   3  49
  86 ben   2   3  50
  87 ben   2   3  51
  88 ben   2   4   5
  89 prop tor   2   4   5   6
  90 prop tor   2   4   5   7
  91 ben   2   4  39
  92 prop tor   2   4  39  38
  93 prop tor   2   4  39  40
  94 ben   3   2   4
  95 prop tor   3   2   4   5
  96 prop tor   3   2   4  39
  97 ben   3   2  48
  98 prop tor   4   2   3  49
  99 prop tor   4   2   3  50
 100 prop tor   4   2   3  51
 101 ben   4   2  48
 102 ben   4   5   6
 103 ben   4   5   7
 104 prop tor   4   5   7   8
 105 prop tor   4   5   7  41
 106 ben   4  39  38
 107 ben   4  39  40
 108 ben   5   4  39
 109 prop tor   5   4  39  38
 110 prop tor   5   4  39  40
 111 ben   5   7   8
 112 prop tor   5   7   8   9
 113 prop tor   5   7   8  52
 114 ben   5   7  41
 115 prop tor   5   7  41  38
 116 prop tor   5   7  41  42
 117 ben   6   5   7
 118 prop tor   6   5   7   8
 119 prop tor   6   5   7  41
 120 ben   7   8   9
 121 prop tor   7   8   9  10
 122 prop tor   7   8   9  53
 123 ben   7   8  52
 124 ben   7  41  38
 125 ben   7  41  42
 126 prop tor   7  41  42  10
 127 prop tor   7  41  42  35
 128 ben   8   7  41
 129 prop tor   8   7  41  38
 130 prop tor   8   7  41  42
 131 ben   8   9  10
 132 prop tor   8   9  10  11
 133 prop tor   8   9  10  42
 134 ben   8   9  53
 135 ben   9   8  52
 136 ben   9  10  11
 137 prop tor   9  10  11  12
 138 prop tor   9  10  11  43
 139 ben   9  10  42
 140 prop tor   9  10  42  35
 141 prop tor   9  10  42  41
 142 ben  10   9  53
 143 ben  10  11  12
 144 prop tor  10  11  12  13
 145 prop tor  10  11  12  54
 146 ben  10  11  43
 147 prop tor  10  11  43  34
 148 prop tor  10  11  43  44
 149 ben  10  42  35
 150 ben  10  42  41
 151 ben  11  10  42
 152 prop tor  11  10  42  35
 153 prop tor  11  10  42  41
 154 ben  11  12  13
 155 prop tor  11  12  13  14
 156 prop tor  11  12  13  55
 157 ben  11  12  54
 158 ben  11  43  34
 159 ben  11  43  44
 160 prop tor  11  43  44  14
 161 prop tor  11  43  44  31
[...]
 303 ben  34  35  36
 304 prop tor  34  35  36  37
 305 prop tor  34  35  36  63
 306 ben  34  35  42
 307 prop tor  34  35  42  10
 308 prop tor  34  35  42  41
 309 ben  34  43  44
 310 prop tor  34  43  44  14
 311 prop tor  34  43  44  31
 312 ben  35  34  43
 313 prop tor  35  34  43  11
 314 prop tor  35  34  43  44
 315 ben  35  36  37
 316 prop tor  35  36  37  38
 317 prop tor  35  36  37  64
 318 ben  35  36  63
 319 ben  35  42  41
 320 ben  36  35  42
 321 prop tor  36  35  42  10
 322 prop tor  36  35  42  41
 323 ben  36  37  38
 324 prop tor  36  37  38  39
 325 prop tor  36  37  38  41
 326 ben  36  37  64
 327 ben  37  36  63
 328 ben  37  38  39
 329 prop tor  37  38  39   4
 330 prop tor  37  38  39  40
 331 ben  37  38  41
 332 prop tor  37  38  41   7
 333 prop tor  37  38  41  42
 334 ben  38  37  64
 335 ben  38  39  40
 336 ben  38  41  42
 337 prop tor  38  41  42  10
 338 prop tor  38  41  42  35
 339 prop tor  39   4   5   6
 340 prop tor  39   4   5   7
 341 ben  39  38  41
 342 prop tor  39  38  41   7
 343 prop tor  39  38  41  42
 344 prop tor  41   7   8   9
 345 prop tor  41   7   8  52
 346 prop tor  41  38  39   4
 347 prop tor  41  38  39  40
 348 prop tor  42  10  11  12
 349 prop tor  42  10  11  43
 350 prop tor  42  35  36  37
 351 prop tor  42  35  36  63
 352 prop tor  43  11  12  13
 353 prop tor  43  11  12  54
 354 prop tor  43  34  35  36
 355 prop tor  43  34  35  42
 356 prop tor  44  14  15  16
 357 prop tor  44  14  15  17
 358 prop tor  44  31  32  33
 359 prop tor  44  31  32  61
 360 prop tor  45   1   2   3
 361 prop tor  45   1   2   4
 362 prop tor  45   1   2  48
 363 ben  45   1  46
 364 ben  45   1  47
 365 prop tor  46   1   2   3
 366 prop tor  46   1   2   4
 367 prop tor  46   1   2  48
 368 ben  46   1  47
 369 prop tor  47   1   2   3
 370 prop tor  47   1   2   4
 371 prop tor  47   1   2  48
 372 prop tor  48   2   3  49
 373 prop tor  48   2   3  50
 374 prop tor  48   2   3  51
 375 prop tor  48   2   4   5
 376 prop tor  48   2   4  39
 377 ben  49   3  50
 378 ben  49   3  51
 379 ben  50   3  51
 380 prop tor  52   8   9  10
 381 prop tor  52   8   9  53
 382 prop tor  53   9  10  11
 383 prop tor  53   9  10  42
 384 prop tor  54  12  13  14
 385 prop tor  54  12  13  55
 386 prop tor  55  13  14  15
 387 prop tor  55  13  14  44
 388 prop tor  56  19  20  21
 389 prop tor  56  19  20  27
 390 prop tor  57  21  22  23
 391 prop tor  57  21  22  26
 392 ben  57  21  58
 393 prop tor  58  21  22  23
 394 prop tor  58  21  22  26
 395 prop tor  59  23  24  25
 396 prop tor  59  23  24  60
 397 prop tor  60  24  25  26
 398 prop tor  61  32  33  34
 399 prop tor  61  32  33  62
 400 prop tor  62  33  34  35
 401 prop tor  62  33  34  43
 402 prop tor  63  36  37  38
 403 prop tor  63  36  37  64
 404 prop tor  64  37  38  39
 405 prop tor  64  37  38  41
 nber bend=             128
 nber lin bend=           0
 nber prop tor=         204
 nber impr tor=           0
 nber tot redund int=         405
 Eigenvalues of G in red int coords
    Gval -0.00000000 -0.00000000 -0.00000000 -0.00000000 -0.00000000 -0.00000000 -0.00000000 -0.00000000
    Gval -0.00000000 -0.00000000 -0.00000000 -0.00000000 -0.00000000 -0.00000000 -0.00000000 -0.00000000
    Gval -0.00000000 -0.00000000 -0.00000000 -0.00000000 -0.00000000 -0.00000000 -0.00000000 -0.00000000
    Gval -0.00000000 -0.00000000 -0.00000000 -0.00000000 -0.00000000 -0.00000000 -0.00000000 -0.00000000
    Gval -0.00000000 -0.00000000 -0.00000000 -0.00000000 -0.00000000 -0.00000000 -0.00000000 -0.00000000
    Gval -0.00000000 -0.00000000 -0.00000000 -0.00000000 -0.00000000 -0.00000000 -0.00000000 -0.00000000
    Gval -0.00000000 -0.00000000 -0.00000000 -0.00000000 -0.00000000 -0.00000000 -0.00000000 -0.00000000
    Gval -0.00000000 -0.00000000 -0.00000000 -0.00000000 -0.00000000 -0.00000000 -0.00000000 -0.00000000
    Gval -0.00000000 -0.00000000 -0.00000000 -0.00000000 -0.00000000 -0.00000000 -0.00000000 -0.00000000
    Gval -0.00000000 -0.00000000 -0.00000000 -0.00000000 -0.00000000 -0.00000000 -0.00000000 -0.00000000
    Gval -0.00000000 -0.00000000 -0.00000000 -0.00000000 -0.00000000 -0.00000000 -0.00000000 -0.00000000
    Gval -0.00000000 -0.00000000 -0.00000000 -0.00000000 -0.00000000 -0.00000000 -0.00000000 -0.00000000
    Gval -0.00000000 -0.00000000 -0.00000000 -0.00000000 -0.00000000 -0.00000000 -0.00000000 -0.00000000
    Gval -0.00000000 -0.00000000 -0.00000000 -0.00000000 -0.00000000 -0.00000000  0.00000000  0.00000000
    Gval  0.00000000  0.00000000  0.00000000  0.00000000  0.00000000  0.00000000  0.00000000  0.00000000
    Gval  0.00000000  0.00000000  0.00000000  0.00000000  0.00000000  0.00000000  0.00000000  0.00000000
    Gval  0.00000000  0.00000000  0.00000000  0.00000000  0.00000000  0.00000000  0.00000000  0.00000000
    Gval  0.00000000  0.00000000  0.00000000  0.00000000  0.00000000  0.00000000  0.00000000  0.00000000
    Gval  0.00000000  0.00000000  0.00000000  0.00000000  0.00000000  0.00000000  0.00000000  0.00000000
    Gval  0.00000000  0.00000000  0.00000000  0.00000000  0.00000000  0.00000000  0.00000000  0.00000000
    Gval  0.00000000  0.00000000  0.00000000  0.00000000  0.00000000  0.00000000  0.00000000  0.00000000
    Gval  0.00000000  0.00000000  0.00000000  0.00000000  0.00000000  0.00000000  0.00000000  0.00000000
    Gval  0.00000000  0.00000000  0.00000000  0.00000000  0.00000000  0.00000000  0.00000000  0.00000000
    Gval  0.00000000  0.00000000  0.00000000  0.00000000  0.00000000  0.00000000  0.00000000  0.00000000
    Gval  0.00000000  0.00000000  0.00000000  0.00000000  0.00000000  0.00000000  0.00000000  0.00000000
    Gval  0.00000000  0.00000000  0.00000000  0.00000000  0.00000000  0.00000000  0.00000000  0.00000000
    Gval  0.00000000  0.00000000  0.00000000  0.00000000  0.00000000  0.00000000  0.00000000  0.00000000
    Gval  0.00000000  0.00000000  0.00000000  0.00000030  0.00000038  0.00000123  0.00000180  0.00000274
    Gval  0.00000418  0.00000520  0.00000583  0.00000772  0.00000930  0.00001102  0.00001258  0.00001300
    Gval  0.00001522  0.00001559  0.00001651  0.00001763  0.00001831  0.00001936  0.00001952  0.00002174
    Gval  0.00002402  0.00002480  0.00002489  0.00002568  0.00002749  0.00003008  0.00003478  0.00003699
    Gval  0.00003907  0.00004004  0.00004780  0.00004892  0.00005111  0.00005127  0.00005314  0.00005566
    Gval  0.00005727  0.00005989  0.00006143  0.00006773  0.00007001  0.00007207  0.00007309  0.00007352
    Gval  0.00008055  0.00008168  0.00008256  0.00008491  0.00008739  0.00008844  0.00009340  0.00009341
    Gval  0.00009524  0.00010060  0.00010349  0.00011154  0.00011821  0.00012258  0.00013423  0.00013633
    Gval  0.00013650  0.00013765  0.00014067  0.00015563  0.00015759  0.00015931  0.00016082  0.00016684
    Gval  0.00018249  0.00018839  0.00019936  0.00020818  0.00021966  0.00022354  0.00022992  0.00023155
    Gval  0.00025559  0.00027496  0.00028756  0.00028800  0.00029213  0.00030080  0.00030604  0.00030991
    Gval  0.00034345  0.00036245  0.00037126  0.00037740  0.00038176  0.00038785  0.00038924  0.00039324
    Gval  0.00039457  0.00040274  0.00042466  0.00042706  0.00043092  0.00043591  0.00043870  0.00044332
    Gval  0.00044455  0.00046567  0.00046845  0.00047275  0.00048843  0.00049748  0.00053445  0.00053749
    Gval  0.00054545  0.00055428  0.00055597  0.00055601  0.00058094  0.00058328  0.00059679  0.00059857
    Gval  0.00059937  0.00059967  0.00059997  0.00060230  0.00060970  0.00062452  0.00062744  0.00063217
    Gval  0.00064153  0.00064522  0.00064587  0.00064781  0.00067170  0.00069555  0.00069892  0.00080244
    Gval  0.00081707  0.00093731  0.00099030  0.00101855  0.00108279  0.00109496  0.00109590  0.00109664
    Gval  0.00109714  0.00110814  0.00114479  0.00114825  0.00116795  0.00116810  0.00116843  0.00116867
    Gval  0.00117259  0.00117314  0.00118698  0.00121534  0.00127116  0.00130000  0.00134398  0.00138525
    Gval  0.00139015  0.00149217  0.00157815  0.00166821  0.00172635  0.00179605  0.00193321  0.00196087
    Gval  0.00208556  0.00228761  0.00234439  0.00252782  0.00253858  0.00257995  0.00266506  0.00281049
    Gval  0.00292893  0.00303159  0.00303261  0.00304974  0.00308991  0.00310141  0.00368730  0.00368908
    Gval  0.00373458  0.00373616  0.00375753  0.00395431  0.00408888
  2.987082444442825E-007  2.987082444442825E-007
  3.783926342974033E-007  2.987082444442825E-007
  1.225481459001242E-006  2.987082444442825E-007
  1.795528046316922E-006  2.987082444442825E-007
  2.744950439022350E-006  2.987082444442825E-007
  4.180794744193147E-006  2.987082444442825E-007
  5.201952562330317E-006  2.987082444442825E-007
  5.831543202444701E-006  2.987082444442825E-007
  7.722244259553971E-006  2.987082444442825E-007
  9.303602447224103E-006  2.987082444442825E-007
  1.101841645442502E-005  2.987082444442825E-007
  1.257937994156948E-005  2.987082444442825E-007
  1.299722093664945E-005  2.987082444442825E-007
  1.521997006510536E-005  2.987082444442825E-007
  1.558712651395557E-005  2.987082444442825E-007
  1.651247208438580E-005  2.987082444442825E-007
  1.763330601954674E-005  2.987082444442825E-007
  1.831021323983269E-005  2.987082444442825E-007
  1.936203021019549E-005  2.987082444442825E-007
  1.952262113283760E-005  2.987082444442825E-007
  2.174380424194449E-005  2.987082444442825E-007
  2.401812759469574E-005  2.987082444442825E-007
  2.480219253072988E-005  2.987082444442825E-007
  2.488509635695303E-005  2.987082444442825E-007
  2.568460996227210E-005  2.987082444442825E-007
  2.748669408029098E-005  2.987082444442825E-007
  3.008131546864383E-005  2.987082444442825E-007
  3.478161298939942E-005  2.987082444442825E-007
  3.699142151259580E-005  2.987082444442825E-007
  3.907457339499787E-005  2.987082444442825E-007
  4.004046699587399E-005  2.987082444442825E-007
  4.779574485937246E-005  2.987082444442825E-007
  4.892105332383858E-005  2.987082444442825E-007
  5.111051047117348E-005  2.987082444442825E-007
  5.127212078499431E-005  2.987082444442825E-007
  5.313900510879039E-005  2.987082444442825E-007
  5.566464971386442E-005  2.987082444442825E-007
  5.726582218857014E-005  2.987082444442825E-007
  5.988877527400003E-005  2.987082444442825E-007
  6.142627776750333E-005  2.987082444442825E-007
  6.772618181037838E-005  2.987082444442825E-007
  7.000691422456321E-005  2.987082444442825E-007
  7.206813850736561E-005  2.987082444442825E-007
  7.309396607727937E-005  2.987082444442825E-007
  7.351897227791479E-005  2.987082444442825E-007
  8.055155771049153E-005  2.987082444442825E-007
  8.167977515734715E-005  2.987082444442825E-007
  8.256112917349984E-005  2.987082444442825E-007
  8.490833252593813E-005  2.987082444442825E-007
  8.739340820967310E-005  2.987082444442825E-007
  8.843736452292857E-005  2.987082444442825E-007
  9.340112579740915E-005  2.987082444442825E-007
  9.340640952719431E-005  2.987082444442825E-007
  9.523537508835223E-005  2.987082444442825E-007
  1.005989251479364E-004  2.987082444442825E-007
  1.034883852242644E-004  2.987082444442825E-007
  1.115384080101967E-004  2.987082444442825E-007
  1.182132536945098E-004  2.987082444442825E-007
  1.225842707914581E-004  2.987082444442825E-007
  1.342257242795473E-004  2.987082444442825E-007
  1.363325935412325E-004  2.987082444442825E-007
  1.364976796907226E-004  2.987082444442825E-007
  1.376472404925584E-004  2.987082444442825E-007
  1.406704018614189E-004  2.987082444442825E-007
  1.556306033482098E-004  2.987082444442825E-007
  1.575948895161785E-004  2.987082444442825E-007
  1.593056780247923E-004  2.987082444442825E-007
  1.608213602613514E-004  2.987082444442825E-007
  1.668351269622529E-004  2.987082444442825E-007
  1.824941607370711E-004  2.987082444442825E-007
  1.883949867701244E-004  2.987082444442825E-007
  1.993640687919798E-004  2.987082444442825E-007
  2.081844355823741E-004  2.987082444442825E-007
  2.196579787134334E-004  2.987082444442825E-007
  2.235442721667762E-004  2.987082444442825E-007
  2.299234022269728E-004  2.987082444442825E-007
  2.315454175754015E-004  2.987082444442825E-007
  2.555869262208382E-004  2.987082444442825E-007
  2.749590950884720E-004  2.987082444442825E-007
  2.875588968916459E-004  2.987082444442825E-007
  2.880041604454565E-004  2.987082444442825E-007
  2.921327576231655E-004  2.987082444442825E-007
  3.008014626427499E-004  2.987082444442825E-007
  3.060418652045261E-004  2.987082444442825E-007
  3.099101642230499E-004  2.987082444442825E-007
  3.434518603436939E-004  2.987082444442825E-007
  3.624464972995093E-004  2.987082444442825E-007
  3.712624406715069E-004  2.987082444442825E-007
  3.774010338088043E-004  2.987082444442825E-007
  3.817637772753032E-004  2.987082444442825E-007
  3.878465994305724E-004  2.987082444442825E-007
  3.892447052402074E-004  2.987082444442825E-007
  3.932431807088441E-004  2.987082444442825E-007
  3.945707531363212E-004  2.987082444442825E-007
  4.027438938969949E-004  2.987082444442825E-007
  4.246611256824984E-004  2.987082444442825E-007
  4.270572213483184E-004  2.987082444442825E-007
  4.309221865273904E-004  2.987082444442825E-007
  4.359093747248221E-004  2.987082444442825E-007
  4.387000892543841E-004  2.987082444442825E-007
  4.433216141417830E-004  2.987082444442825E-007
  4.445487175800575E-004  2.987082444442825E-007
  4.656669750219216E-004  2.987082444442825E-007
  4.684472824107696E-004  2.987082444442825E-007
  4.727518194146316E-004  2.987082444442825E-007
  4.884290175538564E-004  2.987082444442825E-007
  4.974835855225008E-004  2.987082444442825E-007
  5.344482785327073E-004  2.987082444442825E-007
  5.374942854622786E-004  2.987082444442825E-007
  5.454526995977793E-004  2.987082444442825E-007
  5.542787614447383E-004  2.987082444442825E-007
  5.559656956601651E-004  2.987082444442825E-007
  5.560103154354512E-004  2.987082444442825E-007
  5.809386544247223E-004  2.987082444442825E-007
  5.832787625732116E-004  2.987082444442825E-007
  5.967895838825946E-004  2.987082444442825E-007
  5.985724697679104E-004  2.987082444442825E-007
  5.993663533497311E-004  2.987082444442825E-007
  5.996724238792563E-004  2.987082444442825E-007
  5.999701019094328E-004  2.987082444442825E-007
  6.022999483030763E-004  2.987082444442825E-007
  6.097035359208208E-004  2.987082444442825E-007
  6.245197974376140E-004  2.987082444442825E-007
  6.274425200034254E-004  2.987082444442825E-007
  6.321725845579415E-004  2.987082444442825E-007
  6.415317595119761E-004  2.987082444442825E-007
  6.452240112300002E-004  2.987082444442825E-007
  6.458662401559258E-004  2.987082444442825E-007
  6.478090963221287E-004  2.987082444442825E-007
  6.716963763824840E-004  2.987082444442825E-007
  6.955495837988736E-004  2.987082444442825E-007
  6.989234840863085E-004  2.987082444442825E-007
  8.024441418821691E-004  2.987082444442825E-007
  8.170724204642637E-004  2.987082444442825E-007
  9.373134792696610E-004  2.987082444442825E-007
  9.903043733779915E-004  2.987082444442825E-007
  1.018548251118433E-003  2.987082444442825E-007
  1.082792293493575E-003  2.987082444442825E-007
  1.094964764407222E-003  2.987082444442825E-007
  1.095902882052075E-003  2.987082444442825E-007
  1.096642934040460E-003  2.987082444442825E-007
  1.097136004873912E-003  2.987082444442825E-007
  1.108136576659653E-003  2.987082444442825E-007
  1.144792419532790E-003  2.987082444442825E-007
  1.148246009901072E-003  2.987082444442825E-007
  1.167950361278020E-003  2.987082444442825E-007
  1.168103378812718E-003  2.987082444442825E-007
  1.168425451656476E-003  2.987082444442825E-007
  1.168672653149250E-003  2.987082444442825E-007
  1.172592219991969E-003  2.987082444442825E-007
  1.173137922112042E-003  2.987082444442825E-007
  1.186982296877188E-003  2.987082444442825E-007
  1.215343718249936E-003  2.987082444442825E-007
  1.271160261747275E-003  2.987082444442825E-007
  1.299996114953347E-003  2.987082444442825E-007
  1.343984960549467E-003  2.987082444442825E-007
  1.385247606319782E-003  2.987082444442825E-007
  1.390150676854839E-003  2.987082444442825E-007
  1.492172221106485E-003  2.987082444442825E-007
  1.578152175098604E-003  2.987082444442825E-007
  1.668209271654269E-003  2.987082444442825E-007
  1.726350157240003E-003  2.987082444442825E-007
  1.796049850232612E-003  2.987082444442825E-007
  1.933213322148753E-003  2.987082444442825E-007
  1.960867647474679E-003  2.987082444442825E-007
  2.085556863001388E-003  2.987082444442825E-007
  2.287608052479252E-003  2.987082444442825E-007
  2.344394497309661E-003  2.987082444442825E-007
  2.527816146334158E-003  2.987082444442825E-007
  2.538575360320738E-003  2.987082444442825E-007
  2.579953998513478E-003  2.987082444442825E-007
  2.665059515657021E-003  2.987082444442825E-007
  2.810486295330711E-003  2.987082444442825E-007
  2.928933712180373E-003  2.987082444442825E-007
  3.031587561665913E-003  2.987082444442825E-007
  3.032609792755874E-003  2.987082444442825E-007
  3.049736050262273E-003  2.987082444442825E-007
  3.089913898290652E-003  2.987082444442825E-007
  3.101410287221689E-003  2.987082444442825E-007
  3.687301533775715E-003  2.987082444442825E-007
  3.689083169434584E-003  2.987082444442825E-007
  3.734576281457076E-003  2.987082444442825E-007
  3.736156745535063E-003  2.987082444442825E-007
  3.757534980462726E-003  2.987082444442825E-007
  3.954312094160853E-003  2.987082444442825E-007
  4.088876976547303E-003  2.987082444442825E-007
 cut=1d-8, nber non-redundant internal coords=         186
 Check on Eigenvals of non-red overlap matrix:
  0.00000030  0.00000038  0.00000123  0.00000180  0.00000274  0.00000418  0.00000520  0.00000583
  0.00000772  0.00000930  0.00001102  0.00001258  0.00001300  0.00001522  0.00001559  0.00001651
  0.00001763  0.00001831  0.00001936  0.00001952  0.00002174  0.00002402  0.00002480  0.00002489
  0.00002568  0.00002749  0.00003008  0.00003478  0.00003699  0.00003907  0.00004004  0.00004780
  0.00004892  0.00005111  0.00005127  0.00005314  0.00005566  0.00005727  0.00005989  0.00006143
  0.00006773  0.00007001  0.00007207  0.00007309  0.00007352  0.00008055  0.00008168  0.00008256
  0.00008491  0.00008739  0.00008844  0.00009340  0.00009341  0.00009524  0.00010060  0.00010349
  0.00011154  0.00011821  0.00012258  0.00013423  0.00013633  0.00013650  0.00013765  0.00014067
  0.00015563  0.00015759  0.00015931  0.00016082  0.00016684  0.00018249  0.00018839  0.00019936
  0.00020818  0.00021966  0.00022354  0.00022992  0.00023155  0.00025559  0.00027496  0.00028756
  0.00028800  0.00029213  0.00030080  0.00030604  0.00030991  0.00034345  0.00036245  0.00037126
  0.00037740  0.00038176  0.00038785  0.00038924  0.00039324  0.00039457  0.00040274  0.00042466
  0.00042706  0.00043092  0.00043591  0.00043870  0.00044332  0.00044455  0.00046567  0.00046845
  0.00047275  0.00048843  0.00049748  0.00053445  0.00053749  0.00054545  0.00055428  0.00055597
  0.00055601  0.00058094  0.00058328  0.00059679  0.00059857  0.00059937  0.00059967  0.00059997
  0.00060230  0.00060970  0.00062452  0.00062744  0.00063217  0.00064153  0.00064522  0.00064587
  0.00064781  0.00067170  0.00069555  0.00069892  0.00080244  0.00081707  0.00093731  0.00099030
  0.00101855  0.00108279  0.00109496  0.00109590  0.00109664  0.00109714  0.00110814  0.00114479
  0.00114825  0.00116795  0.00116810  0.00116843  0.00116867  0.00117259  0.00117314  0.00118698
  0.00121534  0.00127116  0.00130000  0.00134398  0.00138525  0.00139015  0.00149217  0.00157815
  0.00166821  0.00172635  0.00179605  0.00193321  0.00196087  0.00208556  0.00228761  0.00234439
  0.00252782  0.00253858  0.00257995  0.00266506  0.00281049  0.00292893  0.00303159  0.00303261
  0.00304974  0.00308991  0.00310141  0.00368730  0.00368908  0.00373458  0.00373616  0.00375753
  0.00395431  0.00408888
 int defn changed for coord          32
          30          28           0           0
          30          29           0           0
