 Enter ifcurve (0=recti, 1=orth curvi, 2=apprx curvi, -1 = skip
 And atom ordering flag, 0= never changes, 1= use the first order thenceforth,
  2= deduce it (does read on fail), 3= always read it
 Reading file: 
 ./phenothiazine-pyrene_3_C0S0.log                                              
                                          
  Entering Gaussian System, Link 0=g16                                          
  
 Gaussian format, type: g94, g98, g03= F F F
  #P Geom=AllCheck Guess=TCheck SCRF=Check Test GenChk RB3LYP/6-311G(d,p    
 energy type= B3LYP   
 Original G94 input coords:
  6 -7.345879  0.924880  1.940657
  7 -6.703097  0.236821  0.831574
  6 -7.387346  0.173307 -0.403472
  6 -8.478960  1.002846 -0.691475
  6 -9.153571  0.898020 -1.906714
  6 -8.731917 -0.008536 -2.872154
  6 -7.628027 -0.818302 -2.611438
  6 -6.974653 -0.745886 -1.385275
 16 -5.662497 -1.890690 -1.004226
  6 -4.661859 -0.812689  0.002481
  6 -3.279097 -0.942723 -0.005258
  6 -2.469403 -0.188923  0.857595
  6 -0.996396 -0.356536  0.865538
  6 -0.406365 -1.619827  0.716849
  6  0.974987 -1.774703  0.724864
  6  1.827923 -0.673514  0.877418
  6  3.303897 -0.859557  0.929265
  6  3.833062 -1.726235  1.894178
  6  5.198980 -1.921665  2.033196
  6  6.106533 -1.252898  1.202656
  6  7.526110 -1.417382  1.333487
  6  8.391284 -0.764957  0.515412
  6  7.918266  0.111159 -0.518470
  6  8.792713  0.789716 -1.379307
  6  8.304081  1.626468 -2.377458
  6  6.934616  1.804254 -2.541226
  6  6.021568  1.148507 -1.702767
  6  4.602923  1.292186 -1.849744
  6  3.733439  0.656404 -1.021787
  6  4.189245 -0.189253  0.049075
  6  5.599189 -0.381837  0.193960
  6  6.510874  0.292533 -0.673361
  6  1.239455  0.589866  1.030868
  6 -0.141390  0.744233  1.024687
  6 -3.105722  0.727509  1.701224
  6 -4.487476  0.890826  1.686145
  6 -5.296963  0.115459  0.846728
  1 -7.278291  2.020511  1.878737
  1 -6.884365  0.601538  2.873798
  1 -8.398733  0.644112  1.969701
  1 -8.806656  1.737995  0.031196
  1-10.003519  1.543160 -2.097434
  1 -9.248062 -0.084834 -3.821584
  1 -7.276834 -1.524033 -3.355422
  1 -2.825293 -1.637736 -0.701896
  1 -1.036633 -2.495998  0.614580
  1  1.402127 -2.764117  0.604393
  1  3.150859 -2.233282  2.567095
  1  5.574580 -2.588577  2.802075
  1  7.896543 -2.080797  2.108071
  1  9.462058 -0.898780  0.628199
  1  9.862244  0.653167 -1.259280
  1  8.996209  2.141663 -3.034096
  1  6.559284  2.454021 -3.324697
  1  4.228846  1.919004 -2.652658
  1  2.668465  0.772233 -1.173188
  1  1.872675  1.459312  1.166426
  1 -0.563644  1.737521  1.127071
  1 -2.517183  1.318584  2.392989
  1 -4.933201  1.626454  2.342199
 nber atoms=          60
  SCF Done:  E(RB3LYP) =  -1800.92257580     A.U. after    1 cycles             
  
          23          40 "  -1800.92257580"
After scan for Atom:   Atom  AN      X      Y      Z        X      Y      Z        X      Y      Z   
After scan for Atom:   Atom  AN      X      Y      Z        X      Y      Z        X      Y      Z   
After scan for Atom:   Atom  AN      X      Y      Z        X      Y      Z        X      Y      Z   
After scan for Atom:   Atom  AN      X      Y      Z        X      Y      Z        X      Y      Z   
After scan for Atom:   Atom  AN      X      Y      Z        X      Y      Z        X      Y      Z   
After scan for Atom:   Atom  AN      X      Y      Z        X      Y      Z        X      Y      Z   
After scan for Atom:   Atom  AN      X      Y      Z        X      Y      Z        X      Y      Z   
After scan for Atom:   Atom  AN      X      Y      Z        X      Y      Z        X      Y      Z   
After scan for Atom:   Atom  AN      X      Y      Z        X      Y      Z        X      Y      Z   
After scan for Atom:   Atom  AN      X      Y      Z        X      Y      Z        X      Y      Z   
After scan for Atom:   Atom  AN      X      Y      Z        X      Y      Z        X      Y      Z   
After scan for Atom:   Atom  AN      X      Y      Z        X      Y      Z        X      Y      Z   
After scan for Atom:   Atom  AN      X      Y      Z        X      Y      Z        X      Y      Z   
After scan for Atom:   Atom  AN      X      Y      Z        X      Y      Z        X      Y      Z   
After scan for Atom:   Atom  AN      X      Y      Z        X      Y      Z        X      Y      Z   
After scan for Atom:   Atom  AN      X      Y      Z        X      Y      Z        X      Y      Z   
After scan for Atom:   Atom  AN      X      Y      Z        X      Y      Z        X      Y      Z   
After scan for Atom:   Atom  AN      X      Y      Z        X      Y      Z        X      Y      Z   
After scan for Atom:   Atom  AN      X      Y      Z        X      Y      Z        X      Y      Z   
After scan for Atom:   Atom  AN      X      Y      Z        X      Y      Z        X      Y      Z   
After scan for Atom:   Atom  AN      X      Y      Z        X      Y      Z        X      Y      Z   
After scan for Atom:   Atom  AN      X      Y      Z        X      Y      Z        X      Y      Z   
After scan for Atom:   Atom  AN      X      Y      Z        X      Y      Z        X      Y      Z   
After scan for Atom:   Atom  AN      X      Y      Z        X      Y      Z        X      Y      Z   
After scan for Atom:   Atom  AN      X      Y      Z        X      Y      Z        X      Y      Z   
After scan for Atom:   Atom  AN      X      Y      Z        X      Y      Z        X      Y      Z   
After scan for Atom:   Atom  AN      X      Y      Z        X      Y      Z        X      Y      Z   
After scan for Atom:   Atom  AN      X      Y      Z        X      Y      Z        X      Y      Z   
After scan for Atom:   Atom  AN      X      Y      Z        X      Y      Z        X      Y      Z   
After scan for Atom:   Atom  AN      X      Y      Z        X      Y      Z        X      Y      Z   
After scan for Atom:   Atom  AN      X      Y      Z        X      Y      Z        X      Y      Z   
After scan for Atom:   Atom  AN      X      Y      Z        X      Y      Z        X      Y      Z   
After scan for Atom:   Atom  AN      X      Y      Z        X      Y      Z        X      Y      Z   
After scan for Atom:   Atom  AN      X      Y      Z        X      Y      Z        X      Y      Z   
After scan for Atom:   Atom  AN      X      Y      Z        X      Y      Z        X      Y      Z   
After scan for Atom:   Atom  AN      X      Y      Z        X      Y      Z        X      Y      Z   
After scan for Atom:   Atom  AN      X      Y      Z        X      Y      Z        X      Y      Z   
After scan for Atom:   Atom  AN      X      Y      Z        X      Y      Z        X      Y      Z   
After scan for Atom:   Atom  AN      X      Y      Z        X      Y      Z        X      Y      Z   
After scan for Atom:   Atom  AN      X      Y      Z        X      Y      Z        X      Y      Z   
After scan for Atom:   Atom  AN      X      Y      Z        X      Y      Z        X      Y      Z   
After scan for Atom:   Atom  AN      X      Y      Z        X      Y      Z        X      Y      Z   
After scan for Atom:   Atom  AN      X      Y      Z        X      Y      Z        X      Y      Z   
After scan for Atom:   Atom  AN      X      Y      Z        X      Y      Z        X      Y      Z   
After scan for Atom:   Atom  AN      X      Y      Z        X      Y      Z        X      Y      Z   
After scan for Atom:   Atom  AN      X      Y      Z        X      Y      Z        X      Y      Z   
After scan for Atom:   Atom  AN      X      Y      Z        X      Y      Z        X      Y      Z   
After scan for Atom:   Atom  AN      X      Y      Z        X      Y      Z        X      Y      Z   
After scan for Atom:   Atom  AN      X      Y      Z        X      Y      Z        X      Y      Z   
After scan for Atom:   Atom  AN      X      Y      Z        X      Y      Z        X      Y      Z   
After scan for Atom:   Atom  AN      X      Y      Z        X      Y      Z        X      Y      Z   
After scan for Atom:   Atom  AN      X      Y      Z        X      Y      Z        X      Y      Z   
After scan for Atom:   Atom  AN      X      Y      Z        X      Y      Z        X      Y      Z   
After scan for Atom:   Atom  AN      X      Y      Z        X      Y      Z        X      Y      Z   
After scan for Atom:   Atom  AN      X      Y      Z        X      Y      Z        X      Y      Z   
After scan for Atom:   Atom  AN      X      Y      Z        X      Y      Z        X      Y      Z   
After scan for Atom:   Atom  AN      X      Y      Z        X      Y      Z        X      Y      Z   
After scan for Atom:   Atom  AN      X      Y      Z        X      Y      Z        X      Y      Z   
 g94    frequencies=
     0.0    0.0    0.0    0.0    0.0    0.0   12.0   17.3   24.1   40.9
    58.5   67.6   78.4  103.5  117.4  124.3  144.3  147.2  173.1  196.0
   212.5  221.4  248.3  262.2  265.9  274.9  299.3  320.4  332.4  354.6
   369.2  385.1  414.4  418.0  421.3  432.2  443.2  445.8  448.5  462.0
   472.8  484.8  510.6  514.3  519.3  521.8  526.7  549.0  555.5  566.9
   578.5  598.7  615.9  626.0  630.1  652.2  659.6  691.0  694.0  705.0
   713.5  725.4  737.0  739.7  745.5  760.3  765.5  770.1  776.0  810.4
   820.1  829.3  833.0  838.6  847.8  854.9  856.4  860.2  863.3  871.3
   888.6  907.8  910.8  937.1  952.2  965.1  977.4  977.8  978.0  982.8
   985.6  986.6  995.0 1018.9 1034.9 1059.8 1061.1 1067.3 1069.3 1097.5
  1125.6 1127.2 1135.1 1141.5 1142.2 1150.6 1162.0 1168.6 1181.6 1182.2
  1188.3 1201.5 1211.0 1215.9 1242.3 1263.1 1269.4 1269.6 1281.9 1284.5
  1294.3 1299.7 1311.8 1321.0 1327.5 1331.8 1339.8 1358.5 1361.2 1387.6
  1407.7 1416.4 1430.6 1440.0 1445.4 1461.5 1463.2 1475.7 1485.2 1495.9
  1497.8 1518.4 1521.7 1526.3 1537.3 1551.0 1571.0 1582.6 1599.1 1614.3
  1619.2 1620.7 1631.5 1643.0 1647.4 1650.1 1667.8 2975.4 3085.0 3125.2
  3155.9 3158.3 3161.5 3162.0 3165.4 3166.4 3167.1 3168.2 3175.1 3177.1
  3177.1 3179.4 3180.7 3182.9 3183.4 3185.0 3191.6 3201.6 3202.8 3203.3
 g94    symmetries=
                                                 A      A      A      A
       A      A      A      A      A      A      A      A      A      A
       A      A      A      A      A      A      A      A      A      A
       A      A      A      A      A      A      A      A      A      A
       A      A      A      A      A      A      A      A      A      A
       A      A      A      A      A      A      A      A      A      A
       A      A      A      A      A      A      A      A      A      A
       A      A      A      A      A      A      A      A      A      A
       A      A      A      A      A      A      A      A      A      A
       A      A      A      A      A      A      A      A      A      A
       A      A      A      A      A      A      A      A      A      A
       A      A      A      A      A      A      A      A      A      A
       A      A      A      A      A      A      A      A      A      A
       A      A      A      A      A      A      A      A      A      A
       A      A      A      A      A      A      A      A      A      A
       A      A      A      A      A      A      A      A      A      A
       A      A      A      A      A      A      A      A      A      A
       A      A      A      A      A      A      A      A      A      A
 atomic masses:
 12.0000 14.0031 12.0000 12.0000 12.0000 12.0000 12.0000 12.0000 31.9721 12.0000
 12.0000 12.0000 12.0000 12.0000 12.0000 12.0000 12.0000 12.0000 12.0000 12.0000
 12.0000 12.0000 12.0000 12.0000 12.0000 12.0000 12.0000 12.0000 12.0000 12.0000
 12.0000 12.0000 12.0000 12.0000 12.0000 12.0000 12.0000  1.0078  1.0078  1.0078
  1.0078  1.0078  1.0078  1.0078  1.0078  1.0078  1.0078  1.0078  1.0078  1.0078
  1.0078  1.0078  1.0078  1.0078  1.0078  1.0078  1.0078  1.0078  1.0078  1.0078
 looking for force constants in 
 ./phenothiazine-pyrene_3_C0S0.fchk                                             
  
 Cartesian Force Constants                  R   N=       16290                  
  
 n3=         180       16290
 g94-fc frequencies=
    -2.3   -1.3   -0.0    0.0    0.0    1.1   12.0   17.3   24.1   41.0
    58.5   67.6   78.4  103.5  117.4  124.3  144.3  147.2  173.1  196.0
   212.5  221.4  248.3  262.2  265.9  274.9  299.3  320.4  332.4  354.6
   369.2  385.1  414.4  418.0  421.3  432.2  443.2  445.8  448.6  462.0
   472.8  484.8  510.7  514.3  519.3  521.8  526.7  549.0  555.5  566.9
   578.5  598.7  615.9  626.0  630.1  652.2  659.6  691.0  694.0  705.0
   713.5  725.4  737.0  739.7  745.6  760.3  765.5  770.1  776.0  810.4
   820.1  829.3  833.1  838.6  847.9  854.9  856.5  860.2  863.3  871.3
   888.6  907.8  910.9  937.2  952.2  965.1  977.4  977.8  978.0  982.9
   985.6  986.6  995.0 1019.0 1034.9 1059.8 1061.2 1067.3 1069.3 1097.5
  1125.6 1127.2 1135.1 1141.5 1142.3 1150.6 1162.0 1168.6 1181.6 1182.3
  1188.4 1201.5 1211.0 1215.9 1242.4 1263.1 1269.4 1269.7 1282.0 1284.5
  1294.3 1299.7 1311.8 1321.0 1327.5 1331.8 1339.8 1358.6 1361.3 1387.6
  1407.8 1416.4 1430.6 1440.0 1445.5 1461.6 1463.2 1475.7 1485.2 1495.9
  1497.8 1518.5 1521.8 1526.3 1537.3 1551.1 1571.1 1582.6 1599.1 1614.4
  1619.3 1620.7 1631.5 1643.1 1647.4 1650.2 1667.8 2975.5 3085.1 3125.2
  3155.9 3158.4 3161.6 3162.1 3165.4 3166.5 3167.2 3168.2 3175.1 3177.1
  3177.2 3179.4 3180.8 3183.0 3183.4 3185.0 3191.7 3201.7 3202.9 3203.4
 at 99999: n3=         180
 symm operator            1 :  F  nop=           0
 symm operator            2 :  F  nop=           0
 symm operator            3 :  F  nop=           0
 symm operator            4 :  F  nop=           0
 symm operator            5 :  F  nop=           0
 symm operator            6 :  F  nop=           0
 symm operator            7 :  F  nop=           0
 The point group of the molecule is  C1
 Symmetry rotation matrix:
   1.00000   0.00000   0.00000
   0.00000   1.00000   0.00000
   0.00000   0.00000   1.00000

 Projecting out zero-frequency components
 generating redundant internal coords
         300        3600          60
 search for int coords
   1 str   2   1   1.455
   2 str   3   2   1.413
   3 str   4   3   1.401
   4 str   5   4   1.394
   5 str   6   5   1.390
   6 str   7   6   1.394
   7 str   8   3   1.407
   8 str   8   7   1.391
   9 str   9   8   1.783
  10 str  10   9   1.782
  11 str  11  10   1.389
  12 str  12  11   1.403
  13 str  13  12   1.483
  14 str  14  13   1.402
  15 str  15  14   1.390
  16 str  16  15   1.401
  17 str  17  16   1.489
  18 str  18  17   1.401
  19 str  19  18   1.387
  20 str  20  19   1.400
  21 str  21  20   1.435
  22 str  22  21   1.358
  23 str  23  22   1.435
  24 str  24  23   1.402
  25 str  25  24   1.391
  26 str  26  25   1.391
  27 str  27  26   1.402
  28 str  28  27   1.433
  29 str  29  28   1.359
  30 str  30  17   1.417
  31 str  30  29   1.439
  32 str  31  20   1.426
  33 str  31  30   1.430
  34 str  32  23   1.427
  35 str  32  27   1.425
  36 str  32  31   1.428
  37 str  33  16   1.402
  38 str  34  13   1.403
  39 str  34  33   1.389
  40 str  35  12   1.399
  41 str  36  35   1.391
  42 str  37   2   1.411
  43 str  37  10   1.406
  44 str  37  36   1.400
  45 str  38   1   1.099
  46 str  39   1   1.090
  47 str  40   1   1.090
  48 str  41   4   1.082
  49 str  42   5   1.084
  50 str  43   6   1.083
  51 str  44   7   1.084
  52 str  45  11   1.084
  53 str  46  14   1.084
  54 str  47  15   1.084
  55 str  48  18   1.084
  56 str  49  19   1.085
  57 str  50  21   1.085
  58 str  51  22   1.085
  59 str  52  24   1.085
  60 str  53  25   1.084
  61 str  54  26   1.085
  62 str  55  28   1.085
  63 str  56  29   1.082
  64 str  57  33   1.084
  65 str  58  34   1.084
  66 str  59  35   1.084
  67 str  60  36   1.082
 nber stretches=          67
  68 ben   1   2   3
  69 prop tor   1   2   3   4
  70 prop tor   1   2   3   8
  71 ben   1   2  37
  72 prop tor   1   2  37  10
  73 prop tor   1   2  37  36
  74 ben   2   1  38
  75 ben   2   1  39
  76 ben   2   1  40
  77 ben   2   3   4
  78 prop tor   2   3   4   5
  79 prop tor   2   3   4  41
  80 ben   2   3   8
  81 prop tor   2   3   8   7
  82 prop tor   2   3   8   9
  83 ben   2  37  10
  84 ben   2  37  36
  85 ben   3   2  37
  86 prop tor   3   2  37  10
  87 prop tor   3   2  37  36
  88 ben   3   4   5
  89 prop tor   3   4   5   6
  90 prop tor   3   4   5  42
  91 ben   3   4  41
  92 ben   3   8   7
  93 ben   3   8   9
  94 prop tor   3   8   9  10
  95 ben   4   3   8
  96 prop tor   4   3   8   7
  97 prop tor   4   3   8   9
  98 ben   4   5   6
  99 prop tor   4   5   6   7
 100 prop tor   4   5   6  43
 101 ben   4   5  42
 102 ben   5   4  41
 103 ben   5   6   7
 104 prop tor   5   6   7   8
 105 prop tor   5   6   7  44
 106 ben   5   6  43
 107 ben   6   5  42
 108 ben   6   7   8
 109 prop tor   6   7   8   3
 110 prop tor   6   7   8   9
 111 ben   6   7  44
 112 ben   7   6  43
 113 ben   7   8   9
 114 prop tor   7   8   9  10
 115 prop tor   8   3   4   5
 116 prop tor   8   3   4  41
 117 ben   8   7  44
 118 ben   8   9  10
 119 prop tor   8   9  10  11
 120 prop tor   8   9  10  37
 121 ben   9  10  11
 122 prop tor   9  10  11  12
 123 prop tor   9  10  11  45
 124 ben   9  10  37
 125 prop tor   9  10  37   2
 126 prop tor   9  10  37  36
 127 ben  10  11  12
 128 prop tor  10  11  12  13
 129 prop tor  10  11  12  35
 130 ben  10  11  45
 131 ben  10  37  36
 132 ben  11  10  37
 133 prop tor  11  10  37   2
 134 prop tor  11  10  37  36
 135 ben  11  12  13
 136 prop tor  11  12  13  14
 137 prop tor  11  12  13  34
 138 ben  11  12  35
 139 prop tor  11  12  35  36
 140 prop tor  11  12  35  59
 141 ben  12  11  45
 142 ben  12  13  14
 143 prop tor  12  13  14  15
 144 prop tor  12  13  14  46
 145 ben  12  13  34
 146 prop tor  12  13  34  33
 147 prop tor  12  13  34  58
 148 ben  12  35  36
 149 prop tor  12  35  36  37
 150 prop tor  12  35  36  60
 151 ben  12  35  59
 152 ben  13  12  35
 153 prop tor  13  12  35  36
 154 prop tor  13  12  35  59
 155 ben  13  14  15
 156 prop tor  13  14  15  16
 157 prop tor  13  14  15  47
 158 ben  13  14  46
 159 ben  13  34  33
 160 ben  13  34  58
 161 ben  14  13  34
 162 prop tor  14  13  34  33
 163 prop tor  14  13  34  58
 164 ben  14  15  16
 165 prop tor  14  15  16  17
 166 prop tor  14  15  16  33
 167 ben  14  15  47
 168 ben  15  14  46
 169 ben  15  16  17
 170 prop tor  15  16  17  18
 171 prop tor  15  16  17  30
 172 ben  15  16  33
 173 prop tor  15  16  33  34
 174 prop tor  15  16  33  57
 175 ben  16  15  47
 176 ben  16  17  18
 177 prop tor  16  17  18  19
 178 prop tor  16  17  18  48
 179 ben  16  17  30
 180 prop tor  16  17  30  29
 181 prop tor  16  17  30  31
 182 ben  16  33  34
 183 prop tor  16  33  34  13
 184 prop tor  16  33  34  58
 185 ben  16  33  57
 186 ben  17  16  33
 187 prop tor  17  16  33  34
 188 prop tor  17  16  33  57
 189 ben  17  18  19
 190 prop tor  17  18  19  20
 191 prop tor  17  18  19  49
 192 ben  17  18  48
 193 ben  17  30  29
 194 ben  17  30  31
 195 prop tor  17  30  31  20
 196 prop tor  17  30  31  32
 197 ben  18  17  30
 198 prop tor  18  17  30  29
 199 prop tor  18  17  30  31
 200 ben  18  19  20
 201 prop tor  18  19  20  21
 202 prop tor  18  19  20  31
 203 ben  18  19  49
 204 ben  19  18  48
 205 ben  19  20  21
 206 prop tor  19  20  21  22
 207 prop tor  19  20  21  50
 208 ben  19  20  31
 209 prop tor  19  20  31  30
 210 prop tor  19  20  31  32
 211 ben  20  19  49
 212 ben  20  21  22
 213 prop tor  20  21  22  23
 214 prop tor  20  21  22  51
 215 ben  20  21  50
 216 ben  20  31  30
 217 ben  20  31  32
 218 prop tor  20  31  32  23
 219 prop tor  20  31  32  27
 220 ben  21  20  31
 221 prop tor  21  20  31  30
 222 prop tor  21  20  31  32
 223 ben  21  22  23
 224 prop tor  21  22  23  24
 225 prop tor  21  22  23  32
 226 ben  21  22  51
 227 ben  22  21  50
 228 ben  22  23  24
 229 prop tor  22  23  24  25
 230 prop tor  22  23  24  52
 231 ben  22  23  32
 232 prop tor  22  23  32  27
 233 prop tor  22  23  32  31
 234 ben  23  22  51
 235 ben  23  24  25
 236 prop tor  23  24  25  26
 237 prop tor  23  24  25  53
 238 ben  23  24  52
 239 ben  23  32  27
 240 ben  23  32  31
 241 ben  24  23  32
 242 prop tor  24  23  32  27
 243 prop tor  24  23  32  31
 244 ben  24  25  26
 245 prop tor  24  25  26  27
 246 prop tor  24  25  26  54
 247 ben  24  25  53
 248 ben  25  24  52
 249 ben  25  26  27
 250 prop tor  25  26  27  28
 251 prop tor  25  26  27  32
 252 ben  25  26  54
 253 ben  26  25  53
 254 ben  26  27  28
 255 prop tor  26  27  28  29
 256 prop tor  26  27  28  55
 257 ben  26  27  32
 258 prop tor  26  27  32  23
 259 prop tor  26  27  32  31
 260 ben  27  26  54
 261 ben  27  28  29
 262 prop tor  27  28  29  30
 263 prop tor  27  28  29  56
 264 ben  27  28  55
 265 ben  27  32  31
 266 ben  28  27  32
 267 prop tor  28  27  32  23
 268 prop tor  28  27  32  31
 269 ben  28  29  30
 270 prop tor  28  29  30  17
 271 prop tor  28  29  30  31
 272 ben  28  29  56
 273 ben  29  28  55
 274 ben  29  30  31
 275 prop tor  29  30  31  20
 276 prop tor  29  30  31  32
 277 prop tor  30  17  18  19
 278 prop tor  30  17  18  48
 279 ben  30  29  56
 280 ben  30  31  32
 281 prop tor  30  31  32  23
 282 prop tor  30  31  32  27
 283 prop tor  31  20  21  22
 284 prop tor  31  20  21  50
 285 prop tor  32  23  24  25
 286 prop tor  32  23  24  52
 287 prop tor  32  27  28  29
 288 prop tor  32  27  28  55
 289 prop tor  33  16  17  18
 290 prop tor  33  16  17  30
 291 ben  33  34  58
 292 prop tor  34  13  14  15
 293 prop tor  34  13  14  46
 294 ben  34  33  57
 295 prop tor  35  12  13  14
 296 prop tor  35  12  13  34
 297 ben  35  36  37
 298 prop tor  35  36  37   2
 299 prop tor  35  36  37  10
 300 ben  35  36  60
 301 ben  36  35  59
 302 prop tor  37   2   3   4
 303 prop tor  37   2   3   8
 304 prop tor  37  10  11  12
 305 prop tor  37  10  11  45
 306 ben  37  36  60
 307 prop tor  38   1   2   3
 308 prop tor  38   1   2  37
 309 ben  38   1  39
 310 ben  38   1  40
 311 prop tor  39   1   2   3
 312 prop tor  39   1   2  37
 313 ben  39   1  40
 314 prop tor  40   1   2   3
 315 prop tor  40   1   2  37
 316 prop tor  41   4   5   6
 317 prop tor  41   4   5  42
 318 prop tor  42   5   6   7
 319 prop tor  42   5   6  43
 320 prop tor  43   6   7   8
 321 prop tor  43   6   7  44
 322 prop tor  44   7   8   3
 323 prop tor  44   7   8   9
 324 prop tor  45  11  12  13
 325 prop tor  45  11  12  35
 326 prop tor  46  14  15  16
 327 prop tor  46  14  15  47
 328 prop tor  47  15  16  17
 329 prop tor  47  15  16  33
 330 prop tor  48  18  19  20
 331 prop tor  48  18  19  49
 332 prop tor  49  19  20  21
 333 prop tor  49  19  20  31
 334 prop tor  50  21  22  23
 335 prop tor  50  21  22  51
 336 prop tor  51  22  23  24
 337 prop tor  51  22  23  32
 338 prop tor  52  24  25  26
 339 prop tor  52  24  25  53
 340 prop tor  53  25  26  27
 341 prop tor  53  25  26  54
 342 prop tor  54  26  27  28
 343 prop tor  54  26  27  32
 344 prop tor  55  28  29  30
 345 prop tor  55  28  29  56
 346 prop tor  56  29  30  17
 347 prop tor  56  29  30  31
 348 prop tor  57  33  34  13
 349 prop tor  57  33  34  58
 350 prop tor  59  35  36  37
 351 prop tor  59  35  36  60
 352 prop tor  60  36  37   2
 353 prop tor  60  36  37  10
 nber bend=             112
 nber lin bend=           0
 nber prop tor=         174
 nber impr tor=           0
 nber tot redund int=         353
 Eigenvalues of G in red int coords
    Gval -0.00000000 -0.00000000 -0.00000000 -0.00000000 -0.00000000 -0.00000000 -0.00000000 -0.00000000
    Gval -0.00000000 -0.00000000 -0.00000000 -0.00000000 -0.00000000 -0.00000000 -0.00000000 -0.00000000
    Gval -0.00000000 -0.00000000 -0.00000000 -0.00000000 -0.00000000 -0.00000000 -0.00000000 -0.00000000
    Gval -0.00000000 -0.00000000 -0.00000000 -0.00000000 -0.00000000 -0.00000000 -0.00000000 -0.00000000
    Gval -0.00000000 -0.00000000 -0.00000000 -0.00000000 -0.00000000 -0.00000000 -0.00000000 -0.00000000
    Gval -0.00000000 -0.00000000 -0.00000000 -0.00000000 -0.00000000 -0.00000000 -0.00000000 -0.00000000
    Gval -0.00000000 -0.00000000 -0.00000000 -0.00000000 -0.00000000 -0.00000000 -0.00000000 -0.00000000
    Gval -0.00000000 -0.00000000 -0.00000000 -0.00000000 -0.00000000 -0.00000000 -0.00000000 -0.00000000
    Gval -0.00000000 -0.00000000 -0.00000000 -0.00000000 -0.00000000 -0.00000000 -0.00000000 -0.00000000
    Gval -0.00000000 -0.00000000 -0.00000000 -0.00000000 -0.00000000 -0.00000000 -0.00000000 -0.00000000
    Gval -0.00000000 -0.00000000 -0.00000000 -0.00000000 -0.00000000 -0.00000000 -0.00000000 -0.00000000
    Gval  0.00000000  0.00000000  0.00000000  0.00000000  0.00000000  0.00000000  0.00000000  0.00000000
    Gval  0.00000000  0.00000000  0.00000000  0.00000000  0.00000000  0.00000000  0.00000000  0.00000000
    Gval  0.00000000  0.00000000  0.00000000  0.00000000  0.00000000  0.00000000  0.00000000  0.00000000
    Gval  0.00000000  0.00000000  0.00000000  0.00000000  0.00000000  0.00000000  0.00000000  0.00000000
    Gval  0.00000000  0.00000000  0.00000000  0.00000000  0.00000000  0.00000000  0.00000000  0.00000000
    Gval  0.00000000  0.00000000  0.00000000  0.00000000  0.00000000  0.00000000  0.00000000  0.00000000
    Gval  0.00000000  0.00000000  0.00000000  0.00000000  0.00000000  0.00000000  0.00000000  0.00000000
    Gval  0.00000000  0.00000000  0.00000000  0.00000000  0.00000000  0.00000000  0.00000000  0.00000000
    Gval  0.00000000  0.00000000  0.00000000  0.00000000  0.00000000  0.00000000  0.00000000  0.00000000
    Gval  0.00000000  0.00000000  0.00000000  0.00000000  0.00000000  0.00000000  0.00000000  0.00000000
    Gval  0.00000000  0.00000000  0.00000000  0.00000000  0.00000000  0.00000000  0.00000000  0.00000000
    Gval  0.00000000  0.00000000  0.00000000  0.00000031  0.00000040  0.00000141  0.00000210  0.00000236
    Gval  0.00000377  0.00000704  0.00000935  0.00001067  0.00001294  0.00001559  0.00001643  0.00001949
    Gval  0.00002198  0.00002276  0.00002393  0.00002411  0.00002719  0.00002889  0.00003023  0.00003322
    Gval  0.00003685  0.00004316  0.00004587  0.00004896  0.00005105  0.00005476  0.00005631  0.00005863
    Gval  0.00006141  0.00006550  0.00006685  0.00006771  0.00006888  0.00007158  0.00007343  0.00007725
    Gval  0.00007808  0.00008245  0.00008317  0.00008931  0.00009014  0.00009665  0.00010442  0.00011104
    Gval  0.00011592  0.00011848  0.00012126  0.00012456  0.00012670  0.00013177  0.00013575  0.00013987
    Gval  0.00014304  0.00015082  0.00016198  0.00016779  0.00017169  0.00018263  0.00019206  0.00020187
    Gval  0.00021166  0.00022508  0.00023102  0.00025503  0.00025947  0.00027649  0.00028509  0.00029369
    Gval  0.00030300  0.00032217  0.00033378  0.00034175  0.00034621  0.00037070  0.00037589  0.00037992
    Gval  0.00038272  0.00039935  0.00041159  0.00041343  0.00041885  0.00043426  0.00044719  0.00045482
    Gval  0.00046529  0.00050737  0.00052129  0.00054969  0.00055609  0.00056887  0.00059312  0.00059388
    Gval  0.00059429  0.00059684  0.00059707  0.00059760  0.00059864  0.00059949  0.00060032  0.00060103
    Gval  0.00060835  0.00062057  0.00062758  0.00063286  0.00063384  0.00064150  0.00064462  0.00064720
    Gval  0.00064954  0.00065106  0.00065609  0.00065823  0.00066240  0.00068748  0.00071898  0.00077446
    Gval  0.00079464  0.00081572  0.00088995  0.00099998  0.00104343  0.00105491  0.00106490  0.00107541
    Gval  0.00108261  0.00108827  0.00109249  0.00109417  0.00110657  0.00112163  0.00112766  0.00113903
    Gval  0.00114290  0.00114974  0.00115903  0.00116092  0.00116205  0.00116212  0.00116352  0.00116789
    Gval  0.00116802  0.00117261  0.00117367  0.00124526  0.00129734  0.00150306  0.00170344  0.00174364
    Gval  0.00181977  0.00187024  0.00192704  0.00204473  0.00221718  0.00233598  0.00236328  0.00243257
    Gval  0.00243608  0.00249608  0.00250674  0.00255796  0.00261662  0.00270413  0.00306846  0.00310844
    Gval  0.00350441  0.00359718  0.00361358  0.00367344  0.00368258  0.00371537  0.00375175  0.00392613
    Gval  0.00402948
  3.067582028221405E-007  3.067582028221405E-007
  3.952278189524245E-007  3.067582028221405E-007
  1.406020805321399E-006  3.067582028221405E-007
  2.096715622092889E-006  3.067582028221405E-007
  2.362381540727292E-006  3.067582028221405E-007
  3.770552536455094E-006  3.067582028221405E-007
  7.037386734401162E-006  3.067582028221405E-007
  9.354437467630208E-006  3.067582028221405E-007
  1.067171278615448E-005  3.067582028221405E-007
  1.294004823318384E-005  3.067582028221405E-007
  1.559023546253842E-005  3.067582028221405E-007
  1.643290133369126E-005  3.067582028221405E-007
  1.948908212996763E-005  3.067582028221405E-007
  2.197853085138765E-005  3.067582028221405E-007
  2.276424206876789E-005  3.067582028221405E-007
  2.392554142942628E-005  3.067582028221405E-007
  2.411193441475518E-005  3.067582028221405E-007
  2.719184867776308E-005  3.067582028221405E-007
  2.888829350140748E-005  3.067582028221405E-007
  3.023008725358087E-005  3.067582028221405E-007
  3.321687785390793E-005  3.067582028221405E-007
  3.684860369991524E-005  3.067582028221405E-007
  4.316333344073553E-005  3.067582028221405E-007
  4.586526565781520E-005  3.067582028221405E-007
  4.895702388813925E-005  3.067582028221405E-007
  5.105082925088143E-005  3.067582028221405E-007
  5.476276468972890E-005  3.067582028221405E-007
  5.631151480294571E-005  3.067582028221405E-007
  5.863412923565911E-005  3.067582028221405E-007
  6.141431826649433E-005  3.067582028221405E-007
  6.550271477486137E-005  3.067582028221405E-007
  6.685115485690363E-005  3.067582028221405E-007
  6.771197948831571E-005  3.067582028221405E-007
  6.887757516626008E-005  3.067582028221405E-007
  7.158195719895266E-005  3.067582028221405E-007
  7.342670314604777E-005  3.067582028221405E-007
  7.725447233755255E-005  3.067582028221405E-007
  7.808341673925369E-005  3.067582028221405E-007
  8.244988147840601E-005  3.067582028221405E-007
  8.316926084305660E-005  3.067582028221405E-007
  8.930962290109695E-005  3.067582028221405E-007
  9.014468635793216E-005  3.067582028221405E-007
  9.665309607879969E-005  3.067582028221405E-007
  1.044244016110974E-004  3.067582028221405E-007
  1.110396974120750E-004  3.067582028221405E-007
  1.159231545319287E-004  3.067582028221405E-007
  1.184844270865344E-004  3.067582028221405E-007
  1.212616294936198E-004  3.067582028221405E-007
  1.245603308886242E-004  3.067582028221405E-007
  1.267021476428596E-004  3.067582028221405E-007
  1.317707042499759E-004  3.067582028221405E-007
  1.357518657289707E-004  3.067582028221405E-007
  1.398711052445530E-004  3.067582028221405E-007
  1.430415492138901E-004  3.067582028221405E-007
  1.508153445526073E-004  3.067582028221405E-007
  1.619754619714056E-004  3.067582028221405E-007
  1.677933503085584E-004  3.067582028221405E-007
  1.716856593356893E-004  3.067582028221405E-007
  1.826326338807963E-004  3.067582028221405E-007
  1.920613945148153E-004  3.067582028221405E-007
  2.018658381231385E-004  3.067582028221405E-007
  2.116627472270028E-004  3.067582028221405E-007
  2.250805142828517E-004  3.067582028221405E-007
  2.310174487938453E-004  3.067582028221405E-007
  2.550269439258673E-004  3.067582028221405E-007
  2.594734975948570E-004  3.067582028221405E-007
  2.764897293414413E-004  3.067582028221405E-007
  2.850873541961528E-004  3.067582028221405E-007
  2.936866128783300E-004  3.067582028221405E-007
  3.030036333678230E-004  3.067582028221405E-007
  3.221722906765317E-004  3.067582028221405E-007
  3.337842266605706E-004  3.067582028221405E-007
  3.417503155584635E-004  3.067582028221405E-007
  3.462055564691377E-004  3.067582028221405E-007
  3.707020541319310E-004  3.067582028221405E-007
  3.758881214645080E-004  3.067582028221405E-007
  3.799231879525841E-004  3.067582028221405E-007
  3.827235505994278E-004  3.067582028221405E-007
  3.993512426167616E-004  3.067582028221405E-007
  4.115938129006086E-004  3.067582028221405E-007
  4.134291206299079E-004  3.067582028221405E-007
  4.188526777843581E-004  3.067582028221405E-007
  4.342577502222843E-004  3.067582028221405E-007
  4.471861882570555E-004  3.067582028221405E-007
  4.548167086102935E-004  3.067582028221405E-007
  4.652889722542175E-004  3.067582028221405E-007
  5.073724231204463E-004  3.067582028221405E-007
  5.212938901340028E-004  3.067582028221405E-007
  5.496883037198675E-004  3.067582028221405E-007
  5.560934029214333E-004  3.067582028221405E-007
  5.688731148225978E-004  3.067582028221405E-007
  5.931152791414626E-004  3.067582028221405E-007
  5.938826300166070E-004  3.067582028221405E-007
  5.942932666114406E-004  3.067582028221405E-007
  5.968385988253238E-004  3.067582028221405E-007
  5.970698377189105E-004  3.067582028221405E-007
  5.976023130551401E-004  3.067582028221405E-007
  5.986412993834220E-004  3.067582028221405E-007
  5.994920508020972E-004  3.067582028221405E-007
  6.003191192609351E-004  3.067582028221405E-007
  6.010257728023657E-004  3.067582028221405E-007
  6.083495426490820E-004  3.067582028221405E-007
  6.205735585377160E-004  3.067582028221405E-007
  6.275806591781451E-004  3.067582028221405E-007
  6.328589601426419E-004  3.067582028221405E-007
  6.338446760036373E-004  3.067582028221405E-007
  6.415027912617116E-004  3.067582028221405E-007
  6.446234950881703E-004  3.067582028221405E-007
  6.472044541046230E-004  3.067582028221405E-007
  6.495393214659155E-004  3.067582028221405E-007
  6.510615356684661E-004  3.067582028221405E-007
  6.560891641436428E-004  3.067582028221405E-007
  6.582281256861073E-004  3.067582028221405E-007
  6.623990859443044E-004  3.067582028221405E-007
  6.874809026390931E-004  3.067582028221405E-007
  7.189777659832150E-004  3.067582028221405E-007
  7.744637925183385E-004  3.067582028221405E-007
  7.946355382968538E-004  3.067582028221405E-007
  8.157244684347720E-004  3.067582028221405E-007
  8.899535761337635E-004  3.067582028221405E-007
  9.999815822255603E-004  3.067582028221405E-007
  1.043426824316134E-003  3.067582028221405E-007
  1.054905308235589E-003  3.067582028221405E-007
  1.064899574668240E-003  3.067582028221405E-007
  1.075405671700032E-003  3.067582028221405E-007
  1.082608690911977E-003  3.067582028221405E-007
  1.088268216957293E-003  3.067582028221405E-007
  1.092485910317286E-003  3.067582028221405E-007
  1.094165069552060E-003  3.067582028221405E-007
  1.106574608905467E-003  3.067582028221405E-007
  1.121627319197444E-003  3.067582028221405E-007
  1.127658211243260E-003  3.067582028221405E-007
  1.139029953244016E-003  3.067582028221405E-007
  1.142900657720013E-003  3.067582028221405E-007
  1.149741179943477E-003  3.067582028221405E-007
  1.159032525403117E-003  3.067582028221405E-007
  1.160918853563980E-003  3.067582028221405E-007
  1.162052859083037E-003  3.067582028221405E-007
  1.162116651294075E-003  3.067582028221405E-007
  1.163517294561855E-003  3.067582028221405E-007
  1.167892326252129E-003  3.067582028221405E-007
  1.168016731253684E-003  3.067582028221405E-007
  1.172614196859085E-003  3.067582028221405E-007
  1.173674107972436E-003  3.067582028221405E-007
  1.245259092995622E-003  3.067582028221405E-007
  1.297338718861090E-003  3.067582028221405E-007
  1.503061875590905E-003  3.067582028221405E-007
  1.703437308526560E-003  3.067582028221405E-007
  1.743644982701421E-003  3.067582028221405E-007
  1.819770318880501E-003  3.067582028221405E-007
  1.870237243171972E-003  3.067582028221405E-007
  1.927044208523427E-003  3.067582028221405E-007
  2.044733783901747E-003  3.067582028221405E-007
  2.217178683645149E-003  3.067582028221405E-007
  2.335975540524016E-003  3.067582028221405E-007
  2.363278462845291E-003  3.067582028221405E-007
  2.432567080087532E-003  3.067582028221405E-007
  2.436083657506264E-003  3.067582028221405E-007
  2.496080022954866E-003  3.067582028221405E-007
  2.506738495225736E-003  3.067582028221405E-007
  2.557957768955771E-003  3.067582028221405E-007
  2.616624494044329E-003  3.067582028221405E-007
  2.704132113666267E-003  3.067582028221405E-007
  3.068462547917161E-003  3.067582028221405E-007
  3.108440915024685E-003  3.067582028221405E-007
  3.504409133414613E-003  3.067582028221405E-007
  3.597183120492045E-003  3.067582028221405E-007
  3.613577658710432E-003  3.067582028221405E-007
  3.673441324490848E-003  3.067582028221405E-007
  3.682578363929665E-003  3.067582028221405E-007
  3.715374802361578E-003  3.067582028221405E-007
  3.751746162676726E-003  3.067582028221405E-007
  3.926126169925400E-003  3.067582028221405E-007
  4.029477400839069E-003  3.067582028221405E-007
 cut=1d-8, nber non-redundant internal coords=         174
 Check on Eigenvals of non-red overlap matrix:
  0.00000031  0.00000040  0.00000141  0.00000210  0.00000236  0.00000377  0.00000704  0.00000935
  0.00001067  0.00001294  0.00001559  0.00001643  0.00001949  0.00002198  0.00002276  0.00002393
  0.00002411  0.00002719  0.00002889  0.00003023  0.00003322  0.00003685  0.00004316  0.00004587
  0.00004896  0.00005105  0.00005476  0.00005631  0.00005863  0.00006141  0.00006550  0.00006685
  0.00006771  0.00006888  0.00007158  0.00007343  0.00007725  0.00007808  0.00008245  0.00008317
  0.00008931  0.00009014  0.00009665  0.00010442  0.00011104  0.00011592  0.00011848  0.00012126
  0.00012456  0.00012670  0.00013177  0.00013575  0.00013987  0.00014304  0.00015082  0.00016198
  0.00016779  0.00017169  0.00018263  0.00019206  0.00020187  0.00021166  0.00022508  0.00023102
  0.00025503  0.00025947  0.00027649  0.00028509  0.00029369  0.00030300  0.00032217  0.00033378
  0.00034175  0.00034621  0.00037070  0.00037589  0.00037992  0.00038272  0.00039935  0.00041159
  0.00041343  0.00041885  0.00043426  0.00044719  0.00045482  0.00046529  0.00050737  0.00052129
  0.00054969  0.00055609  0.00056887  0.00059312  0.00059388  0.00059429  0.00059684  0.00059707
  0.00059760  0.00059864  0.00059949  0.00060032  0.00060103  0.00060835  0.00062057  0.00062758
  0.00063286  0.00063384  0.00064150  0.00064462  0.00064720  0.00064954  0.00065106  0.00065609
  0.00065823  0.00066240  0.00068748  0.00071898  0.00077446  0.00079464  0.00081572  0.00088995
  0.00099998  0.00104343  0.00105491  0.00106490  0.00107541  0.00108261  0.00108827  0.00109249
  0.00109417  0.00110657  0.00112163  0.00112766  0.00113903  0.00114290  0.00114974  0.00115903
  0.00116092  0.00116205  0.00116212  0.00116352  0.00116789  0.00116802  0.00117261  0.00117367
  0.00124526  0.00129734  0.00150306  0.00170344  0.00174364  0.00181977  0.00187024  0.00192704
  0.00204473  0.00221718  0.00233598  0.00236328  0.00243257  0.00243608  0.00249608  0.00250674
  0.00255796  0.00261662  0.00270413  0.00306846  0.00310844  0.00350441  0.00359718  0.00361358
  0.00367344  0.00368258  0.00371537  0.00375175  0.00392613  0.00402948
 Checking for correct frequencies
 recalc frequencies=
    -0.0   -0.0   -0.0    0.0    0.0    0.0   12.0   17.3   24.1   41.0
    58.5   67.6   78.4  103.5  117.4  124.3  144.3  147.2  173.1  196.0
   212.5  221.4  248.3  262.2  265.9  274.9  299.3  320.4  332.4  354.6
   369.2  385.1  414.4  418.0  421.3  432.2  443.2  445.8  448.6  462.0
   472.8  484.8  510.7  514.3  519.3  521.8  526.7  549.0  555.5  566.9
   578.5  598.7  615.9  626.0  630.1  652.2  659.6  691.0  694.0  705.0
   713.5  725.4  737.0  739.7  745.6  760.3  765.5  770.1  776.0  810.4
   820.1  829.3  833.1  838.6  847.9  854.9  856.5  860.2  863.3  871.3
   888.6  907.8  910.9  937.2  952.2  965.1  977.4  977.8  978.0  982.9
   985.6  986.6  995.0 1019.0 1034.9 1059.8 1061.2 1067.3 1069.3 1097.5
  1125.6 1127.2 1135.1 1141.5 1142.3 1150.6 1162.0 1168.6 1181.6 1182.3
  1188.4 1201.5 1211.0 1215.9 1242.4 1263.1 1269.4 1269.7 1282.0 1284.5
  1294.3 1299.7 1311.8 1321.0 1327.5 1331.8 1339.8 1358.6 1361.3 1387.6
  1407.8 1416.4 1430.6 1440.0 1445.5 1461.6 1463.2 1475.7 1485.2 1495.9
  1497.8 1518.5 1521.8 1526.3 1537.3 1551.1 1571.1 1582.6 1599.1 1614.4
  1619.3 1620.7 1631.5 1643.1 1647.4 1650.2 1667.8 2975.5 3085.1 3125.2
  3155.9 3158.4 3161.6 3162.1 3165.4 3166.5 3167.2 3168.2 3175.1 3177.1
  3177.2 3179.4 3180.8 3183.0 3183.4 3185.0 3191.7 3201.7 3202.9 3203.4
 recalc symmetries=
                                                                       
                                                                       
                                                                       
                                                                       
                                                                       
                                                                       
                                                                       
                                                                       
                                                                       
                                                                       
                                                                       
                                                                       
                                                                       
                                                                       
                                                                       
                                                                       
                                                                       
                                                                       
 recalc freqs check OK
 Zero-point lengths:
 10.0000 10.0000 10.0000 10.0000 10.0000 10.0000 71.5165 59.6313 50.5091 38.7407
 32.4064 30.1418 28.0037 24.3664 22.8795 22.2361 20.6349 20.4304 18.8418 17.7074
 17.0078 16.6624 15.7327 15.3092 15.2027 14.9527 14.3307 13.8507 13.5977 13.1644
 12.9028 12.6334 12.1787 12.1259 12.0781 11.9252 11.7762 11.7417 11.7054 11.5337
 11.4012 11.2598 10.9706 10.9313 10.8786 10.8524 10.8022 10.5806 10.5184 10.4119
 10.3076 10.1315  9.9896  9.9085  9.8760  9.7075  9.6526  9.4311  9.4103  9.3367
  9.2808  9.2048  9.1320  9.1152  9.0794  8.9910  8.9603  8.9332  8.8994  8.7084
  8.6567  8.6088  8.5893  8.5607  8.5140  8.4789  8.4711  8.4526  8.4376  8.3987
  8.3163  8.2281  8.2143  8.0982  8.0341  7.9802  7.9298  7.9280  7.9273  7.9077
  7.8966  7.8928  7.8594  7.7664  7.7061  7.6152  7.6103  7.5885  7.5814  7.4833
  7.3893  7.3841  7.3582  7.3377  7.3352  7.3086  7.2726  7.2521  7.2121  7.2100
  7.1915  7.1521  7.1240  7.1096  7.0335  6.9755  6.9581  6.9575  6.9240  6.9171
  6.8908  6.8765  6.8447  6.8210  6.8041  6.7933  6.7729  6.7259  6.7193  6.6552
  6.6074  6.5872  6.5544  6.5330  6.5207  6.4847  6.4810  6.4535  6.4328  6.4097
  6.4057  6.3620  6.3551  6.3456  6.3229  6.2947  6.2546  6.2317  6.1995  6.1701
  6.1608  6.1581  6.1376  6.1160  6.1079  6.1029  6.0705  4.5448  4.4634  4.4346
  4.4130  4.4113  4.4090  4.4087  4.4064  4.4056  4.4051  4.4044  4.3996  4.3982
  4.3982  4.3966  4.3957  4.3942  4.3939  4.3928  4.3882  4.3813  4.3805  4.3802
 highest evec of mol 1
 -0.0080 -0.0008  0.0012
 -0.0013  0.0010  0.0009
  0.0081 -0.0045  0.0040
 -0.0740  0.1691  0.1685
 -0.0805  0.0587 -0.0221
 -0.0247 -0.0073 -0.0518
  0.0105 -0.0185 -0.0177
  0.0010 -0.0011 -0.0002
 -0.0001  0.0001 -0.0000
  0.0002 -0.0002 -0.0001
  0.0015 -0.0026 -0.0027
  0.0010 -0.0011 -0.0009
  0.0000  0.0001  0.0001
 -0.0006 -0.0007 -0.0001
  0.0003 -0.0007 -0.0001
  0.0001 -0.0001  0.0000
  0.0000 -0.0000 -0.0000
 -0.0001 -0.0000  0.0000
  0.0001 -0.0001  0.0001
 -0.0000  0.0000 -0.0000
  0.0000 -0.0001  0.0001
  0.0001 -0.0000  0.0000
 -0.0000  0.0000 -0.0000
  0.0001 -0.0000  0.0000
  0.0001  0.0001 -0.0001
 -0.0000  0.0001 -0.0001
  0.0000 -0.0000  0.0000
 -0.0001  0.0002 -0.0002
 -0.0011  0.0001 -0.0001
 -0.0000 -0.0000  0.0000
  0.0000 -0.0000  0.0000
 -0.0000  0.0000 -0.0000
  0.0009  0.0011  0.0002
 -0.0014  0.0030  0.0003
  0.0187  0.0160  0.0191
 -0.0349  0.0568  0.0505
 -0.0024 -0.0014 -0.0023
 -0.0013 -0.0084  0.0016
  0.0009 -0.0010 -0.0006
  0.0301  0.0078  0.0002
  0.2481 -0.5599 -0.5584
  0.2483 -0.1875  0.0572
  0.0846  0.0138  0.1583
 -0.0285  0.0561  0.0585
 -0.0052  0.0081  0.0081
  0.0017  0.0022  0.0003
 -0.0010  0.0023  0.0003
  0.0002  0.0001 -0.0001
 -0.0002  0.0003 -0.0004
 -0.0001  0.0003 -0.0003
 -0.0003  0.0000 -0.0000
 -0.0003  0.0000 -0.0000
 -0.0004 -0.0003  0.0003
  0.0001 -0.0002  0.0003
  0.0003 -0.0006  0.0007
  0.0035 -0.0004  0.0005
 -0.0028 -0.0038 -0.0006
  0.0043 -0.0099 -0.0010
 -0.0540 -0.0532 -0.0623
  0.1160 -0.1879 -0.1684
 generating redundant internal coords
         300        3600          60
 Adding extra bonds for z output only
           6           7           6           6           6           6
           6           6          16           6           6           6
           6           6           6           6           6           6
           6           6           6           6           6           6
           6           6           6           6           6           6
           6           6           6           6           6           6
           6           1           1           1           1           1
           1           1           1           1           1           1
           1           1           1           1           1           1
           1           1           1           1           1           1
 search for int coords
   1 str   2   1   1.455
   2 str   3   2   1.413
   3 str   4   3   1.401
   4 str   5   4   1.394
   5 str   6   5   1.390
   6 str   7   6   1.394
   7 str   8   3   1.407
   8 str   8   7   1.391
   9 str   9   8   1.783
  10 str  10   9   1.782
  11 str  11  10   1.389
  12 str  12  11   1.403
  13 str  13  12   1.483
  14 str  14  13   1.402
  15 str  15  14   1.390
  16 str  16  15   1.401
  17 str  17  16   1.489
  18 str  18  17   1.401
  19 str  19  18   1.387
  20 str  20  19   1.400
  21 str  21  20   1.435
  22 str  22  21   1.358
  23 str  23  22   1.435
  24 str  24  23   1.402
  25 str  25  24   1.391
  26 str  26  25   1.391
  27 str  27  26   1.402
  28 str  28  27   1.433
  29 str  29  28   1.359
  30 str  30  17   1.417
  31 str  30  29   1.439
  32 str  31  20   1.426
  33 str  31  30   1.430
  34 str  32  23   1.427
  35 str  32  27   1.425
  36 str  32  31   1.428
  37 str  33  16   1.402
  38 str  34  13   1.403
  39 str  34  33   1.389
  40 str  35  12   1.399
  41 str  36  35   1.391
  42 str  37   2   1.411
  43 str  37  10   1.406
  44 str  37  36   1.400
  45 str  38   1   1.099
  46 str  39   1   1.090
  47 str  40   1   1.090
  48 str  41   4   1.082
  49 str  42   5   1.084
  50 str  43   6   1.083
  51 str  44   7   1.084
  52 str  45  11   1.084
  53 str  46  14   1.084
  54 str  47  15   1.084
  55 str  48  18   1.084
  56 str  49  19   1.085
  57 str  50  21   1.085
  58 str  51  22   1.085
  59 str  52  24   1.085
  60 str  53  25   1.084
  61 str  54  26   1.085
  62 str  55  28   1.085
  63 str  56  29   1.082
  64 str  57  33   1.084
  65 str  58  34   1.084
  66 str  59  35   1.084
  67 str  60  36   1.082
 nber stretches=          67
  68 ben   1   2   3
  69 prop tor   1   2   3   4
  70 prop tor   1   2   3   8
  71 ben   1   2  37
  72 prop tor   1   2  37  10
  73 prop tor   1   2  37  36
  74 ben   2   1  38
  75 ben   2   1  39
  76 ben   2   1  40
  77 ben   2   3   4
  78 prop tor   2   3   4   5
  79 prop tor   2   3   4  41
  80 ben   2   3   8
  81 prop tor   2   3   8   7
  82 prop tor   2   3   8   9
  83 ben   2  37  10
  84 ben   2  37  36
  85 ben   3   2  37
  86 prop tor   3   2  37  10
  87 prop tor   3   2  37  36
  88 ben   3   4   5
  89 prop tor   3   4   5   6
  90 prop tor   3   4   5  42
  91 ben   3   4  41
  92 ben   3   8   7
  93 ben   3   8   9
  94 prop tor   3   8   9  10
  95 ben   4   3   8
  96 prop tor   4   3   8   7
  97 prop tor   4   3   8   9
  98 ben   4   5   6
  99 prop tor   4   5   6   7
 100 prop tor   4   5   6  43
 101 ben   4   5  42
 102 ben   5   4  41
 103 ben   5   6   7
 104 prop tor   5   6   7   8
 105 prop tor   5   6   7  44
 106 ben   5   6  43
 107 ben   6   5  42
 108 ben   6   7   8
 109 prop tor   6   7   8   3
 110 prop tor   6   7   8   9
 111 ben   6   7  44
 112 ben   7   6  43
 113 ben   7   8   9
 114 prop tor   7   8   9  10
 115 prop tor   8   3   4   5
 116 prop tor   8   3   4  41
 117 ben   8   7  44
 118 ben   8   9  10
 119 prop tor   8   9  10  11
 120 prop tor   8   9  10  37
 121 ben   9  10  11
 122 prop tor   9  10  11  12
 123 prop tor   9  10  11  45
 124 ben   9  10  37
 125 prop tor   9  10  37   2
 126 prop tor   9  10  37  36
 127 ben  10  11  12
 128 prop tor  10  11  12  13
 129 prop tor  10  11  12  35
 130 ben  10  11  45
 131 ben  10  37  36
 132 ben  11  10  37
 133 prop tor  11  10  37   2
 134 prop tor  11  10  37  36
 135 ben  11  12  13
 136 prop tor  11  12  13  14
 137 prop tor  11  12  13  34
 138 ben  11  12  35
 139 prop tor  11  12  35  36
 140 prop tor  11  12  35  59
 141 ben  12  11  45
 142 ben  12  13  14
 143 prop tor  12  13  14  15
 144 prop tor  12  13  14  46
 145 ben  12  13  34
 146 prop tor  12  13  34  33
 147 prop tor  12  13  34  58
 148 ben  12  35  36
 149 prop tor  12  35  36  37
 150 prop tor  12  35  36  60
 151 ben  12  35  59
 152 ben  13  12  35
 153 prop tor  13  12  35  36
 154 prop tor  13  12  35  59
 155 ben  13  14  15
 156 prop tor  13  14  15  16
 157 prop tor  13  14  15  47
 158 ben  13  14  46
 159 ben  13  34  33
 160 ben  13  34  58
 161 ben  14  13  34
 162 prop tor  14  13  34  33
 163 prop tor  14  13  34  58
 164 ben  14  15  16
 165 prop tor  14  15  16  17
 166 prop tor  14  15  16  33
 167 ben  14  15  47
 168 ben  15  14  46
 169 ben  15  16  17
 170 prop tor  15  16  17  18
 171 prop tor  15  16  17  30
 172 ben  15  16  33
 173 prop tor  15  16  33  34
 174 prop tor  15  16  33  57
 175 ben  16  15  47
 176 ben  16  17  18
 177 prop tor  16  17  18  19
 178 prop tor  16  17  18  48
 179 ben  16  17  30
 180 prop tor  16  17  30  29
 181 prop tor  16  17  30  31
 182 ben  16  33  34
 183 prop tor  16  33  34  13
 184 prop tor  16  33  34  58
 185 ben  16  33  57
 186 ben  17  16  33
 187 prop tor  17  16  33  34
 188 prop tor  17  16  33  57
 189 ben  17  18  19
 190 prop tor  17  18  19  20
 191 prop tor  17  18  19  49
 192 ben  17  18  48
 193 ben  17  30  29
 194 ben  17  30  31
 195 prop tor  17  30  31  20
 196 prop tor  17  30  31  32
 197 ben  18  17  30
 198 prop tor  18  17  30  29
 199 prop tor  18  17  30  31
 200 ben  18  19  20
 201 prop tor  18  19  20  21
 202 prop tor  18  19  20  31
 203 ben  18  19  49
 204 ben  19  18  48
 205 ben  19  20  21
 206 prop tor  19  20  21  22
 207 prop tor  19  20  21  50
 208 ben  19  20  31
 209 prop tor  19  20  31  30
 210 prop tor  19  20  31  32
 211 ben  20  19  49
 212 ben  20  21  22
 213 prop tor  20  21  22  23
 214 prop tor  20  21  22  51
 215 ben  20  21  50
 216 ben  20  31  30
 217 ben  20  31  32
 218 prop tor  20  31  32  23
 219 prop tor  20  31  32  27
 220 ben  21  20  31
 221 prop tor  21  20  31  30
 222 prop tor  21  20  31  32
 223 ben  21  22  23
 224 prop tor  21  22  23  24
 225 prop tor  21  22  23  32
 226 ben  21  22  51
 227 ben  22  21  50
 228 ben  22  23  24
 229 prop tor  22  23  24  25
 230 prop tor  22  23  24  52
 231 ben  22  23  32
 232 prop tor  22  23  32  27
 233 prop tor  22  23  32  31
 234 ben  23  22  51
 235 ben  23  24  25
 236 prop tor  23  24  25  26
 237 prop tor  23  24  25  53
 238 ben  23  24  52
 239 ben  23  32  27
 240 ben  23  32  31
 241 ben  24  23  32
 242 prop tor  24  23  32  27
 243 prop tor  24  23  32  31
 244 ben  24  25  26
 245 prop tor  24  25  26  27
 246 prop tor  24  25  26  54
 247 ben  24  25  53
 248 ben  25  24  52
 249 ben  25  26  27
 250 prop tor  25  26  27  28
 251 prop tor  25  26  27  32
 252 ben  25  26  54
 253 ben  26  25  53
 254 ben  26  27  28
 255 prop tor  26  27  28  29
 256 prop tor  26  27  28  55
 257 ben  26  27  32
 258 prop tor  26  27  32  23
 259 prop tor  26  27  32  31
 260 ben  27  26  54
 261 ben  27  28  29
 262 prop tor  27  28  29  30
 263 prop tor  27  28  29  56
 264 ben  27  28  55
 265 ben  27  32  31
 266 ben  28  27  32
 267 prop tor  28  27  32  23
 268 prop tor  28  27  32  31
 269 ben  28  29  30
 270 prop tor  28  29  30  17
 271 prop tor  28  29  30  31
 272 ben  28  29  56
 273 ben  29  28  55
 274 ben  29  30  31
 275 prop tor  29  30  31  20
 276 prop tor  29  30  31  32
 277 prop tor  30  17  18  19
 278 prop tor  30  17  18  48
 279 ben  30  29  56
 280 ben  30  31  32
 281 prop tor  30  31  32  23
 282 prop tor  30  31  32  27
 283 prop tor  31  20  21  22
 284 prop tor  31  20  21  50
 285 prop tor  32  23  24  25
 286 prop tor  32  23  24  52
 287 prop tor  32  27  28  29
 288 prop tor  32  27  28  55
 289 prop tor  33  16  17  18
 290 prop tor  33  16  17  30
 291 ben  33  34  58
 292 prop tor  34  13  14  15
 293 prop tor  34  13  14  46
 294 ben  34  33  57
 295 prop tor  35  12  13  14
 296 prop tor  35  12  13  34
 297 ben  35  36  37
 298 prop tor  35  36  37   2
 299 prop tor  35  36  37  10
 300 ben  35  36  60
 301 ben  36  35  59
 302 prop tor  37   2   3   4
 303 prop tor  37   2   3   8
 304 prop tor  37  10  11  12
 305 prop tor  37  10  11  45
 306 ben  37  36  60
 307 prop tor  38   1   2   3
 308 prop tor  38   1   2  37
 309 ben  38   1  39
 310 ben  38   1  40
 311 prop tor  39   1   2   3
 312 prop tor  39   1   2  37
 313 ben  39   1  40
 314 prop tor  40   1   2   3
 315 prop tor  40   1   2  37
 316 prop tor  41   4   5   6
 317 prop tor  41   4   5  42
 318 prop tor  42   5   6   7
 319 prop tor  42   5   6  43
 320 prop tor  43   6   7   8
 321 prop tor  43   6   7  44
 322 prop tor  44   7   8   3
 323 prop tor  44   7   8   9
 324 prop tor  45  11  12  13
 325 prop tor  45  11  12  35
 326 prop tor  46  14  15  16
 327 prop tor  46  14  15  47
 328 prop tor  47  15  16  17
 329 prop tor  47  15  16  33
 330 prop tor  48  18  19  20
 331 prop tor  48  18  19  49
 332 prop tor  49  19  20  21
 333 prop tor  49  19  20  31
 334 prop tor  50  21  22  23
 335 prop tor  50  21  22  51
 336 prop tor  51  22  23  24
 337 prop tor  51  22  23  32
 338 prop tor  52  24  25  26
 339 prop tor  52  24  25  53
 340 prop tor  53  25  26  27
 341 prop tor  53  25  26  54
 342 prop tor  54  26  27  28
 343 prop tor  54  26  27  32
 344 prop tor  55  28  29  30
 345 prop tor  55  28  29  56
 346 prop tor  56  29  30  17
 347 prop tor  56  29  30  31
 348 prop tor  57  33  34  13
 349 prop tor  57  33  34  58
 350 prop tor  59  35  36  37
 351 prop tor  59  35  36  60
 352 prop tor  60  36  37   2
 353 prop tor  60  36  37  10
 nber bend=             112
 nber lin bend=           0
 nber prop tor=         174
 nber impr tor=           0
 nber tot redund int=         353
 Reading file: 
 ./phenothiazine-pyrene_3_C0S2.log                                              
                                          
  Entering Gaussian System, Link 0=g16                                          
  
 Gaussian format, type: g94, g98, g03= F F F
  #P Geom=AllCheck Guess=TCheck SCRF=Check Test GenChk RB3LYP TD(FC,Read    
 energy type= TD      
 Original G94 input coords:
  6 -6.987059  2.394531 -0.456826
  7 -6.601646  1.000941 -0.203342
  6 -7.596862  0.075511  0.050150
  6 -8.907642  0.491989  0.385960
  6 -9.914089 -0.425127  0.608316
  6 -9.666982 -1.802713  0.509741
  6 -8.395423 -2.240523  0.198666
  6 -7.355596 -1.326131 -0.025940
 16 -5.814627 -1.992638 -0.495408
  6 -4.741202 -0.622789 -0.298530
  6 -3.373831 -0.903001 -0.294226
  6 -2.414706  0.102932 -0.153803
  6 -0.977419 -0.190059 -0.149837
  6 -0.446151 -1.296324 -0.842021
  6  0.910026 -1.559683 -0.849601
  6  1.841866 -0.744907 -0.155043
  6  3.264281 -1.080104 -0.126197
  6  3.623463 -2.443238 -0.026423
  6  4.922598 -2.860925  0.139299
  6  5.985663 -1.921817  0.205779
  6  7.329621 -2.316025  0.416118
  6  8.350010 -1.397869  0.466092
  6  8.097836 -0.009410  0.290554
  6  9.129986  0.956107  0.318611
  6  8.848045  2.304268  0.127417
  6  7.548472  2.737079 -0.100065
  6  6.479137  1.811238 -0.135653
  6  5.138686  2.197193 -0.395425
  6  4.112865  1.282401 -0.402075
  6  4.323576 -0.099041 -0.138732
  6  5.679956 -0.531734  0.050773
  6  6.747880  0.421641  0.071568
  6  1.293662  0.358939  0.544958
  6 -0.061784  0.628586  0.542995
  6 -2.914426  1.423761  0.009557
  6 -4.262704  1.709392  0.010921
  6 -5.226296  0.697247 -0.162221
  1 -7.059286  2.973941  0.468685
  1 -6.246969  2.851079 -1.108390
  1 -7.945190  2.415065 -0.970408
  1 -9.123867  1.542800  0.506063
  1-10.901530 -0.070591  0.876541
  1-10.459753 -2.517410  0.688129
  1 -8.182603 -3.300905  0.130592
  1 -3.057485 -1.936358 -0.362925
  1 -1.099578 -1.928352 -1.435057
  1  1.279404 -2.390400 -1.438420
  1  2.833466 -3.186742 -0.012137
  1  5.145630 -3.916664  0.252613
  1  7.542568 -3.373661  0.539470
  1  9.372068 -1.722991  0.632653
  1 10.150173  0.628331  0.488372
  1  9.657037  3.027967  0.151954
  1  7.338464  3.789814 -0.257459
  1  4.930631  3.241968 -0.605320
  1  3.115741  1.625758 -0.643404
  1  1.950759  0.983665  1.135416
  1 -0.423097  1.460195  1.139217
  1 -2.213990  2.239962  0.124952
  1 -4.571774  2.733831  0.162762
 nber atoms=          60
  Total Energy, E(TD-HF/TD-DFT) =  -1800.82182415                               
  
          32          49 "  -1800.82182415"
After scan for Atom:   Atom  AN      X      Y      Z        X      Y      Z        X      Y      Z   
After scan for Atom:   Atom  AN      X      Y      Z        X      Y      Z        X      Y      Z   
After scan for Atom:   Atom  AN      X      Y      Z        X      Y      Z        X      Y      Z   
After scan for Atom:   Atom  AN      X      Y      Z        X      Y      Z        X      Y      Z   
After scan for Atom:   Atom  AN      X      Y      Z        X      Y      Z        X      Y      Z   
After scan for Atom:   Atom  AN      X      Y      Z        X      Y      Z        X      Y      Z   
After scan for Atom:   Atom  AN      X      Y      Z        X      Y      Z        X      Y      Z   
After scan for Atom:   Atom  AN      X      Y      Z        X      Y      Z        X      Y      Z   
After scan for Atom:   Atom  AN      X      Y      Z        X      Y      Z        X      Y      Z   
After scan for Atom:   Atom  AN      X      Y      Z        X      Y      Z        X      Y      Z   
After scan for Atom:   Atom  AN      X      Y      Z        X      Y      Z        X      Y      Z   
After scan for Atom:   Atom  AN      X      Y      Z        X      Y      Z        X      Y      Z   
After scan for Atom:   Atom  AN      X      Y      Z        X      Y      Z        X      Y      Z   
After scan for Atom:   Atom  AN      X      Y      Z        X      Y      Z        X      Y      Z   
After scan for Atom:   Atom  AN      X      Y      Z        X      Y      Z        X      Y      Z   
After scan for Atom:   Atom  AN      X      Y      Z        X      Y      Z        X      Y      Z   
After scan for Atom:   Atom  AN      X      Y      Z        X      Y      Z        X      Y      Z   
After scan for Atom:   Atom  AN      X      Y      Z        X      Y      Z        X      Y      Z   
After scan for Atom:   Atom  AN      X      Y      Z        X      Y      Z        X      Y      Z   
After scan for Atom:   Atom  AN      X      Y      Z        X      Y      Z        X      Y      Z   
After scan for Atom:   Atom  AN      X      Y      Z        X      Y      Z        X      Y      Z   
After scan for Atom:   Atom  AN      X      Y      Z        X      Y      Z        X      Y      Z   
After scan for Atom:   Atom  AN      X      Y      Z        X      Y      Z        X      Y      Z   
After scan for Atom:   Atom  AN      X      Y      Z        X      Y      Z        X      Y      Z   
After scan for Atom:   Atom  AN      X      Y      Z        X      Y      Z        X      Y      Z   
After scan for Atom:   Atom  AN      X      Y      Z        X      Y      Z        X      Y      Z   
After scan for Atom:   Atom  AN      X      Y      Z        X      Y      Z        X      Y      Z   
After scan for Atom:   Atom  AN      X      Y      Z        X      Y      Z        X      Y      Z   
After scan for Atom:   Atom  AN      X      Y      Z        X      Y      Z        X      Y      Z   
After scan for Atom:   Atom  AN      X      Y      Z        X      Y      Z        X      Y      Z   
After scan for Atom:   Atom  AN      X      Y      Z        X      Y      Z        X      Y      Z   
After scan for Atom:   Atom  AN      X      Y      Z        X      Y      Z        X      Y      Z   
After scan for Atom:   Atom  AN      X      Y      Z        X      Y      Z        X      Y      Z   
After scan for Atom:   Atom  AN      X      Y      Z        X      Y      Z        X      Y      Z   
After scan for Atom:   Atom  AN      X      Y      Z        X      Y      Z        X      Y      Z   
After scan for Atom:   Atom  AN      X      Y      Z        X      Y      Z        X      Y      Z   
After scan for Atom:   Atom  AN      X      Y      Z        X      Y      Z        X      Y      Z   
After scan for Atom:   Atom  AN      X      Y      Z        X      Y      Z        X      Y      Z   
After scan for Atom:   Atom  AN      X      Y      Z        X      Y      Z        X      Y      Z   
After scan for Atom:   Atom  AN      X      Y      Z        X      Y      Z        X      Y      Z   
After scan for Atom:   Atom  AN      X      Y      Z        X      Y      Z        X      Y      Z   
After scan for Atom:   Atom  AN      X      Y      Z        X      Y      Z        X      Y      Z   
After scan for Atom:   Atom  AN      X      Y      Z        X      Y      Z        X      Y      Z   
After scan for Atom:   Atom  AN      X      Y      Z        X      Y      Z        X      Y      Z   
After scan for Atom:   Atom  AN      X      Y      Z        X      Y      Z        X      Y      Z   
After scan for Atom:   Atom  AN      X      Y      Z        X      Y      Z        X      Y      Z   
After scan for Atom:   Atom  AN      X      Y      Z        X      Y      Z        X      Y      Z   
After scan for Atom:   Atom  AN      X      Y      Z        X      Y      Z        X      Y      Z   
After scan for Atom:   Atom  AN      X      Y      Z        X      Y      Z        X      Y      Z   
After scan for Atom:   Atom  AN      X      Y      Z        X      Y      Z        X      Y      Z   
After scan for Atom:   Atom  AN      X      Y      Z        X      Y      Z        X      Y      Z   
After scan for Atom:   Atom  AN      X      Y      Z        X      Y      Z        X      Y      Z   
After scan for Atom:   Atom  AN      X      Y      Z        X      Y      Z        X      Y      Z   
After scan for Atom:   Atom  AN      X      Y      Z        X      Y      Z        X      Y      Z   
After scan for Atom:   Atom  AN      X      Y      Z        X      Y      Z        X      Y      Z   
After scan for Atom:   Atom  AN      X      Y      Z        X      Y      Z        X      Y      Z   
After scan for Atom:   Atom  AN      X      Y      Z        X      Y      Z        X      Y      Z   
After scan for Atom:   Atom  AN      X      Y      Z        X      Y      Z        X      Y      Z   
 g94    frequencies=
     0.0    0.0    0.0    0.0    0.0    0.0   12.7   19.9   25.5   34.7
    65.5   71.2   73.7  101.3  115.4  123.3  139.0  155.1  181.1  185.0
   204.2  213.0  220.4  239.3  260.6  269.2  285.5  308.1  342.2  356.2
   380.9  394.1  407.7  413.0  427.4  431.5  438.9  447.0  454.9  459.1
   474.2  482.2  490.9  500.7  501.2  518.2  525.9  533.4  548.5  557.2
   574.8  581.7  609.5  610.4  615.1  649.9  651.3  676.3  686.0  697.9
   702.2  715.0  719.4  726.4  735.1  746.8  748.3  765.5  769.4  773.0
   801.3  820.7  823.5  826.4  827.6  831.4  842.2  846.0  851.0  854.7
   856.8  890.0  896.0  926.6  938.5  942.7  954.1  961.5  966.8  975.9
   981.2  987.5 1000.0 1006.1 1015.1 1044.1 1048.4 1060.9 1072.9 1092.3
  1107.5 1128.9 1132.0 1132.7 1138.9 1150.6 1157.3 1166.9 1178.4 1193.4
  1194.8 1203.2 1207.1 1215.2 1233.3 1245.3 1261.7 1267.3 1273.6 1282.4
  1296.9 1299.7 1309.8 1323.9 1330.3 1337.9 1340.5 1348.2 1361.6 1364.8
  1377.7 1395.0 1413.0 1435.4 1444.4 1455.9 1458.7 1466.8 1474.7 1477.6
  1495.4 1504.4 1513.4 1516.6 1520.1 1529.7 1535.7 1544.1 1554.5 1579.4
  1582.8 1588.4 1598.6 1614.2 1624.1 1639.0 1645.8 3035.9 3128.8 3141.4
  3142.7 3147.5 3147.6 3151.2 3154.9 3158.2 3162.1 3162.7 3168.5 3171.1
  3182.0 3186.2 3188.9 3190.6 3191.9 3200.1 3202.1 3208.6 3217.2 3227.9
 g94    symmetries=
                                                 A      A      A      A
       A      A      A      A      A      A      A      A      A      A
       A      A      A      A      A      A      A      A      A      A
       A      A      A      A      A      A      A      A      A      A
       A      A      A      A      A      A      A      A      A      A
       A      A      A      A      A      A      A      A      A      A
       A      A      A      A      A      A      A      A      A      A
       A      A      A      A      A      A      A      A      A      A
       A      A      A      A      A      A      A      A      A      A
       A      A      A      A      A      A      A      A      A      A
       A      A      A      A      A      A      A      A      A      A
       A      A      A      A      A      A      A      A      A      A
       A      A      A      A      A      A      A      A      A      A
       A      A      A      A      A      A      A      A      A      A
       A      A      A      A      A      A      A      A      A      A
       A      A      A      A      A      A      A      A      A      A
       A      A      A      A      A      A      A      A      A      A
       A      A      A      A      A      A      A      A      A      A
 atomic masses:
 12.0000 14.0031 12.0000 12.0000 12.0000 12.0000 12.0000 12.0000 31.9721 12.0000
 12.0000 12.0000 12.0000 12.0000 12.0000 12.0000 12.0000 12.0000 12.0000 12.0000
 12.0000 12.0000 12.0000 12.0000 12.0000 12.0000 12.0000 12.0000 12.0000 12.0000
 12.0000 12.0000 12.0000 12.0000 12.0000 12.0000 12.0000  1.0078  1.0078  1.0078
  1.0078  1.0078  1.0078  1.0078  1.0078  1.0078  1.0078  1.0078  1.0078  1.0078
  1.0078  1.0078  1.0078  1.0078  1.0078  1.0078  1.0078  1.0078  1.0078  1.0078
 looking for force constants in 
 ./phenothiazine-pyrene_3_C0S2.fchk                                             
  
 Cartesian Force Constants                  R   N=       16290                  
  
 n3=         180       16290
 g94-fc frequencies=
    -3.8   -1.0   -0.2   -0.0   -0.0    0.0   12.7   19.9   25.5   34.7
    65.5   71.2   73.7  101.3  115.4  123.3  139.0  155.1  181.1  185.0
   204.2  213.0  220.4  239.3  260.6  269.2  285.5  308.1  342.2  356.2
   380.9  394.1  407.7  413.0  427.4  431.5  438.9  447.0  454.9  459.1
   474.2  482.3  490.9  500.7  501.2  518.2  525.9  533.4  548.5  557.2
   574.9  581.7  609.5  610.5  615.1  649.9  651.3  676.3  686.1  697.9
   702.2  715.0  719.4  726.4  735.1  746.8  748.4  765.5  769.5  773.1
   801.3  820.7  823.5  826.5  827.6  831.4  842.3  846.0  851.0  854.7
   856.8  890.0  896.0  926.6  938.5  942.7  954.2  961.5  966.8  975.9
   981.2  987.5 1000.1 1006.1 1015.1 1044.2 1048.4 1061.0 1073.0 1092.4
  1107.5 1129.0 1132.0 1132.8 1139.0 1150.6 1157.3 1167.0 1178.4 1193.4
  1194.9 1203.2 1207.1 1215.3 1233.3 1245.3 1261.7 1267.3 1273.6 1282.5
  1296.9 1299.8 1309.8 1324.0 1330.3 1337.9 1340.5 1348.2 1361.7 1364.9
  1377.7 1395.1 1413.0 1435.5 1444.5 1455.9 1458.8 1466.8 1474.7 1477.6
  1495.4 1504.5 1513.4 1516.6 1520.1 1529.7 1535.7 1544.2 1554.5 1579.5
  1582.8 1588.4 1598.7 1614.3 1624.2 1639.0 1645.8 3036.0 3128.8 3141.4
  3142.7 3147.6 3147.7 3151.3 3154.9 3158.3 3162.1 3162.8 3168.5 3171.1
  3182.1 3186.3 3189.0 3190.6 3192.0 3200.2 3202.1 3208.7 3217.2 3228.0
 at 99999: n3=         180
 symm operator            1 :  F  nop=           0
 symm operator            2 :  F  nop=           0
 symm operator            3 :  F  nop=           0
 symm operator            4 :  F  nop=           0
 symm operator            5 :  F  nop=           0
 symm operator            6 :  F  nop=           0
 symm operator            7 :  F  nop=           0
 The point group of the molecule is  C1
 Symmetry rotation matrix:
   1.00000   0.00000   0.00000
   0.00000   1.00000   0.00000
   0.00000   0.00000   1.00000

 Projecting out zero-frequency components
 generating redundant internal coords
         300        3600          60
 search for int coords
   1 str   2   1   1.468
   2 str   3   2   1.382
   3 str   4   3   1.416
   4 str   5   4   1.380
   5 str   6   5   1.403
   6 str   7   6   1.380
   7 str   8   3   1.424
   8 str   8   7   1.403
   9 str   9   8   1.743
  10 str  10   9   1.751
  11 str  11  10   1.396
  12 str  12  11   1.397
  13 str  13  12   1.467
  14 str  14  13   1.409
  15 str  15  14   1.382
  16 str  16  15   1.419
  17 str  17  16   1.462
  18 str  18  17   1.413
  19 str  19  18   1.375
  20 str  20  19   1.420
  21 str  21  20   1.416
  22 str  22  21   1.374
  23 str  23  22   1.422
  24 str  24  23   1.414
  25 str  25  24   1.391
  26 str  26  25   1.389
  27 str  27  26   1.415
  28 str  28  27   1.419
  29 str  29  28   1.374
  30 str  30  17   1.444
  31 str  30  29   1.422
  32 str  31  20   1.432
  33 str  31  30   1.436
  34 str  32  23   1.434
  35 str  32  27   1.430
  36 str  32  31   1.432
  37 str  33  16   1.417
  38 str  34  13   1.410
  39 str  34  33   1.382
  40 str  35  12   1.422
  41 str  36  35   1.378
  42 str  37   2   1.409
  43 str  37  10   1.413
  44 str  37  36   1.408
  45 str  38   1   1.094
  46 str  39   1   1.087
  47 str  40   1   1.087
  48 str  41   4   1.080
  49 str  42   5   1.083
  50 str  43   6   1.082
  51 str  44   7   1.084
  52 str  45  11   1.083
  53 str  46  14   1.085
  54 str  47  15   1.083
  55 str  48  18   1.085
  56 str  49  19   1.085
  57 str  50  21   1.086
  58 str  51  22   1.085
  59 str  52  24   1.085
  60 str  53  25   1.086
  61 str  54  26   1.085
  62 str  55  28   1.086
  63 str  56  29   1.082
  64 str  57  33   1.082
  65 str  58  34   1.085
  66 str  59  35   1.082
  67 str  60  36   1.081
 nber stretches=          67
  68 ben   1   2   3
  69 prop tor   1   2   3   4
  70 prop tor   1   2   3   8
  71 ben   1   2  37
  72 prop tor   1   2  37  10
  73 prop tor   1   2  37  36
  74 ben   2   1  38
  75 ben   2   1  39
  76 ben   2   1  40
  77 ben   2   3   4
  78 prop tor   2   3   4   5
  79 prop tor   2   3   4  41
  80 ben   2   3   8
  81 prop tor   2   3   8   7
  82 prop tor   2   3   8   9
  83 ben   2  37  10
  84 ben   2  37  36
  85 ben   3   2  37
  86 prop tor   3   2  37  10
  87 prop tor   3   2  37  36
  88 ben   3   4   5
  89 prop tor   3   4   5   6
  90 prop tor   3   4   5  42
  91 ben   3   4  41
  92 ben   3   8   7
  93 ben   3   8   9
  94 prop tor   3   8   9  10
  95 ben   4   3   8
  96 prop tor   4   3   8   7
  97 prop tor   4   3   8   9
  98 ben   4   5   6
  99 prop tor   4   5   6   7
 100 prop tor   4   5   6  43
 101 ben   4   5  42
 102 ben   5   4  41
 103 ben   5   6   7
 104 prop tor   5   6   7   8
 105 prop tor   5   6   7  44
 106 ben   5   6  43
 107 ben   6   5  42
 108 ben   6   7   8
 109 prop tor   6   7   8   3
 110 prop tor   6   7   8   9
 111 ben   6   7  44
 112 ben   7   6  43
 113 ben   7   8   9
 114 prop tor   7   8   9  10
 115 prop tor   8   3   4   5
 116 prop tor   8   3   4  41
 117 ben   8   7  44
 118 ben   8   9  10
 119 prop tor   8   9  10  11
 120 prop tor   8   9  10  37
 121 ben   9  10  11
 122 prop tor   9  10  11  12
 123 prop tor   9  10  11  45
 124 ben   9  10  37
 125 prop tor   9  10  37   2
 126 prop tor   9  10  37  36
 127 ben  10  11  12
 128 prop tor  10  11  12  13
 129 prop tor  10  11  12  35
 130 ben  10  11  45
 131 ben  10  37  36
 132 ben  11  10  37
 133 prop tor  11  10  37   2
 134 prop tor  11  10  37  36
 135 ben  11  12  13
 136 prop tor  11  12  13  14
 137 prop tor  11  12  13  34
 138 ben  11  12  35
 139 prop tor  11  12  35  36
 140 prop tor  11  12  35  59
 141 ben  12  11  45
 142 ben  12  13  14
 143 prop tor  12  13  14  15
 144 prop tor  12  13  14  46
 145 ben  12  13  34
 146 prop tor  12  13  34  33
 147 prop tor  12  13  34  58
 148 ben  12  35  36
 149 prop tor  12  35  36  37
 150 prop tor  12  35  36  60
 151 ben  12  35  59
 152 ben  13  12  35
 153 prop tor  13  12  35  36
 154 prop tor  13  12  35  59
 155 ben  13  14  15
 156 prop tor  13  14  15  16
 157 prop tor  13  14  15  47
 158 ben  13  14  46
 159 ben  13  34  33
 160 ben  13  34  58
 161 ben  14  13  34
 162 prop tor  14  13  34  33
 163 prop tor  14  13  34  58
 164 ben  14  15  16
 165 prop tor  14  15  16  17
 166 prop tor  14  15  16  33
 167 ben  14  15  47
 168 ben  15  14  46
 169 ben  15  16  17
 170 prop tor  15  16  17  18
 171 prop tor  15  16  17  30
 172 ben  15  16  33
 173 prop tor  15  16  33  34
 174 prop tor  15  16  33  57
 175 ben  16  15  47
 176 ben  16  17  18
 177 prop tor  16  17  18  19
 178 prop tor  16  17  18  48
 179 ben  16  17  30
 180 prop tor  16  17  30  29
 181 prop tor  16  17  30  31
 182 ben  16  33  34
 183 prop tor  16  33  34  13
 184 prop tor  16  33  34  58
 185 ben  16  33  57
 186 ben  17  16  33
 187 prop tor  17  16  33  34
 188 prop tor  17  16  33  57
 189 ben  17  18  19
 190 prop tor  17  18  19  20
 191 prop tor  17  18  19  49
 192 ben  17  18  48
 193 ben  17  30  29
 194 ben  17  30  31
 195 prop tor  17  30  31  20
 196 prop tor  17  30  31  32
 197 ben  18  17  30
 198 prop tor  18  17  30  29
 199 prop tor  18  17  30  31
 200 ben  18  19  20
 201 prop tor  18  19  20  21
 202 prop tor  18  19  20  31
 203 ben  18  19  49
 204 ben  19  18  48
 205 ben  19  20  21
 206 prop tor  19  20  21  22
 207 prop tor  19  20  21  50
 208 ben  19  20  31
 209 prop tor  19  20  31  30
 210 prop tor  19  20  31  32
 211 ben  20  19  49
 212 ben  20  21  22
 213 prop tor  20  21  22  23
 214 prop tor  20  21  22  51
 215 ben  20  21  50
 216 ben  20  31  30
 217 ben  20  31  32
 218 prop tor  20  31  32  23
 219 prop tor  20  31  32  27
 220 ben  21  20  31
 221 prop tor  21  20  31  30
 222 prop tor  21  20  31  32
 223 ben  21  22  23
 224 prop tor  21  22  23  24
 225 prop tor  21  22  23  32
 226 ben  21  22  51
 227 ben  22  21  50
 228 ben  22  23  24
 229 prop tor  22  23  24  25
 230 prop tor  22  23  24  52
 231 ben  22  23  32
 232 prop tor  22  23  32  27
 233 prop tor  22  23  32  31
 234 ben  23  22  51
 235 ben  23  24  25
 236 prop tor  23  24  25  26
 237 prop tor  23  24  25  53
 238 ben  23  24  52
 239 ben  23  32  27
 240 ben  23  32  31
 241 ben  24  23  32
 242 prop tor  24  23  32  27
 243 prop tor  24  23  32  31
 244 ben  24  25  26
 245 prop tor  24  25  26  27
 246 prop tor  24  25  26  54
 247 ben  24  25  53
 248 ben  25  24  52
 249 ben  25  26  27
 250 prop tor  25  26  27  28
 251 prop tor  25  26  27  32
 252 ben  25  26  54
 253 ben  26  25  53
 254 ben  26  27  28
 255 prop tor  26  27  28  29
 256 prop tor  26  27  28  55
 257 ben  26  27  32
 258 prop tor  26  27  32  23
 259 prop tor  26  27  32  31
 260 ben  27  26  54
 261 ben  27  28  29
 262 prop tor  27  28  29  30
 263 prop tor  27  28  29  56
 264 ben  27  28  55
 265 ben  27  32  31
 266 ben  28  27  32
 267 prop tor  28  27  32  23
 268 prop tor  28  27  32  31
 269 ben  28  29  30
 270 prop tor  28  29  30  17
 271 prop tor  28  29  30  31
 272 ben  28  29  56
 273 ben  29  28  55
 274 ben  29  30  31
 275 prop tor  29  30  31  20
 276 prop tor  29  30  31  32
 277 prop tor  30  17  18  19
 278 prop tor  30  17  18  48
 279 ben  30  29  56
 280 ben  30  31  32
 281 prop tor  30  31  32  23
 282 prop tor  30  31  32  27
 283 prop tor  31  20  21  22
 284 prop tor  31  20  21  50
 285 prop tor  32  23  24  25
 286 prop tor  32  23  24  52
 287 prop tor  32  27  28  29
 288 prop tor  32  27  28  55
 289 prop tor  33  16  17  18
 290 prop tor  33  16  17  30
 291 ben  33  34  58
 292 prop tor  34  13  14  15
 293 prop tor  34  13  14  46
 294 ben  34  33  57
 295 prop tor  35  12  13  14
 296 prop tor  35  12  13  34
 297 ben  35  36  37
 298 prop tor  35  36  37   2
 299 prop tor  35  36  37  10
 300 ben  35  36  60
 301 ben  36  35  59
 302 prop tor  37   2   3   4
 303 prop tor  37   2   3   8
 304 prop tor  37  10  11  12
 305 prop tor  37  10  11  45
 306 ben  37  36  60
 307 prop tor  38   1   2   3
 308 prop tor  38   1   2  37
 309 ben  38   1  39
 310 ben  38   1  40
 311 prop tor  39   1   2   3
 312 prop tor  39   1   2  37
 313 ben  39   1  40
 314 prop tor  40   1   2   3
 315 prop tor  40   1   2  37
 316 prop tor  41   4   5   6
 317 prop tor  41   4   5  42
 318 prop tor  42   5   6   7
 319 prop tor  42   5   6  43
 320 prop tor  43   6   7   8
 321 prop tor  43   6   7  44
 322 prop tor  44   7   8   3
 323 prop tor  44   7   8   9
 324 prop tor  45  11  12  13
 325 prop tor  45  11  12  35
 326 prop tor  46  14  15  16
 327 prop tor  46  14  15  47
 328 prop tor  47  15  16  17
 329 prop tor  47  15  16  33
 330 prop tor  48  18  19  20
 331 prop tor  48  18  19  49
 332 prop tor  49  19  20  21
 333 prop tor  49  19  20  31
 334 prop tor  50  21  22  23
 335 prop tor  50  21  22  51
 336 prop tor  51  22  23  24
 337 prop tor  51  22  23  32
 338 prop tor  52  24  25  26
 339 prop tor  52  24  25  53
 340 prop tor  53  25  26  27
 341 prop tor  53  25  26  54
 342 prop tor  54  26  27  28
 343 prop tor  54  26  27  32
 344 prop tor  55  28  29  30
 345 prop tor  55  28  29  56
 346 prop tor  56  29  30  17
 347 prop tor  56  29  30  31
 348 prop tor  57  33  34  13
 349 prop tor  57  33  34  58
 350 prop tor  59  35  36  37
 351 prop tor  59  35  36  60
 352 prop tor  60  36  37   2
 353 prop tor  60  36  37  10
 nber bend=             112
 nber lin bend=           0
 nber prop tor=         174
 nber impr tor=           0
 nber tot redund int=         353
 Eigenvalues of G in red int coords
    Gval -0.00000000 -0.00000000 -0.00000000 -0.00000000 -0.00000000 -0.00000000 -0.00000000 -0.00000000
    Gval -0.00000000 -0.00000000 -0.00000000 -0.00000000 -0.00000000 -0.00000000 -0.00000000 -0.00000000
    Gval -0.00000000 -0.00000000 -0.00000000 -0.00000000 -0.00000000 -0.00000000 -0.00000000 -0.00000000
    Gval -0.00000000 -0.00000000 -0.00000000 -0.00000000 -0.00000000 -0.00000000 -0.00000000 -0.00000000
    Gval -0.00000000 -0.00000000 -0.00000000 -0.00000000 -0.00000000 -0.00000000 -0.00000000 -0.00000000
    Gval -0.00000000 -0.00000000 -0.00000000 -0.00000000 -0.00000000 -0.00000000 -0.00000000 -0.00000000
    Gval -0.00000000 -0.00000000 -0.00000000 -0.00000000 -0.00000000 -0.00000000 -0.00000000 -0.00000000
    Gval -0.00000000 -0.00000000 -0.00000000 -0.00000000 -0.00000000 -0.00000000 -0.00000000 -0.00000000
    Gval -0.00000000 -0.00000000 -0.00000000 -0.00000000 -0.00000000 -0.00000000 -0.00000000 -0.00000000
    Gval -0.00000000 -0.00000000 -0.00000000 -0.00000000 -0.00000000 -0.00000000 -0.00000000 -0.00000000
    Gval -0.00000000 -0.00000000 -0.00000000 -0.00000000 -0.00000000 -0.00000000 -0.00000000  0.00000000
    Gval  0.00000000  0.00000000  0.00000000  0.00000000  0.00000000  0.00000000  0.00000000  0.00000000
    Gval  0.00000000  0.00000000  0.00000000  0.00000000  0.00000000  0.00000000  0.00000000  0.00000000
    Gval  0.00000000  0.00000000  0.00000000  0.00000000  0.00000000  0.00000000  0.00000000  0.00000000
    Gval  0.00000000  0.00000000  0.00000000  0.00000000  0.00000000  0.00000000  0.00000000  0.00000000
    Gval  0.00000000  0.00000000  0.00000000  0.00000000  0.00000000  0.00000000  0.00000000  0.00000000
[...]
 nber times 1st assigned=         136           0
 nber times 1st assigned=         137           0
 nber times 1st assigned=         138           0
 nber times 1st assigned=         139           0
 nber times 1st assigned=         140           0
 nber times 1st assigned=         141           0
 nber times 1st assigned=         142           0
 nber times 1st assigned=         143           0
 nber times 1st assigned=         144           0
 nber times 1st assigned=         145           0
 nber times 1st assigned=         146           0
 nber times 1st assigned=         147           0
 nber times 1st assigned=         148           0
 nber times 1st assigned=         149           0
 nber times 1st assigned=         150           0
 nber times 1st assigned=         151           0
 nber times 1st assigned=         152           0
 nber times 1st assigned=         153           0
 nber times 1st assigned=         154           0
 nber times 1st assigned=         155           0
 nber times 1st assigned=         156           0
 nber times 1st assigned=         157           0
 nber times 1st assigned=         158           0
 nber times 1st assigned=         159           0
 nber times 1st assigned=         160           0
 nber times 1st assigned=         161           0
 nber times 1st assigned=         162           0
 nber times 1st assigned=         163           0
 nber times 1st assigned=         164           0
 nber times 1st assigned=         165           0
 nber times 1st assigned=         166           0
 nber times 1st assigned=         167           0
 nber times 1st assigned=         168           0
 nber times 1st assigned=         169           0
 nber times 1st assigned=         170           0
 nber times 1st assigned=         171           0
 nber times 1st assigned=         172           0
 nber times 1st assigned=         173           0
 nber times 1st assigned=         174           0
 nber times 1st assigned=         175           0
 nber times 1st assigned=         176           0
 nber times 1st assigned=         177           0
 nber times 1st assigned=         178           0
 nber times 1st assigned=         179           0
 nber times 1st assigned=         180           0
 modes represented=   388.973033124463     
 p1=
   -0.    0.   -0.    0.    0.    0. 1172. -771.  199.  320.  190.   97.  161.   -8.  -19. -154.   90.  104.  140.  -57.
   18.    9.  -14.  -15.  -13.    1.   -1.   19.   -2.   11.   -7.   -2.   -7.    3.   -6.   -2.    3.    8.   -3.   10.
   -1.    6.   -6.   -3.   -1.    0.    4.   -5.   -0.   -6.    2.    1.    8.   -9.   -2.    4.   -3.    6.    1.    1.
    2.   -3.   -1.   -0.   -7.    1.   -3.    1.   -1.   -0.    3.   -1.   -1.   -1.   -1.    4.   -3.   -1.    0.    1.
   -2.    4.   -0.    2.   -3.    0.    0.    0.    0.   -2.    2.   -1.    0.    1.    1.   -3.   -1.    0.    1.    0.
   12.    2.   -1.  -26.    0.   -6.    3.   -0.    1.   -5.    3.    0.    1.    0.   -0.   -2.   -1.   -0.   -1.   -0.
   -3.   -1.   -1.    1.   -1.    4.    3.   -1.    1.    0.   -1.   -1.    1.   -0.    0.   -0.   -5.    1.   -0.   -5.
   23.    2.    1.   -5.    2.    2.   -0.   -1.   -0.    1.    0.   -0.    1.   -1.    1.   -1.    2.   -1.    1.   -0.
   -0.   -0.   -0.   -0.    0.    0.    0.    0.   -0.   -0.   -0.   -0.   -0.    0.    0.   -0.    0.    0.   -0.   -0.
 p2=
    0.   -0.    0.    0.   -0.   -0. 1248. -879. -228. -323. -238.    4.   92.   84.  -10.  -88. -109.  -34.   70.   68.
  -38.  -15.   17.  -27.  -36.    8.   -8.    6.    9.   10.    4.   -9.   -1.    5.   14.    4.    4.   -6.  -12.    8.
   -2.    5.   -5.   -1.   -1.    1.    2.    8.   -0.    1.   -0.   -3.   -2.    3.   -2.    1.   -2.    1.    5.   -0.
    1.   -5.   -1.    0.    0.   -1.   -1.    2.   -0.    0.    0.   -1.   -3.    2.   -1.    2.    0.    0.    1.   -1.
    2.   -1.    1.   -0.    0.   -0.   -0.    1.   -1.    2.   -1.    1.   -0.    1.   -1.    4.    4.   -1.    0.   -0.
    1.    2.  -22.    3.   13.   -1.   -0.    3.   -0.    1.   -1.    2.    7.   -4.    1.   -1.   -0.   -2.   -5.    0.
    1.    1.    1.   -0.    2.    1.    0.    2.   -1.    1.    1.    1.   -1.    0.   -0.    2.   -2.   -2.   -1.    3.
    0.  -16.    1.  -15.  -13.    4.   -4.    1.   -1.   -1.    1.   -1.    1.   -0.    0.   -0.    3.   -0.    2.   -0.
   -0.   -0.   -0.    0.    0.    0.   -0.    0.   -0.    0.    0.   -0.   -0.    0.   -0.   -0.    0.    0.   -1.    1.

 Displacement: in terms of nc of 1 THEN of nc of 2

   1     freq=    -0. Q= -0.000 lam=    -0.0     freq=    -0. Q= -0.000 lam=    -0.0
   2     freq=    -0. Q=  0.000 lam=    -0.0     freq=    -0. Q=  0.000 lam=    -0.0
   3     freq=    -0. Q= -0.000 lam=    -0.0     freq=     0. Q= -0.000 lam=     0.0
   4     freq=     0. Q=  0.000 lam=     0.0     freq=     0. Q=  0.000 lam=     0.0
   5     freq=     0. Q=  0.000 lam=     0.0     freq=     0. Q=  0.000 lam=     0.0
   6     freq=     0. Q=  0.000 lam=     0.0     freq=     0. Q=  0.000 lam=     0.0
   7     freq=    12. Q= 16.388 lam=  1613.6     freq=    13. Q= 17.946 lam=  2045.8
   8     freq=    17. Q=-12.933 lam=  1445.4     freq=    20. Q=-15.797 lam=  2478.0
   9     freq=    24. Q=  3.934 lam=   186.4     freq=    26. Q=  4.640 lam=   274.6
  10     freq=    41. Q=  8.255 lam=  1395.3     freq=    35. Q=  7.685 lam=  1025.4
  11     freq=    59. Q=  5.859 lam=  1004.4     freq=    65. Q=  7.766 lam=  1974.5
  12     freq=    68. Q=  3.224 lam=   351.6     freq=    71. Q=  0.122 lam=     0.5
  13     freq=    78. Q=  5.738 lam=  1290.1     freq=    74. Q=  3.174 lam=   371.0
  14     freq=   104. Q= -0.340 lam=     6.0     freq=   101. Q= -3.397 lam=   584.5
  15     freq=   117. Q= -0.825 lam=    39.9     freq=   115. Q= -0.429 lam=    10.6
  16     freq=   124. Q= -6.909 lam=  2967.0     freq=   123. Q= -3.959 lam=   966.6
  17     freq=   144. Q=  4.384 lam=  1386.8     freq=   139. Q=  5.180 lam=  1865.1
  18     freq=   147. Q=  5.102 lam=  1916.2     freq=   155. Q=  1.727 lam=   231.3
  19     freq=   173. Q=  7.408 lam=  4750.3     freq=   181. Q=  3.814 lam=  1317.5
  20     freq=   196. Q= -3.221 lam=  1016.8     freq=   185. Q= -3.723 lam=  1282.6
  21     freq=   212. Q=  1.073 lam=   122.2     freq=   204. Q=  2.189 lam=   489.2
  22     freq=   221. Q=  0.523 lam=    30.2     freq=   213. Q=  0.891 lam=    84.6
  23     freq=   248. Q= -0.862 lam=    92.3     freq=   220. Q= -0.997 lam=   109.5
  24     freq=   262. Q= -0.958 lam=   120.3     freq=   239. Q= -1.668 lam=   333.0
  25     freq=   266. Q= -0.876 lam=   101.9     freq=   261. Q= -2.340 lam=   713.3
  26     freq=   275. Q=  0.066 lam=     0.6     freq=   269. Q=  0.551 lam=    40.9
  27     freq=   299. Q= -0.101 lam=     1.5     freq=   286. Q= -0.545 lam=    42.4
  28     freq=   320. Q=  1.370 lam=   300.7     freq=   308. Q=  0.451 lam=    31.3
  29     freq=   332. Q= -0.113 lam=     2.1     freq=   342. Q= -0.676 lam=    78.3
  30     freq=   355. Q=  0.819 lam=   119.0     freq=   356. Q=  0.740 lam=    97.5
  31     freq=   369. Q= -0.557 lam=    57.3     freq=   381. Q= -0.281 lam=    15.1
  32     freq=   385. Q= -0.157 lam=     4.7     freq=   394. Q= -0.717 lam=   101.2
  33     freq=   414. Q= -0.583 lam=    70.3     freq=   408. Q= -0.076 lam=     1.2
  34     freq=   418. Q=  0.262 lam=    14.4     freq=   413. Q=  0.436 lam=    39.3
  35     freq=   421. Q= -0.519 lam=    56.6     freq=   427. Q= -1.148 lam=   281.7
  36     freq=   432. Q= -0.207 lam=     9.2     freq=   432. Q= -0.325 lam=    22.8
  37     freq=   443. Q=  0.217 lam=    10.4     freq=   439. Q=  0.330 lam=    24.0
  38     freq=   446. Q=  0.690 lam=   106.1     freq=   447. Q=  0.471 lam=    49.5
  39     freq=   449. Q= -0.266 lam=    15.9     freq=   455. Q= -1.011 lam=   232.4
  40     freq=   462. Q=  0.846 lam=   165.1     freq=   459. Q=  0.696 lam=   111.2
  41     freq=   473. Q= -0.129 lam=     3.9     freq=   474. Q= -0.192 lam=     8.7
  42     freq=   485. Q=  0.571 lam=    79.0     freq=   482. Q=  0.440 lam=    46.7
  43     freq=   511. Q= -0.543 lam=    75.4     freq=   491. Q= -0.460 lam=    51.9
  44     freq=   514. Q= -0.260 lam=    17.4     freq=   501. Q= -0.062 lam=     1.0
  45     freq=   519. Q= -0.128 lam=     4.2     freq=   501. Q= -0.111 lam=     3.1
  46     freq=   522. Q=  0.014 lam=     0.0     freq=   518. Q=  0.124 lam=     4.0
  47     freq=   527. Q=  0.337 lam=    29.9     freq=   526. Q=  0.174 lam=     8.0
  48     freq=   549. Q= -0.444 lam=    54.2     freq=   533. Q= -0.716 lam=   136.6
  49     freq=   555. Q= -0.047 lam=     0.6     freq=   548. Q= -0.003 lam=     0.0
  50     freq=   567. Q= -0.565 lam=    90.6     freq=   557. Q= -0.128 lam=     4.6
  51     freq=   578. Q=  0.231 lam=    15.4     freq=   575. Q=  0.016 lam=     0.1
  52     freq=   599. Q=  0.075 lam=     1.7     freq=   582. Q=  0.297 lam=    25.7
  53     freq=   616. Q=  0.765 lam=   180.4     freq=   609. Q=  0.158 lam=     7.6
  54     freq=   626. Q= -0.862 lam=   232.4     freq=   610. Q= -0.304 lam=    28.2
  55     freq=   630. Q= -0.193 lam=    11.7     freq=   615. Q= -0.223 lam=    15.3
  56     freq=   652. Q=  0.443 lam=    63.9     freq=   650. Q=  0.142 lam=     6.6
  57     freq=   660. Q= -0.307 lam=    31.2     freq=   651. Q= -0.239 lam=    18.6
  58     freq=   691. Q=  0.624 lam=   134.5     freq=   676. Q=  0.072 lam=     1.7
  59     freq=   694. Q=  0.055 lam=     1.1     freq=   686. Q=  0.478 lam=    78.3
  60     freq=   705. Q=  0.097 lam=     3.3     freq=   698. Q=  0.010 lam=     0.0
  61     freq=   714. Q=  0.226 lam=    18.2     freq=   702. Q=  0.060 lam=     1.3
  62     freq=   725. Q= -0.367 lam=    48.7     freq=   715. Q= -0.552 lam=   108.8
  63     freq=   737. Q= -0.132 lam=     6.4     freq=   719. Q= -0.102 lam=     3.8
  64     freq=   740. Q= -0.009 lam=     0.0     freq=   726. Q= -0.032 lam=     0.4
  65     freq=   746. Q= -0.780 lam=   227.0     freq=   735. Q= -0.042 lam=     0.6
  66     freq=   760. Q=  0.080 lam=     2.4     freq=   747. Q=  0.134 lam=     6.7
  67     freq=   765. Q= -0.308 lam=    36.4     freq=   748. Q= -0.101 lam=     3.8
  68     freq=   770. Q=  0.144 lam=     8.0     freq=   765. Q=  0.174 lam=    11.6
  69     freq=   776. Q= -0.075 lam=     2.2     freq=   769. Q= -0.048 lam=     0.9
  70     freq=   810. Q= -0.014 lam=     0.1     freq=   773. Q= -0.014 lam=     0.1
  71     freq=   820. Q=  0.321 lam=    42.2     freq=   801. Q=  0.046 lam=     0.9
  72     freq=   829. Q= -0.152 lam=     9.6     freq=   821. Q= -0.092 lam=     3.5
  73     freq=   833. Q= -0.085 lam=     3.0     freq=   823. Q= -0.351 lam=    50.7
  74     freq=   839. Q= -0.065 lam=     1.8     freq=   826. Q= -0.270 lam=    30.2
  75     freq=   848. Q= -0.124 lam=     6.6     freq=   828. Q= -0.126 lam=     6.6
  76     freq=   855. Q=  0.434 lam=    80.6     freq=   831. Q=  0.175 lam=    12.7
  77     freq=   856. Q= -0.353 lam=    53.2     freq=   842. Q= -0.034 lam=     0.5
  78     freq=   860. Q= -0.102 lam=     4.5     freq=   846. Q= -0.032 lam=     0.4
  79     freq=   863. Q=  0.030 lam=     0.4     freq=   851. Q=  0.158 lam=    10.6
  80     freq=   871. Q=  0.131 lam=     7.4     freq=   855. Q=  0.133 lam=     7.6
  81     freq=   889. Q= -0.208 lam=    19.2     freq=   857. Q= -0.178 lam=    13.6
  82     freq=   908. Q=  0.469 lam=    99.8     freq=   890. Q=  0.149 lam=     9.8
  83     freq=   911. Q= -0.035 lam=     0.5     freq=   896. Q= -0.090 lam=     3.6
  84     freq=   937. Q=  0.216 lam=    21.9     freq=   927. Q=  0.023 lam=     0.2
  85     freq=   952. Q= -0.406 lam=    78.6     freq=   938. Q= -0.020 lam=     0.2
  86     freq=   965. Q=  0.014 lam=     0.1     freq=   943. Q=  0.052 lam=     1.3
  87     freq=   977. Q=  0.040 lam=     0.8     freq=   954. Q=  0.014 lam=     0.1
  88     freq=   978. Q=  0.009 lam=     0.0     freq=   961. Q=  0.070 lam=     2.4
  89     freq=   978. Q=  0.021 lam=     0.2     freq=   967. Q=  0.158 lam=    12.0
  90     freq=   983. Q= -0.209 lam=    21.6     freq=   976. Q= -0.298 lam=    43.3
  91     freq=   986. Q=  0.205 lam=    20.7     freq=   981. Q=  0.134 lam=     8.7
  92     freq=   987. Q= -0.102 lam=     5.1     freq=   988. Q= -0.173 lam=    14.8
  93     freq=   995. Q=  0.041 lam=     0.8     freq=  1000. Q=  0.049 lam=     1.2
  94     freq=  1019. Q=  0.157 lam=    12.5     freq=  1006. Q=  0.132 lam=     8.8
  95     freq=  1035. Q=  0.124 lam=     8.0     freq=  1015. Q=  0.162 lam=    13.3
  96     freq=  1060. Q= -0.377 lam=    75.2     freq=  1044. Q= -0.537 lam=   150.7
  97     freq=  1061. Q= -0.083 lam=     3.7     freq=  1048. Q= -0.491 lam=   126.2
  98     freq=  1067. Q=  0.029 lam=     0.4     freq=  1061. Q=  0.158 lam=    13.2
  99     freq=  1069. Q=  0.132 lam=     9.3     freq=  1073. Q=  0.029 lam=     0.4
 100     freq=  1097. Q=  0.032 lam=     0.6     freq=  1092. Q=  0.052 lam=     1.5
 101     freq=  1126. Q=  1.570 lam=  1387.6     freq=  1107. Q=  0.111 lam=     6.8
 102     freq=  1127. Q=  0.228 lam=    29.2     freq=  1129. Q=  0.318 lam=    57.2
 103     freq=  1135. Q= -0.108 lam=     6.6     freq=  1132. Q= -2.926 lam=  4845.7
 104     freq=  1141. Q= -3.566 lam=  7257.7     freq=  1133. Q= -0.466 lam=   122.8
 105     freq=  1142. Q=  0.050 lam=     1.4     freq=  1139. Q=  1.821 lam=  1887.7
 106     freq=  1151. Q= -0.851 lam=   417.1     freq=  1151. Q= -0.199 lam=    22.8
 107     freq=  1162. Q=  0.471 lam=   128.6     freq=  1157. Q=  0.037 lam=     0.8
 108     freq=  1169. Q= -0.062 lam=     2.3     freq=  1167. Q= -0.356 lam=    73.8
 109     freq=  1182. Q=  0.078 lam=     3.5     freq=  1178. Q=  0.005 lam=     0.0
 110     freq=  1182. Q= -0.674 lam=   268.3     freq=  1193. Q= -0.174 lam=    18.0
 111     freq=  1188. Q=  0.456 lam=   123.4     freq=  1195. Q=  0.085 lam=     4.3
 112     freq=  1201. Q=  0.056 lam=     1.9     freq=  1203. Q=  0.324 lam=    63.1
 113     freq=  1211. Q=  0.134 lam=    10.8     freq=  1207. Q=  0.927 lam=   519.1
 114     freq=  1216. Q=  0.025 lam=     0.4     freq=  1215. Q=  0.584 lam=   207.1
 115     freq=  1242. Q= -0.056 lam=     2.0     freq=  1233. Q= -0.130 lam=    10.4
 116     freq=  1263. Q= -0.348 lam=    76.4     freq=  1245. Q= -0.185 lam=    21.2
 117     freq=  1269. Q= -0.088 lam=     4.9     freq=  1262. Q= -0.013 lam=     0.1
 118     freq=  1270. Q= -0.037 lam=     0.9     freq=  1267. Q= -0.267 lam=    45.3
 119     freq=  1282. Q= -0.127 lam=    10.3     freq=  1274. Q= -0.692 lam=   304.6
 120     freq=  1285. Q= -0.045 lam=     1.3     freq=  1282. Q= -0.062 lam=     2.4
 121     freq=  1294. Q= -0.410 lam=   109.0     freq=  1297. Q= -0.114 lam=     8.4
 122     freq=  1300. Q= -0.140 lam=    12.7     freq=  1300. Q= -0.104 lam=     7.1
 123     freq=  1312. Q= -0.169 lam=    18.8     freq=  1310. Q= -0.081 lam=     4.3
 124     freq=  1321. Q=  0.082 lam=     4.5     freq=  1324. Q=  0.015 lam=     0.2
 125     freq=  1327. Q= -0.081 lam=     4.3     freq=  1330. Q= -0.284 lam=    53.8
 126     freq=  1332. Q=  0.530 lam=   186.9     freq=  1338. Q=  0.091 lam=     5.5
 127     freq=  1340. Q=  0.382 lam=    97.8     freq=  1341. Q=  0.023 lam=     0.4
 128     freq=  1359. Q= -0.075 lam=     3.8     freq=  1348. Q= -0.273 lam=    50.3
 129     freq=  1361. Q=  0.110 lam=     8.2     freq=  1362. Q=  0.174 lam=    20.7
 130     freq=  1388. Q=  0.053 lam=     2.0     freq=  1365. Q=  0.157 lam=    16.9
 131     freq=  1408. Q= -0.174 lam=    21.2     freq=  1378. Q= -0.157 lam=    16.9
 132     freq=  1416. Q= -0.078 lam=     4.3     freq=  1395. Q= -0.117 lam=     9.6
 133     freq=  1431. Q=  0.123 lam=    10.8     freq=  1413. Q=  0.129 lam=    11.8
 134     freq=  1440. Q= -0.075 lam=     4.1     freq=  1435. Q= -0.014 lam=     0.1
 135     freq=  1445. Q=  0.058 lam=     2.4     freq=  1444. Q=  0.006 lam=     0.0
 136     freq=  1462. Q= -0.060 lam=     2.6     freq=  1456. Q= -0.265 lam=    51.1
 137     freq=  1463. Q= -0.738 lam=   398.2     freq=  1459. Q= -0.254 lam=    47.0
 138     freq=  1476. Q=  0.082 lam=     4.9     freq=  1467. Q=  0.316 lam=    73.3
 139     freq=  1485. Q= -0.033 lam=     0.8     freq=  1475. Q= -0.084 lam=     5.2
 140     freq=  1496. Q= -0.851 lam=   541.4     freq=  1478. Q= -0.461 lam=   156.8
 141     freq=  1498. Q=  3.590 lam=  9653.5     freq=  1495. Q=  0.073 lam=     3.9
 142     freq=  1518. Q=  0.296 lam=    66.7     freq=  1504. Q=  2.476 lam=  4611.5
 143     freq=  1522. Q=  0.085 lam=     5.5     freq=  1513. Q=  0.215 lam=    34.8
 144     freq=  1526. Q= -0.767 lam=   449.5     freq=  1517. Q= -2.365 lam=  4241.8
 145     freq=  1537. Q=  0.255 lam=    50.1     freq=  1520. Q=  2.112 lam=  3389.4
 146     freq=  1551. Q=  0.332 lam=    85.4     freq=  1530. Q=  0.593 lam=   268.7
 147     freq=  1571. Q= -0.050 lam=     1.9     freq=  1536. Q= -0.574 lam=   253.1
 148     freq=  1583. Q= -0.099 lam=     7.8     freq=  1544. Q= -0.158 lam=    19.3
 149     freq=  1599. Q= -0.058 lam=     2.7     freq=  1554. Q= -0.146 lam=    16.5
 150     freq=  1614. Q=  0.096 lam=     7.4     freq=  1579. Q=  0.191 lam=    28.9
 151     freq=  1619. Q=  0.001 lam=     0.0     freq=  1583. Q=  0.110 lam=     9.7
 152     freq=  1621. Q= -0.023 lam=     0.4     freq=  1588. Q= -0.173 lam=    23.9
 153     freq=  1631. Q=  0.172 lam=    24.1     freq=  1599. Q=  0.123 lam=    12.2
 154     freq=  1643. Q= -0.184 lam=    27.8     freq=  1614. Q= -0.008 lam=     0.0
 155     freq=  1647. Q=  0.123 lam=    12.4     freq=  1624. Q=  0.072 lam=     4.2
 156     freq=  1650. Q= -0.146 lam=    17.6     freq=  1639. Q= -0.019 lam=     0.3
 157     freq=  1668. Q=  0.356 lam=   105.8     freq=  1646. Q=  0.572 lam=   269.3
 158     freq=  2975. Q= -0.185 lam=    50.9     freq=  3036. Q= -0.009 lam=     0.1
 159     freq=  3085. Q=  0.217 lam=    72.7     freq=  3129. Q=  0.354 lam=   196.3
 160     freq=  3125. Q= -0.006 lam=     0.1     freq=  3141. Q= -0.001 lam=     0.0
 161     freq=  3156. Q= -0.002 lam=     0.0     freq=  3143. Q= -0.010 lam=     0.2
 162     freq=  3158. Q= -0.012 lam=     0.2     freq=  3147. Q= -0.003 lam=     0.0
 163     freq=  3162. Q= -0.011 lam=     0.2     freq=  3148. Q= -0.004 lam=     0.0
 164     freq=  3162. Q= -0.004 lam=     0.0     freq=  3151. Q= -0.029 lam=     1.4
 165     freq=  3165. Q=  0.043 lam=     3.0     freq=  3155. Q=  0.049 lam=     3.7
 166     freq=  3166. Q=  0.026 lam=     1.1     freq=  3158. Q=  0.001 lam=     0.0
 167     freq=  3167. Q=  0.006 lam=     0.1     freq=  3162. Q=  0.043 lam=     2.9
 168     freq=  3168. Q=  0.021 lam=     0.7     freq=  3163. Q=  0.001 lam=     0.0
 169     freq=  3175. Q= -0.004 lam=     0.0     freq=  3168. Q= -0.015 lam=     0.4
 170     freq=  3177. Q= -0.008 lam=     0.1     freq=  3171. Q= -0.006 lam=     0.1
 171     freq=  3177. Q= -0.002 lam=     0.0     freq=  3182. Q= -0.018 lam=     0.5
 172     freq=  3179. Q= -0.002 lam=     0.0     freq=  3186. Q= -0.004 lam=     0.0
 173     freq=  3181. Q= -0.002 lam=     0.0     freq=  3189. Q= -0.012 lam=     0.2
 174     freq=  3183. Q=  0.006 lam=     0.1     freq=  3191. Q=  0.044 lam=     3.0
 175     freq=  3183. Q=  0.009 lam=     0.1     freq=  3192. Q=  0.019 lam=     0.6
 176     freq=  3185. Q= -0.020 lam=     0.6     freq=  3200. Q= -0.004 lam=     0.0
 177     freq=  3192. Q=  0.018 lam=     0.5     freq=  3202. Q=  0.014 lam=     0.3
 178     freq=  3202. Q=  0.002 lam=     0.0     freq=  3209. Q=  0.002 lam=     0.0
 179     freq=  3203. Q= -0.063 lam=     6.3     freq=  3217. Q= -0.165 lam=    43.6
 180     freq=  3203. Q= -0.092 lam=    13.6     freq=  3228. Q= -0.169 lam=    46.3

 total reorg energy (cm**-1, kcal/mol)=    44582.    40700.    127.46    116.37
 Nber of molecules processed=           2
