 Enter ifcurve (0=recti, 1=orth curvi, 2=apprx curvi, -1 = skip
 And atom ordering flag, 0= never changes, 1= use the first order thenceforth,
  2= deduce it (does read on fail), 3= always read it
 Reading file: 
 ./CDT-PDI_4_C0S2.log                                                           
                                          
  Entering Gaussian System, Link 0=g16                                          
  
 Gaussian format, type: g94, g98, g03= F F F
  #P Geom=AllCheck Guess=TCheck SCRF=Check GenChk RB3LYP TD(FC,Read)/6-3    
 energy type= TD      
 Original G94 input coords:
  6 16.132768  1.765993 39.455227
  6 14.624274  1.590239 39.248676
  6 13.782963  2.182915 40.384487
  7 14.184403  2.090658 37.911777
  6 13.661644  1.135040 37.015488
  8 13.576716 -0.044960 37.327040
  6 13.226266  1.623423 35.696189
  6 12.702139  0.718649 34.773977
  6 12.284168  1.145232 33.526467
  6 12.368703  2.499927 33.135981
  6 11.935205  2.958853 31.833159
  6 11.398020  2.066827 30.870957
  6 10.989443  2.504631 29.638647
  6 11.089974  3.863471 29.283714
  6 10.640714  4.248228 27.968907
  8 10.177609  3.507370 27.127278
  7 10.771376  5.682113 27.650761
  6 10.402903  6.194535 26.464392
  6  9.856586  5.574877 25.337333
  6  9.563549  6.362752 24.208407
  6  9.035992  5.839385 23.050370
  6  8.741180  6.637622 21.857400
  6  9.559606  6.905690 20.786272
  6  8.918246  7.687258 19.793986
  6  9.278018  8.291694 18.452380
  6  7.987531  8.988452 18.072490
  6  7.506250  9.764518 16.987688
  6  6.206156 10.151560 17.174912
 16  5.540916  9.573887 18.682735
  6  7.039223  8.803070 19.060740
  6  7.613748  8.002156 20.115953
 16  7.137503  7.351795 21.643864
  6 11.328181  6.701098 28.613891
  8 11.382187  7.850234 28.234208
  6 11.734255  6.179926 29.882268
  6 12.265046  7.082857 30.827789
  6 12.674524  6.651242 32.059896
  6 12.583741  5.285402 32.438070
  6 13.016756  4.827737 33.738338
  6 13.554585  5.703019 34.708956
  6 13.965995  5.252234 35.949676
  6 13.862164  3.903360 36.287748
  6 14.310089  3.457634 37.618124
  8 14.773468  4.238695 38.439360
  6 13.331358  2.988410 35.353504
  6 12.901539  3.442495 34.063978
  6 12.048860  4.345145 31.501664
  6 11.617337  4.802098 30.201963
  1 16.429335  1.257855 40.377366
  1 16.406976  2.817355 39.530837
  1 16.689099  1.312608 38.630580
  1 14.413540  0.524428 39.193953
  1 13.961067  3.251210 40.499804
  1 14.041154  1.680087 41.320969
  1 12.718005  2.018696 40.200095
  1 12.631812 -0.322844 35.060647
  1 11.884621  0.408170 32.844641
  1 11.303546  1.016333 31.102290
  1 10.580935  1.813486 28.912787
  1 10.579161  7.266017 26.426266
  1  9.666141  4.513580 25.333594
  1  9.766622  7.429926 24.244043
  1  8.825951  4.771138 23.022057
  1 10.578590  6.544935 20.731206
  1  9.563812  7.528060 17.720620
  1 10.116483  8.992635 18.529430
  1  8.078786 10.031385 16.109271
  1  5.583546 10.744971 16.523645
  1 12.340271  8.127143 30.553035
  1 13.074760  7.376230 32.752898
  1 13.654427  6.756992 34.492206
  1 14.376477  5.933767 36.683846
 nber atoms=          72
  Total Energy, E(TD-HF/TD-DFT) =  -2746.02663857                               
  
          32          49 "  -2746.02663857"
After scan for Atom:   Atom  AN      X      Y      Z        X      Y      Z        X      Y      Z   
After scan for Atom:   Atom  AN      X      Y      Z        X      Y      Z        X      Y      Z   
After scan for Atom:   Atom  AN      X      Y      Z        X      Y      Z        X      Y      Z   
After scan for Atom:   Atom  AN      X      Y      Z        X      Y      Z        X      Y      Z   
After scan for Atom:   Atom  AN      X      Y      Z        X      Y      Z        X      Y      Z   
After scan for Atom:   Atom  AN      X      Y      Z        X      Y      Z        X      Y      Z   
After scan for Atom:   Atom  AN      X      Y      Z        X      Y      Z        X      Y      Z   
After scan for Atom:   Atom  AN      X      Y      Z        X      Y      Z        X      Y      Z   
After scan for Atom:   Atom  AN      X      Y      Z        X      Y      Z        X      Y      Z   
After scan for Atom:   Atom  AN      X      Y      Z        X      Y      Z        X      Y      Z   
After scan for Atom:   Atom  AN      X      Y      Z        X      Y      Z        X      Y      Z   
After scan for Atom:   Atom  AN      X      Y      Z        X      Y      Z        X      Y      Z   
After scan for Atom:   Atom  AN      X      Y      Z        X      Y      Z        X      Y      Z   
After scan for Atom:   Atom  AN      X      Y      Z        X      Y      Z        X      Y      Z   
After scan for Atom:   Atom  AN      X      Y      Z        X      Y      Z        X      Y      Z   
After scan for Atom:   Atom  AN      X      Y      Z        X      Y      Z        X      Y      Z   
After scan for Atom:   Atom  AN      X      Y      Z        X      Y      Z        X      Y      Z   
After scan for Atom:   Atom  AN      X      Y      Z        X      Y      Z        X      Y      Z   
After scan for Atom:   Atom  AN      X      Y      Z        X      Y      Z        X      Y      Z   
After scan for Atom:   Atom  AN      X      Y      Z        X      Y      Z        X      Y      Z   
After scan for Atom:   Atom  AN      X      Y      Z        X      Y      Z        X      Y      Z   
After scan for Atom:   Atom  AN      X      Y      Z        X      Y      Z        X      Y      Z   
After scan for Atom:   Atom  AN      X      Y      Z        X      Y      Z        X      Y      Z   
After scan for Atom:   Atom  AN      X      Y      Z        X      Y      Z        X      Y      Z   
After scan for Atom:   Atom  AN      X      Y      Z        X      Y      Z        X      Y      Z   
After scan for Atom:   Atom  AN      X      Y      Z        X      Y      Z        X      Y      Z   
After scan for Atom:   Atom  AN      X      Y      Z        X      Y      Z        X      Y      Z   
After scan for Atom:   Atom  AN      X      Y      Z        X      Y      Z        X      Y      Z   
After scan for Atom:   Atom  AN      X      Y      Z        X      Y      Z        X      Y      Z   
After scan for Atom:   Atom  AN      X      Y      Z        X      Y      Z        X      Y      Z   
After scan for Atom:   Atom  AN      X      Y      Z        X      Y      Z        X      Y      Z   
After scan for Atom:   Atom  AN      X      Y      Z        X      Y      Z        X      Y      Z   
After scan for Atom:   Atom  AN      X      Y      Z        X      Y      Z        X      Y      Z   
After scan for Atom:   Atom  AN      X      Y      Z        X      Y      Z        X      Y      Z   
After scan for Atom:   Atom  AN      X      Y      Z        X      Y      Z        X      Y      Z   
After scan for Atom:   Atom  AN      X      Y      Z        X      Y      Z        X      Y      Z   
After scan for Atom:   Atom  AN      X      Y      Z        X      Y      Z        X      Y      Z   
After scan for Atom:   Atom  AN      X      Y      Z        X      Y      Z        X      Y      Z   
After scan for Atom:   Atom  AN      X      Y      Z        X      Y      Z        X      Y      Z   
After scan for Atom:   Atom  AN      X      Y      Z        X      Y      Z        X      Y      Z   
After scan for Atom:   Atom  AN      X      Y      Z        X      Y      Z        X      Y      Z   
After scan for Atom:   Atom  AN      X      Y      Z        X      Y      Z        X      Y      Z   
After scan for Atom:   Atom  AN      X      Y      Z        X      Y      Z        X      Y      Z   
After scan for Atom:   Atom  AN      X      Y      Z        X      Y      Z        X      Y      Z   
After scan for Atom:   Atom  AN      X      Y      Z        X      Y      Z        X      Y      Z   
After scan for Atom:   Atom  AN      X      Y      Z        X      Y      Z        X      Y      Z   
After scan for Atom:   Atom  AN      X      Y      Z        X      Y      Z        X      Y      Z   
After scan for Atom:   Atom  AN      X      Y      Z        X      Y      Z        X      Y      Z   
After scan for Atom:   Atom  AN      X      Y      Z        X      Y      Z        X      Y      Z   
After scan for Atom:   Atom  AN      X      Y      Z        X      Y      Z        X      Y      Z   
After scan for Atom:   Atom  AN      X      Y      Z        X      Y      Z        X      Y      Z   
After scan for Atom:   Atom  AN      X      Y      Z        X      Y      Z        X      Y      Z   
After scan for Atom:   Atom  AN      X      Y      Z        X      Y      Z        X      Y      Z   
After scan for Atom:   Atom  AN      X      Y      Z        X      Y      Z        X      Y      Z   
After scan for Atom:   Atom  AN      X      Y      Z        X      Y      Z        X      Y      Z   
After scan for Atom:   Atom  AN      X      Y      Z        X      Y      Z        X      Y      Z   
After scan for Atom:   Atom  AN      X      Y      Z        X      Y      Z        X      Y      Z   
After scan for Atom:   Atom  AN      X      Y      Z        X      Y      Z        X      Y      Z   
After scan for Atom:   Atom  AN      X      Y      Z        X      Y      Z        X      Y      Z   
After scan for Atom:   Atom  AN      X      Y      Z        X      Y      Z        X      Y      Z   
After scan for Atom:   Atom  AN      X      Y      Z        X      Y      Z        X      Y      Z   
After scan for Atom:   Atom  AN      X      Y      Z        X      Y      Z        X      Y      Z   
After scan for Atom:   Atom  AN      X      Y      Z        X      Y      Z        X      Y      Z   
After scan for Atom:   Atom  AN      X      Y      Z        X      Y      Z        X      Y      Z   
After scan for Atom:   Atom  AN      X      Y      Z        X      Y      Z        X      Y      Z   
After scan for Atom:   Atom  AN      X      Y      Z        X      Y      Z        X      Y      Z   
After scan for Atom:   Atom  AN      X      Y      Z        X      Y      Z        X      Y      Z   
After scan for Atom:   Atom  AN      X      Y      Z        X      Y      Z        X      Y      Z   
After scan for Atom:   Atom  AN      X      Y      Z        X      Y      Z        X      Y      Z   
After scan for Atom:   Atom  AN      X      Y      Z        X      Y      Z        X      Y      Z   
 g94    frequencies=
     0.0    0.0    0.0    0.0    0.0    0.0    4.6   12.3   16.0   23.1
    26.6   33.4   45.7   54.8   58.5   75.2   86.9   87.5   97.3  103.1
   109.0  140.2  151.8  167.3  171.8  187.0  193.7  197.8  211.9  213.1
   234.6  235.6  236.1  246.4  254.0  256.5  259.0  290.2  294.2  298.0
   316.2  339.0  357.4  366.2  379.2  392.9  401.7  416.6  428.0  434.5
   437.8  443.4  449.3  449.8  453.0  463.7  467.3  484.4  494.5  500.3
   502.8  504.9  515.2  516.2  535.8  546.0  569.8  578.8  580.4  582.4
   589.9  608.3  622.9  625.4  638.2  646.9  661.4  661.9  668.0  698.3
   707.1  710.9  713.7  727.2  737.4  747.2  754.4  765.7  770.9  786.3
   799.9  805.9  816.4  820.8  822.4  825.2  830.1  834.4  845.9  849.4
   858.9  882.3  893.4  909.6  926.3  929.8  934.4  939.3  944.2  947.8
   956.0  958.2  974.5  977.7  978.1  987.6  990.6 1002.4 1008.4 1019.0
  1045.9 1069.7 1088.5 1094.7 1111.9 1121.0 1135.1 1148.7 1150.7 1155.4
  1166.7 1174.7 1176.3 1190.5 1201.4 1208.9 1212.7 1215.0 1228.2 1236.7
  1249.0 1254.3 1266.4 1276.8 1282.1 1295.8 1298.4 1306.3 1324.1 1327.9
  1355.3 1361.7 1362.3 1367.9 1371.5 1380.5 1383.9 1393.3 1398.2 1398.5
  1401.6 1412.8 1426.6 1431.5 1438.7 1440.2 1456.9 1461.4 1472.5 1473.6
  1481.6 1484.4 1484.4 1496.7 1506.4 1523.5 1529.1 1536.8 1543.8 1555.8
  1565.1 1575.7 1588.6 1598.3 1615.9 1618.9 1632.4 1644.3 1687.0 1723.8
  1790.6 1802.9 3030.7 3031.1 3035.2 3059.5 3088.0 3091.2 3110.2 3121.4
  3132.1 3141.9 3156.0 3161.2 3194.4 3195.0 3199.9 3200.8 3201.3 3203.8
  3209.9 3210.5 3226.6 3226.8 3247.7 3252.2
 g94    symmetries=
                                                 A      A      A      A
       A      A      A      A      A      A      A      A      A      A
       A      A      A      A      A      A      A      A      A      A
       A      A      A      A      A      A      A      A      A      A
       A      A      A      A      A      A      A      A      A      A
       A      A      A      A      A      A      A      A      A      A
       A      A      A      A      A      A      A      A      A      A
       A      A      A      A      A      A      A      A      A      A
       A      A      A      A      A      A      A      A      A      A
       A      A      A      A      A      A      A      A      A      A
       A      A      A      A      A      A      A      A      A      A
       A      A      A      A      A      A      A      A      A      A
       A      A      A      A      A      A      A      A      A      A
       A      A      A      A      A      A      A      A      A      A
       A      A      A      A      A      A      A      A      A      A
       A      A      A      A      A      A      A      A      A      A
       A      A      A      A      A      A      A      A      A      A
       A      A      A      A      A      A      A      A      A      A
       A      A      A      A      A      A      A      A      A      A
       A      A      A      A      A      A      A      A      A      A
       A      A      A      A      A      A      A      A      A      A
       A      A      A      A      A      A
 atomic masses:
 12.0000 12.0000 12.0000 14.0031 12.0000 15.9949 12.0000 12.0000 12.0000 12.0000
 12.0000 12.0000 12.0000 12.0000 12.0000 15.9949 14.0031 12.0000 12.0000 12.0000
 12.0000 12.0000 12.0000 12.0000 12.0000 12.0000 12.0000 12.0000 31.9721 12.0000
 12.0000 31.9721 12.0000 15.9949 12.0000 12.0000 12.0000 12.0000 12.0000 12.0000
 12.0000 12.0000 12.0000 15.9949 12.0000 12.0000 12.0000 12.0000  1.0078  1.0078
  1.0078  1.0078  1.0078  1.0078  1.0078  1.0078  1.0078  1.0078  1.0078  1.0078
  1.0078  1.0078  1.0078  1.0078  1.0078  1.0078  1.0078  1.0078  1.0078  1.0078
  1.0078  1.0078
 looking for force constants in 
 ./CDT-PDI_4_C0S2.fchk                                                          
  
 Cartesian Force Constants                  R   N=       23436                  
  
 n3=         216       23436
 g94-fc frequencies=
    -4.2   -0.9   -0.6    0.0    0.0    0.0    4.8   12.3   16.1   23.1
    26.6   33.4   45.7   54.8   58.5   75.2   86.9   87.5   97.3  103.1
   109.0  140.2  151.8  167.3  171.8  187.0  193.7  197.8  211.9  213.1
   234.6  235.6  236.1  246.4  254.0  256.5  259.0  290.2  294.2  298.0
   316.2  339.0  357.4  366.2  379.2  392.9  401.7  416.6  428.0  434.5
   437.8  443.5  449.3  449.8  453.0  463.7  467.3  484.4  494.5  500.3
   502.8  504.9  515.2  516.3  535.8  546.0  569.8  578.8  580.5  582.4
   590.0  608.3  622.9  625.4  638.2  646.9  661.4  661.9  668.0  698.3
   707.1  710.9  713.7  727.2  737.5  747.2  754.4  765.7  770.9  786.4
   799.9  805.9  816.5  820.9  822.4  825.2  830.1  834.4  845.9  849.4
   859.0  882.3  893.4  909.6  926.3  929.9  934.4  939.3  944.3  947.8
   956.1  958.2  974.5  977.7  978.1  987.6  990.6 1002.4 1008.4 1019.0
  1045.9 1069.7 1088.5 1094.7 1111.9 1121.0 1135.1 1148.7 1150.7 1155.4
  1166.7 1174.7 1176.3 1190.5 1201.4 1208.9 1212.7 1215.0 1228.2 1236.7
  1249.1 1254.4 1266.4 1276.8 1282.1 1295.9 1298.4 1306.3 1324.2 1328.0
  1355.4 1361.8 1362.4 1367.9 1371.6 1380.5 1384.0 1393.4 1398.3 1398.5
  1401.7 1412.8 1426.7 1431.6 1438.8 1440.2 1456.9 1461.5 1472.6 1473.6
  1481.6 1484.4 1484.5 1496.7 1506.5 1523.5 1529.2 1536.8 1543.9 1555.9
  1565.1 1575.8 1588.6 1598.3 1615.9 1619.0 1632.4 1644.3 1687.0 1723.9
  1790.6 1802.9 3030.7 3031.2 3035.2 3059.6 3088.0 3091.2 3110.2 3121.5
  3132.2 3142.0 3156.1 3161.3 3194.5 3195.1 3199.9 3200.9 3201.4 3203.9
  3210.0 3210.5 3226.7 3226.9 3247.7 3252.3
 at 99999: n3=         216
 symm operator            1 :  F  nop=           0
 symm operator            2 :  F  nop=           0
 symm operator            3 :  F  nop=           0
 symm operator            4 :  F  nop=           0
 symm operator            5 :  F  nop=           0
 symm operator            6 :  F  nop=           0
 symm operator            7 :  F  nop=           0
 The point group of the molecule is  C1
 Symmetry rotation matrix:
   1.00000   0.00000   0.00000
   0.00000   1.00000   0.00000
   0.00000   0.00000   1.00000

 Projecting out zero-frequency components
 generating redundant internal coords
         300        3600          72
 search for int coords
   1 str   2   1   1.533
   2 str   3   2   1.533
   3 str   4   2   1.494
   4 str   5   4   1.411
   5 str   6   5   1.223
   6 str   7   5   1.473
   7 str   8   7   1.394
   8 str   9   8   1.383
   9 str  10   9   1.412
  10 str  11  10   1.448
  11 str  12  11   1.418
  12 str  13  12   1.370
  13 str  14  13   1.408
  14 str  15  14   1.442
  15 str  16  15   1.213
  16 str  17  15   1.475
  17 str  18  17   1.344
  18 str  19  18   1.397
  19 str  20  19   1.408
  20 str  21  20   1.376
  21 str  22  21   1.465
  22 str  23  22   1.374
  23 str  24  23   1.417
  24 str  25  24   1.515
  25 str  26  25   1.515
  26 str  27  26   1.418
  27 str  28  27   1.369
  28 str  29  28   1.746
  29 str  30  26   1.382
  30 str  30  29   1.727
  31 str  31  24   1.380
  32 str  31  30   1.444
  33 str  32  22   1.768
  34 str  32  31   1.728
  35 str  33  17   1.509
  36 str  34  33   1.211
  37 str  35  33   1.430
  38 str  36  35   1.411
  39 str  37  36   1.368
  40 str  38  37   1.420
  41 str  39  38   1.445
  42 str  40  39   1.413
  43 str  41  40   1.383
  44 str  42  41   1.394
  45 str  43   4   1.404
  46 str  43  42   1.473
  47 str  44  43   1.224
  48 str  45   7   1.411
  49 str  45  42   1.411
  50 str  46  10   1.426
  51 str  46  39   1.428
  52 str  46  45   1.433
  53 str  47  11   1.430
  54 str  47  38   1.431
  55 str  48  14   1.415
  56 str  48  35   1.419
  57 str  48  47   1.444
  58 str  49   1   1.094
  59 str  50   1   1.089
  60 str  51   1   1.093
  61 str  52   2   1.088
  62 str  53   3   1.089
  63 str  54   3   1.094
  64 str  55   3   1.093
  65 str  56   8   1.083
  66 str  57   9   1.081
  67 str  58  12   1.080
  68 str  59  13   1.082
  69 str  60  18   1.087
  70 str  61  19   1.078
  71 str  62  20   1.087
  72 str  63  21   1.089
  73 str  64  23   1.082
  74 str  65  25   1.096
  75 str  66  25   1.096
  76 str  67  27   1.082
  77 str  68  28   1.079
  78 str  69  36   1.082
  79 str  70  37   1.080
  80 str  71  40   1.081
  81 str  72  41   1.083
 nber stretches=          81
  82 ben   1   2   3
  83 prop tor   1   2   3  53
  84 prop tor   1   2   3  54
  85 prop tor   1   2   3  55
  86 ben   1   2   4
  87 prop tor   1   2   4   5
  88 prop tor   1   2   4  43
  89 ben   1   2  52
  90 ben   2   1  49
  91 ben   2   1  50
  92 ben   2   1  51
  93 ben   2   3  53
  94 ben   2   3  54
  95 ben   2   3  55
  96 ben   2   4   5
  97 prop tor   2   4   5   6
  98 prop tor   2   4   5   7
  99 ben   2   4  43
 100 prop tor   2   4  43  42
 101 prop tor   2   4  43  44
 102 ben   3   2   4
 103 prop tor   3   2   4   5
 104 prop tor   3   2   4  43
 105 ben   3   2  52
 106 prop tor   4   2   3  53
 107 prop tor   4   2   3  54
 108 prop tor   4   2   3  55
 109 ben   4   2  52
 110 ben   4   5   6
 111 ben   4   5   7
 112 prop tor   4   5   7   8
 113 prop tor   4   5   7  45
 114 ben   4  43  42
 115 ben   4  43  44
 116 ben   5   4  43
 117 prop tor   5   4  43  42
 118 prop tor   5   4  43  44
 119 ben   5   7   8
 120 prop tor   5   7   8   9
 121 prop tor   5   7   8  56
 122 ben   5   7  45
 123 prop tor   5   7  45  42
 124 prop tor   5   7  45  46
 125 ben   6   5   7
 126 prop tor   6   5   7   8
 127 prop tor   6   5   7  45
 128 ben   7   8   9
 129 prop tor   7   8   9  10
 130 prop tor   7   8   9  57
 131 ben   7   8  56
 132 ben   7  45  42
 133 ben   7  45  46
 134 prop tor   7  45  46  10
 135 prop tor   7  45  46  39
 136 ben   8   7  45
 137 prop tor   8   7  45  42
 138 prop tor   8   7  45  46
 139 ben   8   9  10
 140 prop tor   8   9  10  11
 141 prop tor   8   9  10  46
 142 ben   8   9  57
 143 ben   9   8  56
 144 ben   9  10  11
 145 prop tor   9  10  11  12
 146 prop tor   9  10  11  47
 147 ben   9  10  46
 148 prop tor   9  10  46  39
 149 prop tor   9  10  46  45
 150 ben  10   9  57
 151 ben  10  11  12
 152 prop tor  10  11  12  13
 153 prop tor  10  11  12  58
 154 ben  10  11  47
 155 prop tor  10  11  47  38
 156 prop tor  10  11  47  48
 157 ben  10  46  39
 158 ben  10  46  45
 159 ben  11  10  46
 160 prop tor  11  10  46  39
 161 prop tor  11  10  46  45
 162 ben  11  12  13
 163 prop tor  11  12  13  14
 164 prop tor  11  12  13  59
 165 ben  11  12  58
 166 ben  11  47  38
 167 ben  11  47  48
 168 prop tor  11  47  48  14
 169 prop tor  11  47  48  35
 170 ben  12  11  47
 171 prop tor  12  11  47  38
 172 prop tor  12  11  47  48
 173 ben  12  13  14
 174 prop tor  12  13  14  15
 175 prop tor  12  13  14  48
 176 ben  12  13  59
 177 ben  13  12  58
 178 ben  13  14  15
 179 prop tor  13  14  15  16
 180 prop tor  13  14  15  17
 181 ben  13  14  48
 182 prop tor  13  14  48  35
 183 prop tor  13  14  48  47
 184 ben  14  13  59
 185 ben  14  15  16
 186 ben  14  15  17
 187 prop tor  14  15  17  18
 188 prop tor  14  15  17  33
 189 ben  14  48  35
 190 ben  14  48  47
 191 ben  15  14  48
 192 prop tor  15  14  48  35
 193 prop tor  15  14  48  47
 194 ben  15  17  18
 195 prop tor  15  17  18  19
 196 prop tor  15  17  18  60
 197 ben  15  17  33
 198 prop tor  15  17  33  34
 199 prop tor  15  17  33  35
 200 ben  16  15  17
 201 prop tor  16  15  17  18
 202 prop tor  16  15  17  33
 203 ben  17  18  19
 204 prop tor  17  18  19  20
 205 prop tor  17  18  19  61
 206 ben  17  18  60
 207 ben  17  33  34
 208 ben  17  33  35
 209 prop tor  17  33  35  36
 210 prop tor  17  33  35  48
 211 ben  18  17  33
 212 prop tor  18  17  33  34
 213 prop tor  18  17  33  35
 214 ben  18  19  20
 215 prop tor  18  19  20  21
 216 prop tor  18  19  20  62
 217 ben  18  19  61
 218 ben  19  18  60
 219 ben  19  20  21
 220 prop tor  19  20  21  22
 221 prop tor  19  20  21  63
 222 ben  19  20  62
 223 ben  20  19  61
 224 ben  20  21  22
 225 prop tor  20  21  22  23
 226 prop tor  20  21  22  32
 227 ben  20  21  63
 228 ben  21  20  62
 229 ben  21  22  23
 230 prop tor  21  22  23  24
 231 prop tor  21  22  23  64
 232 ben  21  22  32
 233 prop tor  21  22  32  31
 234 ben  22  21  63
 235 ben  22  23  24
 236 prop tor  22  23  24  25
 237 prop tor  22  23  24  31
 238 ben  22  23  64
 239 ben  22  32  31
 240 ben  23  22  32
 241 prop tor  23  22  32  31
 242 ben  23  24  25
 243 prop tor  23  24  25  26
 244 prop tor  23  24  25  65
 245 prop tor  23  24  25  66
 246 ben  23  24  31
 247 prop tor  23  24  31  30
 248 prop tor  23  24  31  32
 249 ben  24  23  64
 250 ben  24  25  26
 251 prop tor  24  25  26  27
 252 prop tor  24  25  26  30
 253 ben  24  25  65
 254 ben  24  25  66
 255 ben  24  31  30
 256 ben  24  31  32
 257 prop tor  24  31  32  22
 258 ben  25  24  31
 259 prop tor  25  24  31  30
 260 prop tor  25  24  31  32
 261 ben  25  26  27
 262 prop tor  25  26  27  28
 263 prop tor  25  26  27  67
 264 ben  25  26  30
 265 prop tor  25  26  30  29
 266 prop tor  25  26  30  31
 267 ben  26  25  65
 268 ben  26  25  66
 269 ben  26  27  28
 270 prop tor  26  27  28  29
 271 prop tor  26  27  28  68
 272 ben  26  27  67
 273 ben  26  30  29
 274 ben  26  30  31
 275 prop tor  26  30  31  24
 276 prop tor  26  30  31  32
 277 ben  27  26  30
 278 prop tor  27  26  30  29
 279 prop tor  27  26  30  31
 280 ben  27  28  29
 281 prop tor  27  28  29  30
 282 ben  27  28  68
 283 ben  28  27  67
 284 ben  28  29  30
 285 prop tor  28  29  30  26
 286 prop tor  28  29  30  31
 287 ben  29  28  68
 288 ben  29  30  31
 289 prop tor  29  30  31  24
 290 prop tor  29  30  31  32
 291 prop tor  30  26  27  28
 292 prop tor  30  26  27  67
 293 ben  30  31  32
 294 prop tor  30  31  32  22
 295 prop tor  31  24  25  26
 296 prop tor  31  24  25  65
 297 prop tor  31  24  25  66
 298 prop tor  32  22  23  24
 299 prop tor  32  22  23  64
 300 prop tor  33  17  18  19
 301 prop tor  33  17  18  60
 302 ben  33  35  36
 303 prop tor  33  35  36  37
 304 prop tor  33  35  36  69
 305 ben  33  35  48
 306 prop tor  33  35  48  14
 307 prop tor  33  35  48  47
 308 ben  34  33  35
 309 prop tor  34  33  35  36
 310 prop tor  34  33  35  48
 311 ben  35  36  37
 312 prop tor  35  36  37  38
 313 prop tor  35  36  37  70
 314 ben  35  36  69
 315 ben  35  48  47
 316 ben  36  35  48
 317 prop tor  36  35  48  14
 318 prop tor  36  35  48  47
 319 ben  36  37  38
 320 prop tor  36  37  38  39
 321 prop tor  36  37  38  47
 322 ben  36  37  70
 323 ben  37  36  69
 324 ben  37  38  39
 325 prop tor  37  38  39  40
 326 prop tor  37  38  39  46
 327 ben  37  38  47
 328 prop tor  37  38  47  11
 329 prop tor  37  38  47  48
 330 ben  38  37  70
 331 ben  38  39  40
 332 prop tor  38  39  40  41
 333 prop tor  38  39  40  71
 334 ben  38  39  46
 335 prop tor  38  39  46  10
 336 prop tor  38  39  46  45
 337 ben  38  47  48
 338 prop tor  38  47  48  14
 339 prop tor  38  47  48  35
 340 ben  39  38  47
 341 prop tor  39  38  47  11
 342 prop tor  39  38  47  48
 343 ben  39  40  41
 344 prop tor  39  40  41  42
 345 prop tor  39  40  41  72
 346 ben  39  40  71
 347 ben  39  46  45
 348 ben  40  39  46
 349 prop tor  40  39  46  10
 350 prop tor  40  39  46  45
 351 ben  40  41  42
 352 prop tor  40  41  42  43
 353 prop tor  40  41  42  45
 354 ben  40  41  72
 355 ben  41  40  71
 356 ben  41  42  43
 357 prop tor  41  42  43   4
 358 prop tor  41  42  43  44
 359 ben  41  42  45
 360 prop tor  41  42  45   7
 361 prop tor  41  42  45  46
 362 ben  42  41  72
 363 ben  42  43  44
 364 ben  42  45  46
 365 prop tor  42  45  46  10
 366 prop tor  42  45  46  39
 367 prop tor  43   4   5   6
 368 prop tor  43   4   5   7
 369 ben  43  42  45
 370 prop tor  43  42  45   7
 371 prop tor  43  42  45  46
 372 prop tor  45   7   8   9
 373 prop tor  45   7   8  56
 374 prop tor  45  42  43   4
 375 prop tor  45  42  43  44
 376 prop tor  46  10  11  12
 377 prop tor  46  10  11  47
 378 prop tor  46  39  40  41
 379 prop tor  46  39  40  71
 380 prop tor  47  11  12  13
 381 prop tor  47  11  12  58
 382 prop tor  47  38  39  40
 383 prop tor  47  38  39  46
 384 prop tor  48  14  15  16
 385 prop tor  48  14  15  17
 386 prop tor  48  35  36  37
 387 prop tor  48  35  36  69
 388 prop tor  49   1   2   3
 389 prop tor  49   1   2   4
 390 prop tor  49   1   2  52
 391 ben  49   1  50
 392 ben  49   1  51
 393 prop tor  50   1   2   3
 394 prop tor  50   1   2   4
 395 prop tor  50   1   2  52
 396 ben  50   1  51
 397 prop tor  51   1   2   3
 398 prop tor  51   1   2   4
 399 prop tor  51   1   2  52
 400 prop tor  52   2   3  53
 401 prop tor  52   2   3  54
 402 prop tor  52   2   3  55
 403 prop tor  52   2   4   5
 404 prop tor  52   2   4  43
 405 ben  53   3  54
 406 ben  53   3  55
 407 ben  54   3  55
 408 prop tor  56   8   9  10
 409 prop tor  56   8   9  57
 410 prop tor  57   9  10  11
 411 prop tor  57   9  10  46
 412 prop tor  58  12  13  14
 413 prop tor  58  12  13  59
 414 prop tor  59  13  14  15
 415 prop tor  59  13  14  48
 416 prop tor  60  18  19  20
 417 prop tor  60  18  19  61
 418 prop tor  61  19  20  21
 419 prop tor  61  19  20  62
 420 prop tor  62  20  21  22
 421 prop tor  62  20  21  63
 422 prop tor  63  21  22  23
 423 prop tor  63  21  22  32
 424 prop tor  64  23  24  25
 425 prop tor  64  23  24  31
 426 prop tor  65  25  26  27
 427 prop tor  65  25  26  30
 428 ben  65  25  66
 429 prop tor  66  25  26  27
 430 prop tor  66  25  26  30
 431 prop tor  67  27  28  29
 432 prop tor  67  27  28  68
 433 prop tor  68  28  29  30
 434 prop tor  69  36  37  38
 435 prop tor  69  36  37  70
 436 prop tor  70  37  38  39
 437 prop tor  70  37  38  47
 438 prop tor  71  40  41  42
 439 prop tor  71  40  41  72
 440 prop tor  72  41  42  43
 441 prop tor  72  41  42  45
 nber bend=             140
 nber lin bend=           0
 nber prop tor=         220
 nber impr tor=           0
 nber tot redund int=         441
 Eigenvalues of G in red int coords
    Gval -0.00000000 -0.00000000 -0.00000000 -0.00000000 -0.00000000 -0.00000000 -0.00000000 -0.00000000
    Gval -0.00000000 -0.00000000 -0.00000000 -0.00000000 -0.00000000 -0.00000000 -0.00000000 -0.00000000
    Gval -0.00000000 -0.00000000 -0.00000000 -0.00000000 -0.00000000 -0.00000000 -0.00000000 -0.00000000
    Gval -0.00000000 -0.00000000 -0.00000000 -0.00000000 -0.00000000 -0.00000000 -0.00000000 -0.00000000
    Gval -0.00000000 -0.00000000 -0.00000000 -0.00000000 -0.00000000 -0.00000000 -0.00000000 -0.00000000
    Gval -0.00000000 -0.00000000 -0.00000000 -0.00000000 -0.00000000 -0.00000000 -0.00000000 -0.00000000
    Gval -0.00000000 -0.00000000 -0.00000000 -0.00000000 -0.00000000 -0.00000000 -0.00000000 -0.00000000
    Gval -0.00000000 -0.00000000 -0.00000000 -0.00000000 -0.00000000 -0.00000000 -0.00000000 -0.00000000
    Gval -0.00000000 -0.00000000 -0.00000000 -0.00000000 -0.00000000 -0.00000000 -0.00000000 -0.00000000
    Gval -0.00000000 -0.00000000 -0.00000000 -0.00000000 -0.00000000 -0.00000000 -0.00000000 -0.00000000
    Gval -0.00000000 -0.00000000 -0.00000000 -0.00000000 -0.00000000 -0.00000000 -0.00000000 -0.00000000
    Gval -0.00000000 -0.00000000 -0.00000000 -0.00000000 -0.00000000 -0.00000000 -0.00000000 -0.00000000
    Gval -0.00000000 -0.00000000 -0.00000000 -0.00000000 -0.00000000 -0.00000000 -0.00000000 -0.00000000
    Gval -0.00000000 -0.00000000  0.00000000  0.00000000  0.00000000  0.00000000  0.00000000  0.00000000
    Gval  0.00000000  0.00000000  0.00000000  0.00000000  0.00000000  0.00000000  0.00000000  0.00000000
    Gval  0.00000000  0.00000000  0.00000000  0.00000000  0.00000000  0.00000000  0.00000000  0.00000000
    Gval  0.00000000  0.00000000  0.00000000  0.00000000  0.00000000  0.00000000  0.00000000  0.00000000
    Gval  0.00000000  0.00000000  0.00000000  0.00000000  0.00000000  0.00000000  0.00000000  0.00000000
    Gval  0.00000000  0.00000000  0.00000000  0.00000000  0.00000000  0.00000000  0.00000000  0.00000000
    Gval  0.00000000  0.00000000  0.00000000  0.00000000  0.00000000  0.00000000  0.00000000  0.00000000
    Gval  0.00000000  0.00000000  0.00000000  0.00000000  0.00000000  0.00000000  0.00000000  0.00000000
    Gval  0.00000000  0.00000000  0.00000000  0.00000000  0.00000000  0.00000000  0.00000000  0.00000000
    Gval  0.00000000  0.00000000  0.00000000  0.00000000  0.00000000  0.00000000  0.00000000  0.00000000
    Gval  0.00000000  0.00000000  0.00000000  0.00000000  0.00000000  0.00000000  0.00000000  0.00000000
    Gval  0.00000000  0.00000000  0.00000000  0.00000000  0.00000000  0.00000000  0.00000000  0.00000000
    Gval  0.00000000  0.00000000  0.00000000  0.00000000  0.00000000  0.00000000  0.00000000  0.00000000
    Gval  0.00000000  0.00000000  0.00000000  0.00000000  0.00000000  0.00000000  0.00000000  0.00000000
    Gval  0.00000000  0.00000000  0.00000000  0.00000000  0.00000000  0.00000000  0.00000000  0.00000000
    Gval  0.00000000  0.00000000  0.00000000  0.00000000  0.00000000  0.00000000  0.00000000  0.00000007
    Gval  0.00000019  0.00000055  0.00000104  0.00000128  0.00000234  0.00000277  0.00000328  0.00000472
    Gval  0.00000590  0.00000780  0.00000920  0.00001065  0.00001169  0.00001225  0.00001455  0.00001508
    Gval  0.00001654  0.00001689  0.00001789  0.00001835  0.00001994  0.00002115  0.00002232  0.00002421
    Gval  0.00002466  0.00002478  0.00002534  0.00002911  0.00002997  0.00003582  0.00003746  0.00003934
    Gval  0.00003995  0.00004143  0.00004661  0.00004888  0.00004934  0.00005157  0.00005265  0.00005428
    Gval  0.00005490  0.00005917  0.00006066  0.00006266  0.00006475  0.00006821  0.00007052  0.00007145
    Gval  0.00007352  0.00008139  0.00008167  0.00008257  0.00008439  0.00008696  0.00008917  0.00009283
    Gval  0.00009335  0.00009472  0.00009692  0.00010107  0.00010399  0.00010957  0.00011463  0.00011800
    Gval  0.00012245  0.00012832  0.00013412  0.00013581  0.00013711  0.00013998  0.00014076  0.00014917
    Gval  0.00015841  0.00015907  0.00016466  0.00017111  0.00017240  0.00018210  0.00019980  0.00020249
    Gval  0.00021273  0.00022225  0.00022769  0.00023151  0.00023948  0.00026331  0.00027517  0.00027739
    Gval  0.00028788  0.00028939  0.00029336  0.00029959  0.00030294  0.00032290  0.00034207  0.00035599
    Gval  0.00035729  0.00037214  0.00037508  0.00038411  0.00038493  0.00038790  0.00039130  0.00039596
    Gval  0.00041023  0.00041401  0.00042110  0.00042359  0.00043071  0.00043556  0.00044116  0.00044236
    Gval  0.00046389  0.00046690  0.00046981  0.00048270  0.00049354  0.00052887  0.00053413  0.00053726
    Gval  0.00055377  0.00055456  0.00055595  0.00055702  0.00058331  0.00058582  0.00059142  0.00059676
    Gval  0.00059850  0.00059923  0.00059956  0.00059984  0.00060183  0.00060221  0.00060364  0.00061627
    Gval  0.00062400  0.00062956  0.00064136  0.00064488  0.00064561  0.00064744  0.00065582  0.00066718
    Gval  0.00068183  0.00069718  0.00070324  0.00079180  0.00082920  0.00091809  0.00093918  0.00100249
    Gval  0.00105829  0.00108158  0.00108590  0.00109386  0.00109482  0.00109551  0.00109608  0.00112432
    Gval  0.00114061  0.00114560  0.00116452  0.00116504  0.00116710  0.00116761  0.00116925  0.00116981
    Gval  0.00118226  0.00118473  0.00120089  0.00120525  0.00127288  0.00129285  0.00133658  0.00136808
    Gval  0.00138467  0.00149798  0.00154534  0.00166197  0.00172363  0.00176834  0.00191617  0.00195225
    Gval  0.00208384  0.00227807  0.00234166  0.00251926  0.00252216  0.00255680  0.00260959  0.00266092
    Gval  0.00277941  0.00288223  0.00292445  0.00296423  0.00302258  0.00302630  0.00304254  0.00308263
    Gval  0.00309298  0.00366522  0.00366566  0.00366927  0.00371295  0.00371493  0.00374084  0.00393550
    Gval  0.00408249
  7.171579399333688E-008  7.171579399333688E-008
  1.881214486964417E-007  7.171579399333688E-008
  5.453612281931286E-007  7.171579399333688E-008
  1.044619850581077E-006  7.171579399333688E-008
  1.282413786232121E-006  7.171579399333688E-008
  2.338400377323265E-006  7.171579399333688E-008
  2.773964434535918E-006  7.171579399333688E-008
  3.276173592999447E-006  7.171579399333688E-008
  4.715493185100532E-006  7.171579399333688E-008
  5.895111054131235E-006  7.171579399333688E-008
  7.803029635750061E-006  7.171579399333688E-008
  9.202205904594525E-006  7.171579399333688E-008
  1.064975812946475E-005  7.171579399333688E-008
  1.169429243497705E-005  7.171579399333688E-008
  1.224718285599676E-005  7.171579399333688E-008
  1.455493924328579E-005  7.171579399333688E-008
  1.508129774575220E-005  7.171579399333688E-008
  1.653890661876095E-005  7.171579399333688E-008
  1.689440751330072E-005  7.171579399333688E-008
  1.789028928588718E-005  7.171579399333688E-008
  1.835416452915358E-005  7.171579399333688E-008
  1.994062553751957E-005  7.171579399333688E-008
  2.115206721369899E-005  7.171579399333688E-008
  2.231976678114176E-005  7.171579399333688E-008
  2.420600411108274E-005  7.171579399333688E-008
  2.465664729404539E-005  7.171579399333688E-008
  2.478137632996755E-005  7.171579399333688E-008
  2.533711640701455E-005  7.171579399333688E-008
  2.910913228557886E-005  7.171579399333688E-008
  2.997491959641716E-005  7.171579399333688E-008
  3.581576636145017E-005  7.171579399333688E-008
  3.745983649638895E-005  7.171579399333688E-008
  3.934179492318294E-005  7.171579399333688E-008
  3.994720769823732E-005  7.171579399333688E-008
  4.143279254213486E-005  7.171579399333688E-008
  4.660767676391218E-005  7.171579399333688E-008
  4.888434163359944E-005  7.171579399333688E-008
  4.933538975852756E-005  7.171579399333688E-008
  5.156749182185245E-005  7.171579399333688E-008
  5.264828039707209E-005  7.171579399333688E-008
  5.428378712624913E-005  7.171579399333688E-008
  5.489542232893751E-005  7.171579399333688E-008
  5.917021040951808E-005  7.171579399333688E-008
  6.065946544414985E-005  7.171579399333688E-008
  6.265688278708943E-005  7.171579399333688E-008
  6.475131423971626E-005  7.171579399333688E-008
  6.821238194908909E-005  7.171579399333688E-008
  7.051637145196877E-005  7.171579399333688E-008
  7.145242853401970E-005  7.171579399333688E-008
  7.351549189798375E-005  7.171579399333688E-008
  8.138880873136738E-005  7.171579399333688E-008
  8.167308123153109E-005  7.171579399333688E-008
  8.256932335140192E-005  7.171579399333688E-008
  8.438859488078273E-005  7.171579399333688E-008
  8.696339510967710E-005  7.171579399333688E-008
  8.916590622524088E-005  7.171579399333688E-008
  9.282869542920814E-005  7.171579399333688E-008
  9.334532833730004E-005  7.171579399333688E-008
  9.471657013712561E-005  7.171579399333688E-008
  9.692342429931764E-005  7.171579399333688E-008
  1.010671978165281E-004  7.171579399333688E-008
  1.039860783237864E-004  7.171579399333688E-008
  1.095665703659270E-004  7.171579399333688E-008
  1.146257395220714E-004  7.171579399333688E-008
  1.179978975361974E-004  7.171579399333688E-008
  1.224543633254067E-004  7.171579399333688E-008
  1.283213679346570E-004  7.171579399333688E-008
  1.341242507935215E-004  7.171579399333688E-008
  1.358100104354235E-004  7.171579399333688E-008
  1.371101721321084E-004  7.171579399333688E-008
  1.399791937294853E-004  7.171579399333688E-008
  1.407649133478266E-004  7.171579399333688E-008
  1.491652078978633E-004  7.171579399333688E-008
  1.584077943007577E-004  7.171579399333688E-008
  1.590667360888038E-004  7.171579399333688E-008
  1.646631800554031E-004  7.171579399333688E-008
  1.711130490959868E-004  7.171579399333688E-008
  1.723983372867662E-004  7.171579399333688E-008
  1.820958946126570E-004  7.171579399333688E-008
  1.998031685055207E-004  7.171579399333688E-008
  2.024855083614896E-004  7.171579399333688E-008
  2.127292065729098E-004  7.171579399333688E-008
  2.222483422258810E-004  7.171579399333688E-008
  2.276941062896066E-004  7.171579399333688E-008
  2.315142853956050E-004  7.171579399333688E-008
  2.394760627549375E-004  7.171579399333688E-008
  2.633119849766712E-004  7.171579399333688E-008
  2.751736769029043E-004  7.171579399333688E-008
  2.773888771162734E-004  7.171579399333688E-008
  2.878753583634159E-004  7.171579399333688E-008
  2.893929690587607E-004  7.171579399333688E-008
  2.933560952470861E-004  7.171579399333688E-008
  2.995856989746429E-004  7.171579399333688E-008
  3.029442382961473E-004  7.171579399333688E-008
  3.228987185514717E-004  7.171579399333688E-008
  3.420692749481482E-004  7.171579399333688E-008
  3.559935124067835E-004  7.171579399333688E-008
  3.572866543018874E-004  7.171579399333688E-008
  3.721449468604696E-004  7.171579399333688E-008
  3.750785371707271E-004  7.171579399333688E-008
  3.841065358057836E-004  7.171579399333688E-008
  3.849311776523693E-004  7.171579399333688E-008
  3.878960312062284E-004  7.171579399333688E-008
  3.913048310189395E-004  7.171579399333688E-008
  3.959638008338117E-004  7.171579399333688E-008
  4.102266939935815E-004  7.171579399333688E-008
  4.140080509055936E-004  7.171579399333688E-008
  4.210978346754505E-004  7.171579399333688E-008
  4.235903640384115E-004  7.171579399333688E-008
  4.307061620518171E-004  7.171579399333688E-008
  4.355645394582651E-004  7.171579399333688E-008
  4.411587861146616E-004  7.171579399333688E-008
  4.423551182526100E-004  7.171579399333688E-008
  4.638935609872258E-004  7.171579399333688E-008
  4.669014305377034E-004  7.171579399333688E-008
  4.698107753659219E-004  7.171579399333688E-008
  4.826987202115930E-004  7.171579399333688E-008
  4.935413949262327E-004  7.171579399333688E-008
  5.288707785344181E-004  7.171579399333688E-008
  5.341304319576820E-004  7.171579399333688E-008
  5.372639314700182E-004  7.171579399333688E-008
  5.537664630320751E-004  7.171579399333688E-008
  5.545629542982142E-004  7.171579399333688E-008
  5.559533086949470E-004  7.171579399333688E-008
  5.570193397570259E-004  7.171579399333688E-008
  5.833078165567294E-004  7.171579399333688E-008
  5.858217286409306E-004  7.171579399333688E-008
  5.914194673348945E-004  7.171579399333688E-008
  5.967601971399757E-004  7.171579399333688E-008
  5.985046357437307E-004  7.171579399333688E-008
  5.992291564810984E-004  7.171579399333688E-008
  5.995556488569873E-004  7.171579399333688E-008
  5.998425022250268E-004  7.171579399333688E-008
  6.018345981820216E-004  7.171579399333688E-008
  6.022108360580308E-004  7.171579399333688E-008
  6.036364471225221E-004  7.171579399333688E-008
  6.162672077861185E-004  7.171579399333688E-008
  6.239955477671366E-004  7.171579399333688E-008
  6.295582434783504E-004  7.171579399333688E-008
  6.413574751392458E-004  7.171579399333688E-008
  6.448803701523193E-004  7.171579399333688E-008
  6.456143712917546E-004  7.171579399333688E-008
  6.474437938162848E-004  7.171579399333688E-008
  6.558158153467952E-004  7.171579399333688E-008
  6.671767538601812E-004  7.171579399333688E-008
  6.818323138046634E-004  7.171579399333688E-008
  6.971778057238665E-004  7.171579399333688E-008
  7.032382224124187E-004  7.171579399333688E-008
  7.917976383735848E-004  7.171579399333688E-008
  8.291986509413138E-004  7.171579399333688E-008
  9.180873176568165E-004  7.171579399333688E-008
  9.391812208652440E-004  7.171579399333688E-008
  1.002490153747130E-003  7.171579399333688E-008
  1.058288884236620E-003  7.171579399333688E-008
  1.081575356920808E-003  7.171579399333688E-008
  1.085904362761619E-003  7.171579399333688E-008
  1.093860729084999E-003  7.171579399333688E-008
  1.094816178734373E-003  7.171579399333688E-008
  1.095514538900332E-003  7.171579399333688E-008
  1.096078370902592E-003  7.171579399333688E-008
  1.124322035241328E-003  7.171579399333688E-008
  1.140613292491828E-003  7.171579399333688E-008
  1.145604927274323E-003  7.171579399333688E-008
  1.164517510529776E-003  7.171579399333688E-008
  1.165040766499449E-003  7.171579399333688E-008
  1.167098459909350E-003  7.171579399333688E-008
  1.167614196662110E-003  7.171579399333688E-008
  1.169253368610254E-003  7.171579399333688E-008
  1.169808211108444E-003  7.171579399333688E-008
  1.182263816670080E-003  7.171579399333688E-008
  1.184733635839835E-003  7.171579399333688E-008
  1.200888542032340E-003  7.171579399333688E-008
  1.205254576176785E-003  7.171579399333688E-008
  1.272884394303111E-003  7.171579399333688E-008
  1.292852760815666E-003  7.171579399333688E-008
  1.336582926383728E-003  7.171579399333688E-008
  1.368079136335234E-003  7.171579399333688E-008
  1.384672910551621E-003  7.171579399333688E-008
  1.497978405131069E-003  7.171579399333688E-008
  1.545340992268414E-003  7.171579399333688E-008
  1.661973796260321E-003  7.171579399333688E-008
  1.723631494869985E-003  7.171579399333688E-008
  1.768339248993742E-003  7.171579399333688E-008
  1.916172761709169E-003  7.171579399333688E-008
  1.952252458485971E-003  7.171579399333688E-008
  2.083840567413148E-003  7.171579399333688E-008
  2.278072741283701E-003  7.171579399333688E-008
  2.341660750628785E-003  7.171579399333688E-008
  2.519257427285249E-003  7.171579399333688E-008
  2.522162755098211E-003  7.171579399333688E-008
  2.556802307843695E-003  7.171579399333688E-008
  2.609587980071216E-003  7.171579399333688E-008
  2.660924606018112E-003  7.171579399333688E-008
  2.779405774322670E-003  7.171579399333688E-008
  2.882227401133643E-003  7.171579399333688E-008
  2.924445800718942E-003  7.171579399333688E-008
  2.964234599364673E-003  7.171579399333688E-008
  3.022576040761111E-003  7.171579399333688E-008
  3.026304772653463E-003  7.171579399333688E-008
  3.042543647329591E-003  7.171579399333688E-008
  3.082631347028457E-003  7.171579399333688E-008
  3.092979583318458E-003  7.171579399333688E-008
  3.665224102309413E-003  7.171579399333688E-008
  3.665658389918073E-003  7.171579399333688E-008
  3.669266038104461E-003  7.171579399333688E-008
  3.712950706504391E-003  7.171579399333688E-008
  3.714934021699082E-003  7.171579399333688E-008
  3.740838240715476E-003  7.171579399333688E-008
  3.935502968564173E-003  7.171579399333688E-008
  4.082486554493925E-003  7.171579399333688E-008
 cut=1d-8, nber non-redundant internal coords=         210
 Check on Eigenvals of non-red overlap matrix:
  0.00000007  0.00000019  0.00000055  0.00000104  0.00000128  0.00000234  0.00000277  0.00000328
  0.00000472  0.00000590  0.00000780  0.00000920  0.00001065  0.00001169  0.00001225  0.00001455
  0.00001508  0.00001654  0.00001689  0.00001789  0.00001835  0.00001994  0.00002115  0.00002232
  0.00002421  0.00002466  0.00002478  0.00002534  0.00002911  0.00002997  0.00003582  0.00003746
  0.00003934  0.00003995  0.00004143  0.00004661  0.00004888  0.00004934  0.00005157  0.00005265
  0.00005428  0.00005490  0.00005917  0.00006066  0.00006266  0.00006475  0.00006821  0.00007052
  0.00007145  0.00007352  0.00008139  0.00008167  0.00008257  0.00008439  0.00008696  0.00008917
  0.00009283  0.00009335  0.00009472  0.00009692  0.00010107  0.00010399  0.00010957  0.00011463
  0.00011800  0.00012245  0.00012832  0.00013412  0.00013581  0.00013711  0.00013998  0.00014076
  0.00014917  0.00015841  0.00015907  0.00016466  0.00017111  0.00017240  0.00018210  0.00019980
  0.00020249  0.00021273  0.00022225  0.00022769  0.00023151  0.00023948  0.00026331  0.00027517
  0.00027739  0.00028788  0.00028939  0.00029336  0.00029959  0.00030294  0.00032290  0.00034207
  0.00035599  0.00035729  0.00037214  0.00037508  0.00038411  0.00038493  0.00038790  0.00039130
  0.00039596  0.00041023  0.00041401  0.00042110  0.00042359  0.00043071  0.00043556  0.00044116
  0.00044236  0.00046389  0.00046690  0.00046981  0.00048270  0.00049354  0.00052887  0.00053413
  0.00053726  0.00055377  0.00055456  0.00055595  0.00055702  0.00058331  0.00058582  0.00059142
  0.00059676  0.00059850  0.00059923  0.00059956  0.00059984  0.00060183  0.00060221  0.00060364
  0.00061627  0.00062400  0.00062956  0.00064136  0.00064488  0.00064561  0.00064744  0.00065582
  0.00066718  0.00068183  0.00069718  0.00070324  0.00079180  0.00082920  0.00091809  0.00093918
  0.00100249  0.00105829  0.00108158  0.00108590  0.00109386  0.00109482  0.00109551  0.00109608
  0.00112432  0.00114061  0.00114560  0.00116452  0.00116504  0.00116710  0.00116761  0.00116925
  0.00116981  0.00118226  0.00118473  0.00120089  0.00120525  0.00127288  0.00129285  0.00133658
  0.00136808  0.00138467  0.00149798  0.00154534  0.00166197  0.00172363  0.00176834  0.00191617
  0.00195225  0.00208384  0.00227807  0.00234166  0.00251926  0.00252216  0.00255680  0.00260959
  0.00266092  0.00277941  0.00288223  0.00292445  0.00296423  0.00302258  0.00302630  0.00304254
  0.00308263  0.00309298  0.00366522  0.00366566  0.00366927  0.00371295  0.00371493  0.00374084
  0.00393550  0.00408249
 Checking for correct frequencies
 recalc frequencies=
    -0.0   -0.0    0.0    0.0    0.0    0.0    4.6   12.3   16.0   23.1
    26.6   33.4   45.7   54.8   58.5   75.2   86.9   87.5   97.3  103.1
   109.0  140.2  151.8  167.3  171.8  187.0  193.7  197.8  211.9  213.1
   234.6  235.6  236.1  246.4  254.0  256.5  259.0  290.2  294.2  298.0
   316.2  339.0  357.4  366.2  379.2  392.9  401.7  416.6  428.0  434.5
   437.8  443.5  449.3  449.8  453.0  463.7  467.3  484.4  494.5  500.3
   502.8  504.9  515.2  516.3  535.8  546.0  569.8  578.8  580.5  582.4
   590.0  608.3  622.9  625.4  638.2  646.9  661.4  661.9  668.0  698.3
   707.1  710.9  713.7  727.2  737.5  747.2  754.4  765.7  770.9  786.4
   799.9  805.9  816.5  820.9  822.4  825.2  830.1  834.4  845.9  849.4
   859.0  882.3  893.4  909.6  926.3  929.9  934.4  939.3  944.3  947.8
   956.1  958.2  974.5  977.7  978.1  987.6  990.6 1002.4 1008.4 1019.0
  1045.9 1069.7 1088.5 1094.7 1111.9 1121.0 1135.1 1148.7 1150.7 1155.4
  1166.7 1174.7 1176.3 1190.5 1201.4 1208.9 1212.7 1215.0 1228.2 1236.7
  1249.1 1254.4 1266.4 1276.8 1282.1 1295.9 1298.4 1306.3 1324.2 1328.0
  1355.4 1361.8 1362.4 1367.9 1371.6 1380.5 1384.0 1393.4 1398.3 1398.5
  1401.7 1412.8 1426.7 1431.6 1438.8 1440.2 1456.9 1461.5 1472.6 1473.6
  1481.6 1484.4 1484.5 1496.7 1506.5 1523.5 1529.2 1536.8 1543.9 1555.9
  1565.1 1575.8 1588.6 1598.3 1615.9 1619.0 1632.4 1644.3 1687.0 1723.9
  1790.6 1802.9 3030.7 3031.2 3035.2 3059.6 3088.0 3091.2 3110.2 3121.5
  3132.2 3142.0 3156.1 3161.3 3194.5 3195.1 3199.9 3200.9 3201.4 3203.9
  3210.0 3210.5 3226.7 3226.9 3247.7 3252.3
 recalc symmetries=
                                                                       
                                                                       
                                                                       
                                                                       
                                                                       
                                                                       
                                                                       
                                                                       
                                                                       
                                                                       
                                                                       
                                                                       
                                                                       
                                                                       
                                                                       
                                                                       
                                                                       
                                                                       
                                                                       
                                                                       
                                                                       
                                           
 recalc freqs check OK
 Zero-point lengths:
 10.0000 10.0000 10.0000 10.0000 10.0000 10.0000115.4071 70.7326 61.8882 51.5776
 48.0602 42.8881 36.6816 33.4836 32.4222 28.5880 26.6006 26.4992 25.1347 24.4163
 23.7405 20.9362 20.1207 19.1681 18.9128 18.1282 17.8137 17.6250 17.0323 16.9839
 16.1860 16.1514 16.1337 15.7927 15.5557 15.4790 15.4055 14.5528 14.4535 14.3616
 13.9406 13.4650 13.1139 12.9557 12.7304 12.5072 12.3689 12.1457 11.9826 11.8927
 11.8480 11.7725 11.6960 11.6897 11.6477 11.5130 11.4687 11.2640 11.1487 11.0833
 11.0560 11.0331 10.9222 10.9110 10.7101 10.6095 10.3856 10.3048 10.2899 10.2728
 10.2067 10.0517  9.9330  9.9135  9.8135  9.7469  9.6399  9.6361  9.5922  9.3817
  9.3229  9.2979  9.2797  9.1931  9.1290  9.0693  9.0259  8.9591  8.9287  8.8406
  8.7656  8.7326  8.6762  8.6529  8.6445  8.6299  8.6047  8.5823  8.5238  8.5062
  8.4588  8.3463  8.2940  8.2199  8.1456  8.1299  8.1103  8.0889  8.0677  8.0524
  8.0178  8.0087  7.9416  7.9284  7.9268  7.8886  7.8767  7.8301  7.8070  7.7661
  7.6655  7.5798  7.5140  7.4928  7.4346  7.4044  7.3582  7.3147  7.3082  7.2933
  7.2578  7.2333  7.2283  7.1850  7.1523  7.1301  7.1189  7.1123  7.0740  7.0496
  7.0146  6.9998  6.9664  6.9380  6.9235  6.8868  6.8799  6.8592  6.8128  6.8030
  6.7339  6.7181  6.7166  6.7029  6.6940  6.6723  6.6640  6.6414  6.6298  6.6293
  6.6218  6.5955  6.5635  6.5522  6.5358  6.5326  6.4949  6.4849  6.4604  6.4580
  6.4406  6.4346  6.4345  6.4081  6.3873  6.3515  6.3397  6.3239  6.3095  6.2851
  6.2665  6.2453  6.2199  6.2011  6.1672  6.1613  6.1359  6.1137  6.0358  5.9710
  5.8586  5.8386  4.5032  4.5029  4.4999  4.4819  4.4612  4.4589  4.4453  4.4373
  4.4297  4.4228  4.4129  4.4093  4.3863  4.3858  4.3825  4.3819  4.3815  4.3798
  4.3757  4.3753  4.3643  4.3642  4.3502  4.3471
 highest evec of mol 1
  0.0000 -0.0000  0.0000
 -0.0000 -0.0000  0.0000
 -0.0000 -0.0000  0.0000
 -0.0000 -0.0000 -0.0000
  0.0000 -0.0000  0.0000
 -0.0000  0.0000 -0.0000
 -0.0000 -0.0000 -0.0000
  0.0000 -0.0000  0.0000
 -0.0000  0.0000 -0.0001
  0.0000 -0.0000  0.0001
 -0.0001  0.0000 -0.0001
  0.0001 -0.0000  0.0002
 -0.0000  0.0002 -0.0001
  0.0002  0.0001  0.0006
 -0.0009 -0.0029 -0.0010
 -0.0000  0.0043 -0.0021
  0.0000  0.0025 -0.0012
 -0.0012  0.0093 -0.0075
  0.0532  0.2816  0.0080
  0.0036  0.0068  0.0063
  0.0006  0.0034  0.0001
 -0.0001 -0.0002 -0.0002
 -0.0002  0.0001  0.0000
  0.0000 -0.0000  0.0000
 -0.0000  0.0000  0.0000
 -0.0000  0.0000  0.0000
  0.0000 -0.0000 -0.0000
  0.0000 -0.0000  0.0000
  0.0000 -0.0000 -0.0000
  0.0000  0.0000 -0.0000
 -0.0000 -0.0000  0.0000
  0.0000 -0.0000 -0.0000
  0.0004  0.0003  0.0008
  0.0001  0.0001  0.0002
 -0.0001  0.0003 -0.0003
  0.0000  0.0001  0.0001
  0.0000  0.0001 -0.0000
  0.0000 -0.0001  0.0001
 -0.0000  0.0000 -0.0001
  0.0000  0.0000  0.0000
 -0.0000  0.0000 -0.0000
  0.0000 -0.0000  0.0000
 -0.0000  0.0000 -0.0000
  0.0000  0.0000  0.0000
  0.0000 -0.0000  0.0000
 -0.0000 -0.0001 -0.0000
  0.0000 -0.0000  0.0001
 -0.0001 -0.0003 -0.0001
 -0.0000  0.0000 -0.0000
  0.0000  0.0000  0.0000
 -0.0000 -0.0000  0.0000
  0.0000  0.0000  0.0000
  0.0000  0.0000  0.0000
 -0.0000  0.0000 -0.0000
  0.0000 -0.0000  0.0000
  0.0000  0.0001 -0.0000
  0.0000  0.0001  0.0001
  0.0000  0.0002 -0.0001
 -0.0001 -0.0001 -0.0002
 -0.0096 -0.0547  0.0006
 -0.1717 -0.9391 -0.0115
 -0.0079 -0.0513  0.0030
 -0.0031 -0.0115 -0.0028
  0.0007 -0.0003 -0.0001
 -0.0000 -0.0000 -0.0000
  0.0000  0.0000 -0.0000
 -0.0000 -0.0000  0.0000
 -0.0000  0.0000 -0.0000
 -0.0000 -0.0002  0.0001
 -0.0001 -0.0001 -0.0001
 -0.0000 -0.0001  0.0000
  0.0000  0.0000  0.0000
 generating redundant internal coords
         300        3600          72
 Adding extra bonds for z output only
           6           6           6           7           6           8
           6           6           6           6           6           6
           6           6           6           8           7           6
           6           6           6           6           6           6
           6           6           6           6          16           6
           6          16           6           8           6           6
           6           6           6           6           6           6
           6           8           6           6           6           6
           1           1           1           1           1           1
           1           1           1           1           1           1
           1           1           1           1           1           1
           1           1           1           1           1           1
 search for int coords
   1 str   2   1   1.533
   2 str   3   2   1.533
   3 str   4   2   1.494
   4 str   5   4   1.411
   5 str   6   5   1.223
   6 str   7   5   1.473
   7 str   8   7   1.394
   8 str   9   8   1.383
   9 str  10   9   1.412
  10 str  11  10   1.448
  11 str  12  11   1.418
  12 str  13  12   1.370
  13 str  14  13   1.408
  14 str  15  14   1.442
  15 str  16  15   1.213
  16 str  17  15   1.475
  17 str  18  17   1.344
  18 str  19  18   1.397
  19 str  20  19   1.408
  20 str  21  20   1.376
  21 str  22  21   1.465
  22 str  23  22   1.374
  23 str  24  23   1.417
  24 str  25  24   1.515
  25 str  26  25   1.515
  26 str  27  26   1.418
  27 str  28  27   1.369
  28 str  29  28   1.746
  29 str  30  26   1.382
  30 str  30  29   1.727
  31 str  31  24   1.380
  32 str  31  30   1.444
  33 str  32  22   1.768
  34 str  32  31   1.728
  35 str  33  17   1.509
  36 str  34  33   1.211
  37 str  35  33   1.430
  38 str  36  35   1.411
  39 str  37  36   1.368
  40 str  38  37   1.420
  41 str  39  38   1.445
  42 str  40  39   1.413
  43 str  41  40   1.383
  44 str  42  41   1.394
  45 str  43   4   1.404
  46 str  43  42   1.473
  47 str  44  43   1.224
  48 str  45   7   1.411
  49 str  45  42   1.411
  50 str  46  10   1.426
  51 str  46  39   1.428
  52 str  46  45   1.433
  53 str  47  11   1.430
  54 str  47  38   1.431
  55 str  48  14   1.415
  56 str  48  35   1.419
  57 str  48  47   1.444
  58 str  49   1   1.094
  59 str  50   1   1.089
  60 str  51   1   1.093
  61 str  52   2   1.088
  62 str  53   3   1.089
  63 str  54   3   1.094
  64 str  55   3   1.093
  65 str  56   8   1.083
  66 str  57   9   1.081
  67 str  58  12   1.080
  68 str  59  13   1.082
  69 str  60  18   1.087
  70 str  61  19   1.078
  71 str  62  20   1.087
  72 str  63  21   1.089
  73 str  64  23   1.082
  74 str  65  25   1.096
  75 str  66  25   1.096
  76 str  67  27   1.082
  77 str  68  28   1.079
  78 str  69  36   1.082
  79 str  70  37   1.080
  80 str  71  40   1.081
  81 str  72  41   1.083
 nber stretches=          81
  82 ben   1   2   3
  83 prop tor   1   2   3  53
  84 prop tor   1   2   3  54
  85 prop tor   1   2   3  55
  86 ben   1   2   4
  87 prop tor   1   2   4   5
  88 prop tor   1   2   4  43
  89 ben   1   2  52
  90 ben   2   1  49
  91 ben   2   1  50
  92 ben   2   1  51
  93 ben   2   3  53
  94 ben   2   3  54
  95 ben   2   3  55
  96 ben   2   4   5
  97 prop tor   2   4   5   6
  98 prop tor   2   4   5   7
  99 ben   2   4  43
 100 prop tor   2   4  43  42
 101 prop tor   2   4  43  44
 102 ben   3   2   4
 103 prop tor   3   2   4   5
 104 prop tor   3   2   4  43
 105 ben   3   2  52
 106 prop tor   4   2   3  53
 107 prop tor   4   2   3  54
 108 prop tor   4   2   3  55
 109 ben   4   2  52
 110 ben   4   5   6
 111 ben   4   5   7
 112 prop tor   4   5   7   8
 113 prop tor   4   5   7  45
 114 ben   4  43  42
 115 ben   4  43  44
 116 ben   5   4  43
 117 prop tor   5   4  43  42
 118 prop tor   5   4  43  44
 119 ben   5   7   8
 120 prop tor   5   7   8   9
 121 prop tor   5   7   8  56
 122 ben   5   7  45
 123 prop tor   5   7  45  42
 124 prop tor   5   7  45  46
 125 ben   6   5   7
 126 prop tor   6   5   7   8
 127 prop tor   6   5   7  45
 128 ben   7   8   9
 129 prop tor   7   8   9  10
 130 prop tor   7   8   9  57
 131 ben   7   8  56
 132 ben   7  45  42
 133 ben   7  45  46
 134 prop tor   7  45  46  10
 135 prop tor   7  45  46  39
 136 ben   8   7  45
 137 prop tor   8   7  45  42
 138 prop tor   8   7  45  46
 139 ben   8   9  10
 140 prop tor   8   9  10  11
 141 prop tor   8   9  10  46
 142 ben   8   9  57
 143 ben   9   8  56
 144 ben   9  10  11
 145 prop tor   9  10  11  12
 146 prop tor   9  10  11  47
 147 ben   9  10  46
 148 prop tor   9  10  46  39
 149 prop tor   9  10  46  45
 150 ben  10   9  57
 151 ben  10  11  12
 152 prop tor  10  11  12  13
 153 prop tor  10  11  12  58
 154 ben  10  11  47
 155 prop tor  10  11  47  38
 156 prop tor  10  11  47  48
 157 ben  10  46  39
 158 ben  10  46  45
 159 ben  11  10  46
 160 prop tor  11  10  46  39
 161 prop tor  11  10  46  45
 162 ben  11  12  13
 163 prop tor  11  12  13  14
 164 prop tor  11  12  13  59
 165 ben  11  12  58
 166 ben  11  47  38
 167 ben  11  47  48
 168 prop tor  11  47  48  14
 169 prop tor  11  47  48  35
 170 ben  12  11  47
 171 prop tor  12  11  47  38
 172 prop tor  12  11  47  48
 173 ben  12  13  14
 174 prop tor  12  13  14  15
 175 prop tor  12  13  14  48
 176 ben  12  13  59
 177 ben  13  12  58
 178 ben  13  14  15
 179 prop tor  13  14  15  16
 180 prop tor  13  14  15  17
 181 ben  13  14  48
 182 prop tor  13  14  48  35
 183 prop tor  13  14  48  47
 184 ben  14  13  59
 185 ben  14  15  16
 186 ben  14  15  17
 187 prop tor  14  15  17  18
 188 prop tor  14  15  17  33
 189 ben  14  48  35
 190 ben  14  48  47
 191 ben  15  14  48
 192 prop tor  15  14  48  35
 193 prop tor  15  14  48  47
 194 ben  15  17  18
 195 prop tor  15  17  18  19
 196 prop tor  15  17  18  60
 197 ben  15  17  33
 198 prop tor  15  17  33  34
 199 prop tor  15  17  33  35
 200 ben  16  15  17
 201 prop tor  16  15  17  18
 202 prop tor  16  15  17  33
 203 ben  17  18  19
 204 prop tor  17  18  19  20
 205 prop tor  17  18  19  61
 206 ben  17  18  60
 207 ben  17  33  34
 208 ben  17  33  35
 209 prop tor  17  33  35  36
 210 prop tor  17  33  35  48
 211 ben  18  17  33
 212 prop tor  18  17  33  34
 213 prop tor  18  17  33  35
 214 ben  18  19  20
 215 prop tor  18  19  20  21
 216 prop tor  18  19  20  62
 217 ben  18  19  61
 218 ben  19  18  60
 219 ben  19  20  21
 220 prop tor  19  20  21  22
 221 prop tor  19  20  21  63
 222 ben  19  20  62
 223 ben  20  19  61
 224 ben  20  21  22
 225 prop tor  20  21  22  23
 226 prop tor  20  21  22  32
 227 ben  20  21  63
 228 ben  21  20  62
 229 ben  21  22  23
 230 prop tor  21  22  23  24
 231 prop tor  21  22  23  64
 232 ben  21  22  32
 233 prop tor  21  22  32  31
 234 ben  22  21  63
 235 ben  22  23  24
 236 prop tor  22  23  24  25
 237 prop tor  22  23  24  31
 238 ben  22  23  64
 239 ben  22  32  31
 240 ben  23  22  32
 241 prop tor  23  22  32  31
 242 ben  23  24  25
 243 prop tor  23  24  25  26
 244 prop tor  23  24  25  65
 245 prop tor  23  24  25  66
 246 ben  23  24  31
 247 prop tor  23  24  31  30
 248 prop tor  23  24  31  32
 249 ben  24  23  64
 250 ben  24  25  26
 251 prop tor  24  25  26  27
 252 prop tor  24  25  26  30
 253 ben  24  25  65
 254 ben  24  25  66
 255 ben  24  31  30
 256 ben  24  31  32
 257 prop tor  24  31  32  22
 258 ben  25  24  31
 259 prop tor  25  24  31  30
 260 prop tor  25  24  31  32
 261 ben  25  26  27
 262 prop tor  25  26  27  28
 263 prop tor  25  26  27  67
 264 ben  25  26  30
 265 prop tor  25  26  30  29
 266 prop tor  25  26  30  31
 267 ben  26  25  65
 268 ben  26  25  66
 269 ben  26  27  28
 270 prop tor  26  27  28  29
 271 prop tor  26  27  28  68
 272 ben  26  27  67
 273 ben  26  30  29
 274 ben  26  30  31
 275 prop tor  26  30  31  24
 276 prop tor  26  30  31  32
 277 ben  27  26  30
 278 prop tor  27  26  30  29
 279 prop tor  27  26  30  31
 280 ben  27  28  29
 281 prop tor  27  28  29  30
 282 ben  27  28  68
 283 ben  28  27  67
 284 ben  28  29  30
 285 prop tor  28  29  30  26
 286 prop tor  28  29  30  31
 287 ben  29  28  68
 288 ben  29  30  31
 289 prop tor  29  30  31  24
 290 prop tor  29  30  31  32
 291 prop tor  30  26  27  28
 292 prop tor  30  26  27  67
 293 ben  30  31  32
 294 prop tor  30  31  32  22
 295 prop tor  31  24  25  26
 296 prop tor  31  24  25  65
 297 prop tor  31  24  25  66
 298 prop tor  32  22  23  24
 299 prop tor  32  22  23  64
 300 prop tor  33  17  18  19
 301 prop tor  33  17  18  60
 302 ben  33  35  36
 303 prop tor  33  35  36  37
 304 prop tor  33  35  36  69
 305 ben  33  35  48
 306 prop tor  33  35  48  14
 307 prop tor  33  35  48  47
 308 ben  34  33  35
 309 prop tor  34  33  35  36
 310 prop tor  34  33  35  48
 311 ben  35  36  37
 312 prop tor  35  36  37  38
 313 prop tor  35  36  37  70
 314 ben  35  36  69
 315 ben  35  48  47
 316 ben  36  35  48
 317 prop tor  36  35  48  14
 318 prop tor  36  35  48  47
 319 ben  36  37  38
 320 prop tor  36  37  38  39
 321 prop tor  36  37  38  47
 322 ben  36  37  70
 323 ben  37  36  69
 324 ben  37  38  39
 325 prop tor  37  38  39  40
 326 prop tor  37  38  39  46
 327 ben  37  38  47
 328 prop tor  37  38  47  11
 329 prop tor  37  38  47  48
 330 ben  38  37  70
 331 ben  38  39  40
 332 prop tor  38  39  40  41
 333 prop tor  38  39  40  71
 334 ben  38  39  46
 335 prop tor  38  39  46  10
 336 prop tor  38  39  46  45
 337 ben  38  47  48
 338 prop tor  38  47  48  14
 339 prop tor  38  47  48  35
 340 ben  39  38  47
 341 prop tor  39  38  47  11
 342 prop tor  39  38  47  48
 343 ben  39  40  41
 344 prop tor  39  40  41  42
 345 prop tor  39  40  41  72
 346 ben  39  40  71
 347 ben  39  46  45
 348 ben  40  39  46
 349 prop tor  40  39  46  10
 350 prop tor  40  39  46  45
 351 ben  40  41  42
 352 prop tor  40  41  42  43
 353 prop tor  40  41  42  45
 354 ben  40  41  72
 355 ben  41  40  71
 356 ben  41  42  43
 357 prop tor  41  42  43   4
 358 prop tor  41  42  43  44
 359 ben  41  42  45
 360 prop tor  41  42  45   7
 361 prop tor  41  42  45  46
 362 ben  42  41  72
 363 ben  42  43  44
 364 ben  42  45  46
 365 prop tor  42  45  46  10
 366 prop tor  42  45  46  39
 367 prop tor  43   4   5   6
 368 prop tor  43   4   5   7
 369 ben  43  42  45
 370 prop tor  43  42  45   7
 371 prop tor  43  42  45  46
 372 prop tor  45   7   8   9
 373 prop tor  45   7   8  56
 374 prop tor  45  42  43   4
 375 prop tor  45  42  43  44
 376 prop tor  46  10  11  12
 377 prop tor  46  10  11  47
 378 prop tor  46  39  40  41
 379 prop tor  46  39  40  71
 380 prop tor  47  11  12  13
 381 prop tor  47  11  12  58
 382 prop tor  47  38  39  40
 383 prop tor  47  38  39  46
 384 prop tor  48  14  15  16
 385 prop tor  48  14  15  17
 386 prop tor  48  35  36  37
 387 prop tor  48  35  36  69
 388 prop tor  49   1   2   3
 389 prop tor  49   1   2   4
 390 prop tor  49   1   2  52
 391 ben  49   1  50
 392 ben  49   1  51
 393 prop tor  50   1   2   3
 394 prop tor  50   1   2   4
 395 prop tor  50   1   2  52
 396 ben  50   1  51
 397 prop tor  51   1   2   3
 398 prop tor  51   1   2   4
 399 prop tor  51   1   2  52
 400 prop tor  52   2   3  53
 401 prop tor  52   2   3  54
 402 prop tor  52   2   3  55
 403 prop tor  52   2   4   5
 404 prop tor  52   2   4  43
 405 ben  53   3  54
 406 ben  53   3  55
 407 ben  54   3  55
 408 prop tor  56   8   9  10
 409 prop tor  56   8   9  57
 410 prop tor  57   9  10  11
 411 prop tor  57   9  10  46
 412 prop tor  58  12  13  14
 413 prop tor  58  12  13  59
 414 prop tor  59  13  14  15
 415 prop tor  59  13  14  48
 416 prop tor  60  18  19  20
 417 prop tor  60  18  19  61
 418 prop tor  61  19  20  21
 419 prop tor  61  19  20  62
 420 prop tor  62  20  21  22
 421 prop tor  62  20  21  63
 422 prop tor  63  21  22  23
 423 prop tor  63  21  22  32
 424 prop tor  64  23  24  25
 425 prop tor  64  23  24  31
 426 prop tor  65  25  26  27
 427 prop tor  65  25  26  30
 428 ben  65  25  66
 429 prop tor  66  25  26  27
 430 prop tor  66  25  26  30
 431 prop tor  67  27  28  29
 432 prop tor  67  27  28  68
 433 prop tor  68  28  29  30
 434 prop tor  69  36  37  38
 435 prop tor  69  36  37  70
 436 prop tor  70  37  38  39
 437 prop tor  70  37  38  47
 438 prop tor  71  40  41  42
 439 prop tor  71  40  41  72
 440 prop tor  72  41  42  43
 441 prop tor  72  41  42  45
 nber bend=             140
 nber lin bend=           0
 nber prop tor=         220
 nber impr tor=           0
 nber tot redund int=         441
 Reading file: 
 ./CDT-PDI_4_C0S1.log                                                           
                                          
  Entering Gaussian System, Link 0=g16                                          
  
 Gaussian format, type: g94, g98, g03= F F F
  #P Geom=AllCheck Guess=TCheck SCRF=Check GenChk RB3LYP TD(FC,Read)/6-3    
 energy type= TD      
 Original G94 input coords:
  6 16.025052  2.034259 39.610978
  6 14.603140  1.581249 39.260795
  6 13.577871  1.905485 40.353201
  7 14.170965  2.086933 37.924878
  6 13.918625  1.118069 36.929872
  8 14.052596 -0.076559 37.163729
  6 13.490923  1.611301 35.612534
  6 13.227517  0.695014 34.593711
  6 12.823214  1.125941 33.344102
  6 12.660597  2.497213 33.045926
  6 12.237048  2.961156 31.740617
  6 11.959313  2.062500 30.681468
  6 11.557926  2.509478 29.446570
  6 11.408169  3.881954 29.190067
  6 10.981016  4.290858 27.865527
  8 10.739612  3.528156 26.948312
  7 10.843090  5.718979 27.658280
  6 10.445350  6.242131 26.453483
  6 10.115709  5.623681 25.277379
  6  9.735732  6.432781 24.181302
  6  9.378244  5.946346 22.940598
  6  8.994538  6.717470 21.827581
  6  8.627574  6.224081 20.558437
  6  8.298625  7.226595 19.662293
  6  7.847677  7.324325 18.220927
  6  7.716260  8.820778 18.044931
  6  7.352343  9.709615 17.016759
  6  7.413468 11.020103 17.433030
 16  7.916858 11.196712 19.089932
  6  8.050174  9.477186 19.233874
  6  8.403197  8.518925 20.216042
 16  8.913592  8.497225 21.862624
  6 11.110110  6.730060 28.699589
  8 10.962302  7.904063 28.415809
  6 11.528500  6.215764 29.977475
  6 11.798180  7.130417 31.012083
  6 12.199552  6.696772 32.249705
  6 12.359492  5.317112 32.539513
  6 12.781849  4.854303 33.842505
  6 13.061211  5.741185 34.907229
  6 13.463563  5.286302 36.148500
  6 13.609459  3.920373 36.394932
  6 14.038680  3.471329 37.727650
  8 14.273688  4.260662 38.635477
  6 13.343219  2.993062 35.364541
  6 12.924633  3.452126 34.071950
  6 12.093082  4.363762 31.507866
  6 11.670962  4.825468 30.207560
  1 16.349890  1.523778 40.522451
  1 16.073214  3.109953 39.774867
  1 16.721041  1.765949 38.811724
  1 14.618050  0.502290 39.122528
  1 13.524066  2.976120 40.545961
  1 13.864417  1.394779 41.277299
  1 12.585700  1.546508 40.066965
  1 13.348345 -0.358941 34.809325
  1 12.630237  0.380639 32.585560
  1 12.061836  0.998487 30.836238
  1 11.348592  1.812500 28.645245
  1 10.404837  7.325268 26.505547
  1 10.142220  4.550236 25.181486
  1  9.728621  7.509819 24.340047
  1  9.386820  4.871196 22.787844
  1  8.617164  5.163140 20.347629
  1  6.899146  6.804011 18.052859
  1  8.580073  6.890234 17.532586
  1  7.057657  9.423885 16.016416
  1  7.190488 11.907080 16.860035
  1 11.680275  8.186434 30.805274
  1 12.395817  7.433402 33.014903
  1 12.961933  6.807640 34.762666
  1 13.674062  5.976503 36.955574
 nber atoms=          72
  Total Energy, E(TD-HF/TD-DFT) =  -2746.06746442                               
  
          32          49 "  -2746.06746442"
After scan for Atom:   Atom  AN      X      Y      Z        X      Y      Z        X      Y      Z   
After scan for Atom:   Atom  AN      X      Y      Z        X      Y      Z        X      Y      Z   
After scan for Atom:   Atom  AN      X      Y      Z        X      Y      Z        X      Y      Z   
After scan for Atom:   Atom  AN      X      Y      Z        X      Y      Z        X      Y      Z   
After scan for Atom:   Atom  AN      X      Y      Z        X      Y      Z        X      Y      Z   
After scan for Atom:   Atom  AN      X      Y      Z        X      Y      Z        X      Y      Z   
After scan for Atom:   Atom  AN      X      Y      Z        X      Y      Z        X      Y      Z   
After scan for Atom:   Atom  AN      X      Y      Z        X      Y      Z        X      Y      Z   
After scan for Atom:   Atom  AN      X      Y      Z        X      Y      Z        X      Y      Z   
After scan for Atom:   Atom  AN      X      Y      Z        X      Y      Z        X      Y      Z   
After scan for Atom:   Atom  AN      X      Y      Z        X      Y      Z        X      Y      Z   
After scan for Atom:   Atom  AN      X      Y      Z        X      Y      Z        X      Y      Z   
After scan for Atom:   Atom  AN      X      Y      Z        X      Y      Z        X      Y      Z   
After scan for Atom:   Atom  AN      X      Y      Z        X      Y      Z        X      Y      Z   
After scan for Atom:   Atom  AN      X      Y      Z        X      Y      Z        X      Y      Z   
After scan for Atom:   Atom  AN      X      Y      Z        X      Y      Z        X      Y      Z   
After scan for Atom:   Atom  AN      X      Y      Z        X      Y      Z        X      Y      Z   
After scan for Atom:   Atom  AN      X      Y      Z        X      Y      Z        X      Y      Z   
After scan for Atom:   Atom  AN      X      Y      Z        X      Y      Z        X      Y      Z   
After scan for Atom:   Atom  AN      X      Y      Z        X      Y      Z        X      Y      Z   
After scan for Atom:   Atom  AN      X      Y      Z        X      Y      Z        X      Y      Z   
After scan for Atom:   Atom  AN      X      Y      Z        X      Y      Z        X      Y      Z   
After scan for Atom:   Atom  AN      X      Y      Z        X      Y      Z        X      Y      Z   
After scan for Atom:   Atom  AN      X      Y      Z        X      Y      Z        X      Y      Z   
After scan for Atom:   Atom  AN      X      Y      Z        X      Y      Z        X      Y      Z   
After scan for Atom:   Atom  AN      X      Y      Z        X      Y      Z        X      Y      Z   
After scan for Atom:   Atom  AN      X      Y      Z        X      Y      Z        X      Y      Z   
After scan for Atom:   Atom  AN      X      Y      Z        X      Y      Z        X      Y      Z   
After scan for Atom:   Atom  AN      X      Y      Z        X      Y      Z        X      Y      Z   
After scan for Atom:   Atom  AN      X      Y      Z        X      Y      Z        X      Y      Z   
After scan for Atom:   Atom  AN      X      Y      Z        X      Y      Z        X      Y      Z   
After scan for Atom:   Atom  AN      X      Y      Z        X      Y      Z        X      Y      Z   
After scan for Atom:   Atom  AN      X      Y      Z        X      Y      Z        X      Y      Z   
After scan for Atom:   Atom  AN      X      Y      Z        X      Y      Z        X      Y      Z   
After scan for Atom:   Atom  AN      X      Y      Z        X      Y      Z        X      Y      Z   
After scan for Atom:   Atom  AN      X      Y      Z        X      Y      Z        X      Y      Z   
After scan for Atom:   Atom  AN      X      Y      Z        X      Y      Z        X      Y      Z   
After scan for Atom:   Atom  AN      X      Y      Z        X      Y      Z        X      Y      Z   
After scan for Atom:   Atom  AN      X      Y      Z        X      Y      Z        X      Y      Z   
After scan for Atom:   Atom  AN      X      Y      Z        X      Y      Z        X      Y      Z   
After scan for Atom:   Atom  AN      X      Y      Z        X      Y      Z        X      Y      Z   
After scan for Atom:   Atom  AN      X      Y      Z        X      Y      Z        X      Y      Z   
After scan for Atom:   Atom  AN      X      Y      Z        X      Y      Z        X      Y      Z   
After scan for Atom:   Atom  AN      X      Y      Z        X      Y      Z        X      Y      Z   
After scan for Atom:   Atom  AN      X      Y      Z        X      Y      Z        X      Y      Z   
After scan for Atom:   Atom  AN      X      Y      Z        X      Y      Z        X      Y      Z   
After scan for Atom:   Atom  AN      X      Y      Z        X      Y      Z        X      Y      Z   
After scan for Atom:   Atom  AN      X      Y      Z        X      Y      Z        X      Y      Z   
After scan for Atom:   Atom  AN      X      Y      Z        X      Y      Z        X      Y      Z   
After scan for Atom:   Atom  AN      X      Y      Z        X      Y      Z        X      Y      Z   
After scan for Atom:   Atom  AN      X      Y      Z        X      Y      Z        X      Y      Z   
After scan for Atom:   Atom  AN      X      Y      Z        X      Y      Z        X      Y      Z   
After scan for Atom:   Atom  AN      X      Y      Z        X      Y      Z        X      Y      Z   
After scan for Atom:   Atom  AN      X      Y      Z        X      Y      Z        X      Y      Z   
After scan for Atom:   Atom  AN      X      Y      Z        X      Y      Z        X      Y      Z   
After scan for Atom:   Atom  AN      X      Y      Z        X      Y      Z        X      Y      Z   
After scan for Atom:   Atom  AN      X      Y      Z        X      Y      Z        X      Y      Z   
After scan for Atom:   Atom  AN      X      Y      Z        X      Y      Z        X      Y      Z   
After scan for Atom:   Atom  AN      X      Y      Z        X      Y      Z        X      Y      Z   
After scan for Atom:   Atom  AN      X      Y      Z        X      Y      Z        X      Y      Z   
After scan for Atom:   Atom  AN      X      Y      Z        X      Y      Z        X      Y      Z   
After scan for Atom:   Atom  AN      X      Y      Z        X      Y      Z        X      Y      Z   
After scan for Atom:   Atom  AN      X      Y      Z        X      Y      Z        X      Y      Z   
After scan for Atom:   Atom  AN      X      Y      Z        X      Y      Z        X      Y      Z   
After scan for Atom:   Atom  AN      X      Y      Z        X      Y      Z        X      Y      Z   
After scan for Atom:   Atom  AN      X      Y      Z        X      Y      Z        X      Y      Z   
After scan for Atom:   Atom  AN      X      Y      Z        X      Y      Z        X      Y      Z   
After scan for Atom:   Atom  AN      X      Y      Z        X      Y      Z        X      Y      Z   
After scan for Atom:   Atom  AN      X      Y      Z        X      Y      Z        X      Y      Z   
After scan for Atom:   Atom  AN      X      Y      Z        X      Y      Z        X      Y      Z   
 g94    frequencies=
     0.0    0.0    0.0    0.0    0.0    0.0    6.3   14.7   15.3   23.8
    27.1   34.2   55.4   57.7   59.0   77.2   79.5   89.4  101.5  107.8
   129.7  129.8  141.6  168.4  174.9  183.6  195.2  199.9  205.1  212.1
   224.1  233.9  234.5  238.7  251.6  259.4  269.1  280.4  291.8  296.8
   317.8  340.6  347.2  368.3  377.3  397.9  405.1  417.9  424.2  433.1
   435.9  443.2  453.7  456.2  460.9  462.7  466.1  480.2  494.6  500.0
   502.6  513.8  517.0  535.5  539.9  548.1  570.2  579.3  582.0  586.5
   591.1  606.1  624.0  624.0  634.9  645.5  661.4  668.7  669.8  683.1
   712.5  719.5  726.6  726.9  731.5  748.2  759.0  764.5  772.8  786.4
   803.2  812.0  816.2  821.9  823.0  824.1  829.1  832.9  836.7  846.1
   847.5  886.3  896.2  901.3  924.4  929.6  943.7  945.7  952.1  955.7
   956.3  967.8  973.1  976.3  981.9  985.5  988.5  990.1  997.5 1009.5
  1053.0 1054.0 1070.6 1093.6 1109.4 1124.3 1151.5 1155.2 1160.0 1160.2
  1164.3 1174.7 1188.5 1190.1 1200.8 1210.9 1214.8 1218.2 1227.4 1236.0
  1249.7 1256.6 1275.4 1283.2 1295.3 1298.9 1301.4 1303.5 1319.7 1326.5
  1352.8 1356.5 1361.7 1368.3 1372.1 1382.4 1384.2 1393.3 1396.6 1397.7
  1402.8 1411.5 1426.7 1432.0 1441.0 1444.1 1462.2 1464.3 1474.3 1477.2
  1483.9 1485.1 1489.7 1496.2 1497.9 1506.6 1523.6 1532.8 1555.1 1560.9
  1574.2 1588.6 1593.0 1608.8 1615.5 1621.6 1632.1 1640.0 1682.5 1719.2
  1780.4 2050.7 3029.1 3033.8 3040.6 3070.6 3086.4 3089.5 3109.1 3128.3
  3131.5 3141.3 3159.7 3172.1 3192.3 3192.9 3198.4 3199.0 3208.2 3208.5
  3212.2 3214.6 3223.3 3223.5 3248.5 3249.3
 g94    symmetries=
                                                 A      A      A      A
       A      A      A      A      A      A      A      A      A      A
       A      A      A      A      A      A      A      A      A      A
       A      A      A      A      A      A      A      A      A      A
       A      A      A      A      A      A      A      A      A      A
       A      A      A      A      A      A      A      A      A      A
       A      A      A      A      A      A      A      A      A      A
       A      A      A      A      A      A      A      A      A      A
       A      A      A      A      A      A      A      A      A      A
       A      A      A      A      A      A      A      A      A      A
       A      A      A      A      A      A      A      A      A      A
       A      A      A      A      A      A      A      A      A      A
       A      A      A      A      A      A      A      A      A      A
       A      A      A      A      A      A      A      A      A      A
       A      A      A      A      A      A      A      A      A      A
       A      A      A      A      A      A      A      A      A      A
       A      A      A      A      A      A      A      A      A      A
       A      A      A      A      A      A      A      A      A      A
       A      A      A      A      A      A      A      A      A      A
       A      A      A      A      A      A      A      A      A      A
       A      A      A      A      A      A      A      A      A      A
       A      A      A      A      A      A
 atomic masses:
[...]
    0.    0.   -0.    0.    0.   -0.   -0.   -0.    0.    0.    0.   -0.   -0.    0.    0.    0.
 p2=
    0.    0.    0.   -0.   -0.    0.  142.    9. -796. -436. -366. -235.  -54.   29.  -23.  -53.   11.  -12.   16.    6.
  -68.  -33.   20.    6.  -12.   -5.   -4.  -80.   -3.    7.   11.    2.   -1.    4.    2.   -0.    5.   32.   -5.    0.
    5.  -11.   31.    5.    5.   -1.    1.   -3.   20.   -5.   -1.   -1.    0.    0.   -3.   -2.    2.    1.   -2.    2.
   -0.    2.    0.    1.    0.   -1.    1.   -0.    1.   -1.    1.   -3.    0.   -0.    1.   -0.    0.    0.    1.   -3.
   -1.   -1.    0.   -1.    0.    0.    0.    1.   -0.   -0.   -0.   -0.    0.    1.    1.   -0.    1.    0.   -4.   -0.
    0.  -10.   -4.    1.    0.   -3.    0.   -0.   -1.    0.    0.   -7.    1.   -0.    0.   -0.    0.    0.    1.    1.
   -3.   -1.   -0.    0.   -0.   -1.   -0.   -0.    2.   -0.   -0.   -0.    1.    0.   -0.   -0.   -1.    1.    0.    0.
   -0.   -1.   -0.   -1.    1.   -0.   -2.    1.    4.   -0.   -1.   -0.    0.   -0.   -1.   -0.    0.    0.    0.    0.
   -2.    0.   -1.    2.    0.    1.   -0.    1.   -1.    2.    0.   -0.   -0.    0.    0.    0.   -0.    3.   -1.    0.
    0.    0.    0.    3.   -0.    0.    0.   -0.    0.   -0.   -0.    0.    0.    0.    0.    0.   -0.   -0.   -0.   -0.
   -0.    0.    0.    0.   -0.    0.   -0.    0.   -0.    0.   -0.   -0.    0.   -0.    0.   -0.

 Displacement: in terms of nc of 1 THEN of nc of 2

   1     freq=    -0. Q= -0.000 lam=    -0.0     freq=    -0. Q= -0.000 lam=    -0.0
   2     freq=    -0. Q=  0.000 lam=    -0.0     freq=    -0. Q=  0.000 lam=    -0.0
   3     freq=     0. Q=  0.000 lam=     0.0     freq=     0. Q=  0.000 lam=     0.0
   4     freq=     0. Q= -0.000 lam=     0.0     freq=     0. Q= -0.000 lam=     0.0
   5     freq=     0. Q= -0.000 lam=     0.0     freq=     0. Q= -0.000 lam=     0.0
   6     freq=     0. Q= -0.000 lam=     0.0     freq=     0. Q= -0.000 lam=     0.0
   7     freq=     5. Q=  1.035 lam=     2.5     freq=     6. Q=  1.429 lam=     6.4
   8     freq=    12. Q=  7.857 lam=   379.2     freq=    15. Q=  0.140 lam=     0.1
   9     freq=    16. Q= -8.243 lam=   545.2     freq=    15. Q=-12.586 lam=  1215.6
  10     freq=    23. Q= -6.129 lam=   433.9     freq=    24. Q= -8.578 lam=   873.7
  11     freq=    27. Q= -9.812 lam=  1280.7     freq=    27. Q= -7.673 lam=   796.4
  12     freq=    33. Q=-10.253 lam=  1756.2     freq=    34. Q= -5.535 lam=   524.2
  13     freq=    46. Q=  1.690 lam=    65.2     freq=    55. Q=  1.617 lam=    72.4
  14     freq=    55. Q= -2.381 lam=   155.4     freq=    58. Q= -0.884 lam=    22.6
  15     freq=    58. Q= -1.107 lam=    35.8     freq=    59. Q= -0.709 lam=    14.8
  16     freq=    75. Q= -2.375 lam=   212.1     freq=    77. Q= -1.870 lam=   135.1
  17     freq=    87. Q= -1.732 lam=   130.3     freq=    80. Q= -0.408 lam=     6.6
  18     freq=    88. Q= -0.422 lam=     7.8     freq=    89. Q= -0.450 lam=     9.0
  19     freq=    97. Q= -2.207 lam=   236.9     freq=   102. Q= -0.660 lam=    22.1
  20     freq=   103. Q=  2.019 lam=   210.1     freq=   108. Q=  0.250 lam=     3.4
  21     freq=   109. Q=  1.470 lam=   117.8     freq=   130. Q=  3.114 lam=   628.9
  22     freq=   140. Q= -0.207 lam=     3.0     freq=   130. Q= -1.508 lam=   147.6
  23     freq=   152. Q= -0.107 lam=     0.9     freq=   142. Q= -0.972 lam=    66.9
  24     freq=   167. Q=  0.106 lam=     0.9     freq=   168. Q=  0.318 lam=     8.5
  25     freq=   172. Q=  0.095 lam=     0.8     freq=   175. Q=  0.657 lam=    37.7
  26     freq=   187. Q=  0.648 lam=    39.3     freq=   184. Q=  0.297 lam=     8.1
  27     freq=   194. Q= -0.442 lam=    18.9     freq=   195. Q= -0.230 lam=     5.2
  28     freq=   198. Q=  1.380 lam=   188.3     freq=   200. Q=  4.534 lam=  2054.5
  29     freq=   212. Q=  0.358 lam=    13.6     freq=   205. Q=  0.149 lam=     2.3
  30     freq=   213. Q= -1.047 lam=   116.7     freq=   212. Q= -0.386 lam=    15.8
  31     freq=   235. Q=  2.052 lam=   493.8     freq=   224. Q=  0.666 lam=    49.7
  32     freq=   236. Q= -3.621 lam=  1544.9     freq=   234. Q= -0.102 lam=     1.2
  33     freq=   236. Q= -0.783 lam=    72.4     freq=   234. Q= -0.078 lam=     0.7
  34     freq=   246. Q=  1.758 lam=   380.9     freq=   239. Q=  0.263 lam=     8.3
  35     freq=   254. Q= -0.003 lam=     0.0     freq=   252. Q= -0.109 lam=     1.5
  36     freq=   257. Q= -0.321 lam=    13.2     freq=   259. Q= -0.010 lam=     0.0
  37     freq=   259. Q= -0.783 lam=    79.3     freq=   269. Q= -0.326 lam=    14.3
  38     freq=   290. Q=  3.496 lam=  1773.6     freq=   280. Q=  2.158 lam=   653.0
  39     freq=   294. Q=  0.438 lam=    28.3     freq=   292. Q=  0.368 lam=    19.7
  40     freq=   298. Q=  3.390 lam=  1711.7     freq=   297. Q=  0.010 lam=     0.0
  41     freq=   316. Q= -3.941 lam=  2455.5     freq=   318. Q= -0.352 lam=    19.7
  42     freq=   339. Q=  0.482 lam=    39.3     freq=   341. Q=  0.794 lam=   107.4
  43     freq=   357. Q= -2.019 lam=   728.3     freq=   347. Q= -2.352 lam=   960.7
  44     freq=   366. Q=  1.168 lam=   249.9     freq=   368. Q=  0.364 lam=    24.4
  45     freq=   379. Q=  0.119 lam=     2.7     freq=   377. Q=  0.354 lam=    23.7
  46     freq=   393. Q=  0.081 lam=     1.3     freq=   398. Q=  0.069 lam=     0.9
  47     freq=   402. Q= -0.136 lam=     3.7     freq=   405. Q= -0.048 lam=     0.5
  48     freq=   417. Q=  0.481 lam=    48.1     freq=   418. Q=  0.258 lam=    13.9
  49     freq=   428. Q=  0.896 lam=   171.8     freq=   424. Q=  1.633 lam=   565.7
  50     freq=   435. Q= -0.685 lam=   102.1     freq=   433. Q= -0.400 lam=    34.6
  51     freq=   438. Q= -0.932 lam=   190.3     freq=   436. Q= -0.124 lam=     3.4
  52     freq=   443. Q=  0.633 lam=    88.8     freq=   443. Q=  0.100 lam=     2.2
  53     freq=   449. Q= -0.235 lam=    12.4     freq=   454. Q= -0.037 lam=     0.3
  54     freq=   450. Q= -0.263 lam=    15.6     freq=   456. Q= -0.032 lam=     0.2
  55     freq=   453. Q=  0.104 lam=     2.4     freq=   461. Q=  0.278 lam=    17.8
  56     freq=   464. Q= -3.183 lam=  2348.4     freq=   463. Q= -0.162 lam=     6.1
  57     freq=   467. Q= -2.079 lam=  1009.4     freq=   466. Q= -0.133 lam=     4.1
  58     freq=   484. Q=  4.308 lam=  4494.1     freq=   480. Q=  0.107 lam=     2.8
  59     freq=   494. Q=  2.226 lam=  1225.4     freq=   495. Q=  0.140 lam=     4.8
  60     freq=   500. Q=  0.006 lam=     0.0     freq=   500. Q=  0.191 lam=     9.2
  61     freq=   503. Q= -1.668 lam=   699.8     freq=   503. Q= -0.021 lam=     0.1
  62     freq=   505. Q=  3.733 lam=  3517.1     freq=   514. Q=  0.145 lam=     5.4
  63     freq=   515. Q=  0.727 lam=   136.3     freq=   517. Q=  0.017 lam=     0.1
  64     freq=   516. Q= -1.781 lam=   818.8     freq=   536. Q= -0.067 lam=     1.2
  65     freq=   536. Q= -1.838 lam=   904.7     freq=   540. Q= -0.031 lam=     0.3
  66     freq=   546. Q=  1.158 lam=   366.0     freq=   548. Q=  0.076 lam=     1.6
  67     freq=   570. Q=  0.209 lam=    12.5     freq=   570. Q=  0.124 lam=     4.4
  68     freq=   579. Q=  0.112 lam=     3.6     freq=   579. Q=  0.004 lam=     0.0
  69     freq=   580. Q=  1.660 lam=   800.0     freq=   582. Q=  0.078 lam=     1.8
  70     freq=   582. Q=  1.459 lam=   619.7     freq=   587. Q=  0.066 lam=     1.3
  71     freq=   590. Q=  0.436 lam=    56.0     freq=   591. Q=  0.076 lam=     1.7
  72     freq=   608. Q= -0.563 lam=    96.2     freq=   606. Q= -0.340 lam=    35.0
  73     freq=   623. Q=  0.098 lam=     3.0     freq=   624. Q=  0.009 lam=     0.0
  74     freq=   625. Q= -0.028 lam=     0.3     freq=   624. Q= -0.048 lam=     0.7
  75     freq=   638. Q= -0.397 lam=    50.2     freq=   635. Q= -0.085 lam=     2.3
  76     freq=   647. Q=  0.146 lam=     6.9     freq=   646. Q=  0.014 lam=     0.1
  77     freq=   661. Q=  0.076 lam=     1.9     freq=   661. Q=  0.038 lam=     0.5
  78     freq=   662. Q=  0.861 lam=   245.2     freq=   669. Q=  0.013 lam=     0.1
  79     freq=   668. Q=  0.133 lam=     5.9     freq=   670. Q=  0.095 lam=     3.0
  80     freq=   698. Q= -1.081 lam=   408.3     freq=   683. Q= -0.296 lam=    29.9
  81     freq=   707. Q= -0.641 lam=   145.3     freq=   713. Q= -0.057 lam=     1.2
  82     freq=   711. Q= -0.067 lam=     1.6     freq=   720. Q= -0.073 lam=     1.9
  83     freq=   714. Q= -0.060 lam=     1.3     freq=   727. Q= -0.026 lam=     0.2
  84     freq=   727. Q= -0.336 lam=    41.1     freq=   727. Q= -0.107 lam=     4.2
  85     freq=   737. Q=  0.756 lam=   210.8     freq=   732. Q=  0.035 lam=     0.4
  86     freq=   747. Q= -0.015 lam=     0.1     freq=   748. Q= -0.005 lam=     0.0
  87     freq=   754. Q=  0.093 lam=     3.3     freq=   759. Q=  0.010 lam=     0.0
  88     freq=   766. Q=  0.136 lam=     7.0     freq=   764. Q=  0.075 lam=     2.1
  89     freq=   771. Q= -0.198 lam=    15.1     freq=   773. Q= -0.044 lam=     0.8
  90     freq=   786. Q=  0.073 lam=     2.1     freq=   786. Q=  0.034 lam=     0.4
  91     freq=   800. Q= -0.104 lam=     4.4     freq=   803. Q= -0.043 lam=     0.7
  92     freq=   806. Q=  0.010 lam=     0.0     freq=   812. Q=  0.043 lam=     0.8
  93     freq=   816. Q= -0.025 lam=     0.3     freq=   816. Q= -0.000 lam=     0.0
  94     freq=   821. Q=  0.310 lam=    39.5     freq=   822. Q=  0.097 lam=     3.9
  95     freq=   822. Q=  0.109 lam=     4.9     freq=   823. Q=  0.096 lam=     3.8
  96     freq=   825. Q= -0.090 lam=     3.4     freq=   824. Q= -0.038 lam=     0.6
  97     freq=   830. Q=  0.062 lam=     1.6     freq=   829. Q=  0.072 lam=     2.2
  98     freq=   834. Q=  0.045 lam=     0.8     freq=   833. Q=  0.050 lam=     1.0
  99     freq=   846. Q= -0.075 lam=     2.4     freq=   837. Q= -0.412 lam=    71.1
 100     freq=   849. Q= -0.085 lam=     3.1     freq=   846. Q= -0.016 lam=     0.1
 101     freq=   859. Q=  0.023 lam=     0.2     freq=   848. Q=  0.038 lam=     0.6
 102     freq=   882. Q=  0.050 lam=     1.1     freq=   886. Q=  1.247 lam=   688.7
 103     freq=   893. Q=  0.015 lam=     0.1     freq=   896. Q=  0.438 lam=    86.0
 104     freq=   910. Q= -0.254 lam=    29.4     freq=   901. Q= -0.071 lam=     2.3
 105     freq=   926. Q= -0.691 lam=   221.1     freq=   924. Q= -0.040 lam=     0.7
 106     freq=   930. Q= -0.303 lam=    42.6     freq=   930. Q= -0.330 lam=    50.5
 107     freq=   934. Q=  1.644 lam=  1262.8     freq=   944. Q=  0.000 lam=     0.0
 108     freq=   939. Q= -2.058 lam=  1988.3     freq=   946. Q= -0.049 lam=     1.1
 109     freq=   944. Q= -0.001 lam=     0.0     freq=   952. Q= -0.090 lam=     3.8
 110     freq=   948. Q= -0.965 lam=   441.4     freq=   956. Q= -0.002 lam=     0.0
 111     freq=   956. Q=  0.001 lam=     0.0     freq=   956. Q=  0.047 lam=     1.0
 112     freq=   958. Q= -0.064 lam=     2.0     freq=   968. Q= -0.925 lam=   413.6
 113     freq=   974. Q= -0.030 lam=     0.4     freq=   973. Q= -0.093 lam=     4.2
 114     freq=   978. Q=  0.022 lam=     0.2     freq=   976. Q=  0.004 lam=     0.0
 115     freq=   978. Q=  0.024 lam=     0.3     freq=   982. Q=  0.001 lam=     0.0
 116     freq=   988. Q=  0.031 lam=     0.5     freq=   985. Q=  0.024 lam=     0.3
 117     freq=   991. Q= -0.012 lam=     0.1     freq=   989. Q= -0.001 lam=     0.0
 118     freq=  1002. Q=  0.071 lam=     2.5     freq=   990. Q=  0.031 lam=     0.5
 119     freq=  1008. Q=  0.432 lam=    94.0     freq=   998. Q=  0.166 lam=    13.8
 120     freq=  1019. Q=  1.508 lam=  1158.7     freq=  1010. Q=  0.147 lam=    10.9
 121     freq=  1046. Q=  0.156 lam=    12.7     freq=  1053. Q=  0.412 lam=    89.4
 122     freq=  1070. Q=  0.008 lam=     0.0     freq=  1054. Q=  0.144 lam=    10.9
 123     freq=  1089. Q= -3.532 lam=  6790.5     freq=  1071. Q= -0.038 lam=     0.8
 124     freq=  1095. Q=  0.175 lam=    16.7     freq=  1094. Q=  0.014 lam=     0.1
 125     freq=  1112. Q=  0.356 lam=    70.3     freq=  1109. Q=  0.032 lam=     0.6
 126     freq=  1121. Q= -0.916 lam=   470.1     freq=  1124. Q= -0.096 lam=     5.2
 127     freq=  1135. Q=  1.528 lam=  1324.3     freq=  1151. Q=  0.035 lam=     0.7
 128     freq=  1149. Q=  0.044 lam=     1.1     freq=  1155. Q=  0.001 lam=     0.0
 129     freq=  1151. Q=  0.199 lam=    22.9     freq=  1160. Q=  0.268 lam=    41.6
 130     freq=  1155. Q= -0.001 lam=     0.0     freq=  1160. Q= -0.003 lam=     0.0
 131     freq=  1167. Q=  0.030 lam=     0.5     freq=  1164. Q=  0.027 lam=     0.4
 132     freq=  1175. Q= -0.005 lam=     0.0     freq=  1175. Q= -0.015 lam=     0.1
 133     freq=  1176. Q= -0.482 lam=   136.6     freq=  1189. Q= -0.125 lam=     9.3
 134     freq=  1191. Q= -0.060 lam=     2.2     freq=  1190. Q= -0.026 lam=     0.4
 135     freq=  1201. Q= -0.005 lam=     0.0     freq=  1201. Q= -0.015 lam=     0.1
 136     freq=  1209. Q=  0.020 lam=     0.2     freq=  1211. Q=  0.053 lam=     1.7
 137     freq=  1213. Q= -0.379 lam=    87.2     freq=  1215. Q= -0.157 lam=    15.0
 138     freq=  1215. Q=  0.085 lam=     4.4     freq=  1218. Q=  0.125 lam=     9.5
 139     freq=  1228. Q=  0.005 lam=     0.0     freq=  1227. Q=  0.021 lam=     0.3
 140     freq=  1237. Q= -0.035 lam=     0.8     freq=  1236. Q= -0.005 lam=     0.0
 141     freq=  1249. Q=  0.116 lam=     8.4     freq=  1250. Q=  0.008 lam=     0.0
 142     freq=  1254. Q=  0.283 lam=    50.1     freq=  1257. Q=  0.172 lam=    18.6
 143     freq=  1266. Q=  0.021 lam=     0.3     freq=  1275. Q=  0.062 lam=     2.5
 144     freq=  1277. Q=  0.203 lam=    26.2     freq=  1283. Q=  0.181 lam=    20.9
 145     freq=  1282. Q=  0.040 lam=     1.0     freq=  1295. Q=  0.120 lam=     9.4
 146     freq=  1296. Q= -0.072 lam=     3.3     freq=  1299. Q= -0.038 lam=     0.9
 147     freq=  1298. Q=  0.098 lam=     6.2     freq=  1301. Q=  0.301 lam=    59.0
 148     freq=  1306. Q= -0.040 lam=     1.0     freq=  1304. Q= -0.122 lam=     9.7
 149     freq=  1324. Q=  0.218 lam=    31.5     freq=  1320. Q=  0.617 lam=   251.4
 150     freq=  1328. Q=  0.249 lam=    41.0     freq=  1327. Q=  0.008 lam=     0.0
 151     freq=  1355. Q=  0.581 lam=   228.5     freq=  1353. Q=  0.117 lam=     9.3
 152     freq=  1362. Q= -0.024 lam=     0.4     freq=  1356. Q= -0.024 lam=     0.4
 153     freq=  1362. Q=  0.049 lam=     1.6     freq=  1362. Q=  0.010 lam=     0.1
 154     freq=  1368. Q= -0.096 lam=     6.4     freq=  1368. Q= -0.027 lam=     0.5
 155     freq=  1372. Q=  0.070 lam=     3.4     freq=  1372. Q=  0.089 lam=     5.5
 156     freq=  1380. Q=  0.281 lam=    54.5     freq=  1382. Q=  0.020 lam=     0.3
 157     freq=  1384. Q=  0.000 lam=     0.0     freq=  1384. Q=  0.000 lam=     0.0
 158     freq=  1393. Q=  0.053 lam=     1.9     freq=  1393. Q=  0.045 lam=     1.4
 159     freq=  1398. Q= -0.001 lam=     0.0     freq=  1397. Q= -0.007 lam=     0.0
 160     freq=  1398. Q=  0.021 lam=     0.3     freq=  1398. Q=  0.001 lam=     0.0
 161     freq=  1402. Q=  0.452 lam=   143.5     freq=  1403. Q=  0.302 lam=    63.9
 162     freq=  1413. Q=  0.012 lam=     0.1     freq=  1411. Q=  0.004 lam=     0.0
 163     freq=  1427. Q= -0.066 lam=     3.1     freq=  1427. Q= -0.111 lam=     8.8
 164     freq=  1432. Q=  0.159 lam=    18.1     freq=  1432. Q=  0.240 lam=    41.3
 165     freq=  1439. Q=  0.280 lam=    56.3     freq=  1441. Q=  0.071 lam=     3.7
 166     freq=  1440. Q= -0.246 lam=    43.4     freq=  1444. Q= -0.154 lam=    17.2
 167     freq=  1457. Q= -0.167 lam=    20.4     freq=  1462. Q= -0.053 lam=     2.0
 168     freq=  1461. Q= -0.157 lam=    17.9     freq=  1464. Q= -0.190 lam=    26.5
 169     freq=  1473. Q= -0.861 lam=   545.7     freq=  1474. Q= -0.143 lam=    15.0
 170     freq=  1474. Q=  0.119 lam=    10.4     freq=  1477. Q=  0.282 lam=    58.6
 171     freq=  1482. Q=  0.019 lam=     0.3     freq=  1484. Q=  0.000 lam=     0.0
 172     freq=  1484. Q= -0.000 lam=     0.0     freq=  1485. Q= -0.006 lam=     0.0
 173     freq=  1484. Q= -0.003 lam=     0.0     freq=  1490. Q= -0.028 lam=     0.6
 174     freq=  1497. Q= -0.006 lam=     0.0     freq=  1496. Q= -0.001 lam=     0.0
 175     freq=  1506. Q=  0.001 lam=     0.0     freq=  1498. Q=  0.063 lam=     3.0
 176     freq=  1523. Q=  0.005 lam=     0.0     freq=  1507. Q=  0.001 lam=     0.0
 177     freq=  1529. Q= -0.084 lam=     5.4     freq=  1524. Q= -0.003 lam=     0.0
 178     freq=  1537. Q= -0.031 lam=     0.7     freq=  1533. Q= -0.498 lam=   189.9
 179     freq=  1544. Q= -0.090 lam=     6.3     freq=  1555. Q= -0.097 lam=     7.3
 180     freq=  1556. Q= -0.286 lam=    63.4     freq=  1561. Q= -0.040 lam=     1.2
 181     freq=  1565. Q= -0.491 lam=   188.3     freq=  1574. Q= -0.044 lam=     1.5
 182     freq=  1576. Q=  0.023 lam=     0.4     freq=  1589. Q=  0.039 lam=     1.2
 183     freq=  1589. Q=  0.014 lam=     0.2     freq=  1593. Q=  0.005 lam=     0.0
 184     freq=  1598. Q= -0.049 lam=     1.9     freq=  1609. Q= -0.475 lam=   181.4
 185     freq=  1616. Q= -0.047 lam=     1.8     freq=  1616. Q= -0.037 lam=     1.1
 186     freq=  1619. Q= -0.113 lam=    10.3     freq=  1622. Q= -0.038 lam=     1.2
 187     freq=  1632. Q= -0.368 lam=   110.3     freq=  1632. Q= -0.059 lam=     2.8
 188     freq=  1644. Q=  0.627 lam=   322.8     freq=  1640. Q=  0.067 lam=     3.7
 189     freq=  1687. Q=  0.004 lam=     0.0     freq=  1683. Q=  0.000 lam=     0.0
 190     freq=  1724. Q= -0.034 lam=     1.0     freq=  1719. Q= -0.018 lam=     0.3
 191     freq=  1791. Q=  0.106 lam=    10.0     freq=  1780. Q=  0.067 lam=     4.0
 192     freq=  1803. Q=  0.193 lam=    33.7     freq=  2051. Q=  0.053 lam=     2.9
 193     freq=  3031. Q= -0.000 lam=     0.0     freq=  3029. Q= -0.000 lam=     0.0
 194     freq=  3031. Q= -0.015 lam=     0.4     freq=  3034. Q= -0.001 lam=     0.0
 195     freq=  3035. Q= -0.002 lam=     0.0     freq=  3041. Q= -0.009 lam=     0.1
 196     freq=  3060. Q= -0.025 lam=     0.9     freq=  3071. Q= -0.001 lam=     0.0
 197     freq=  3088. Q= -0.000 lam=     0.0     freq=  3086. Q= -0.000 lam=     0.0
 198     freq=  3091. Q= -0.002 lam=     0.0     freq=  3090. Q= -0.001 lam=     0.0
 199     freq=  3110. Q=  0.001 lam=     0.0     freq=  3109. Q=  0.001 lam=     0.0
 200     freq=  3121. Q= -0.024 lam=     0.9     freq=  3128. Q= -0.009 lam=     0.1
 201     freq=  3132. Q=  0.000 lam=     0.0     freq=  3132. Q=  0.000 lam=     0.0
 202     freq=  3142. Q=  0.001 lam=     0.0     freq=  3141. Q=  0.001 lam=     0.0
 203     freq=  3156. Q= -0.018 lam=     0.5     freq=  3160. Q= -0.024 lam=     0.9
 204     freq=  3161. Q=  0.001 lam=     0.0     freq=  3172. Q=  0.001 lam=     0.0
 205     freq=  3194. Q=  0.000 lam=     0.0     freq=  3192. Q=  0.000 lam=     0.0
 206     freq=  3195. Q= -0.000 lam=     0.0     freq=  3193. Q= -0.001 lam=     0.0
 207     freq=  3200. Q= -0.001 lam=     0.0     freq=  3198. Q= -0.000 lam=     0.0
 208     freq=  3201. Q= -0.001 lam=     0.0     freq=  3199. Q= -0.001 lam=     0.0
 209     freq=  3201. Q=  0.027 lam=     1.2     freq=  3208. Q=  0.001 lam=     0.0
 210     freq=  3204. Q=  0.013 lam=     0.3     freq=  3209. Q=  0.000 lam=     0.0
 211     freq=  3210. Q=  0.001 lam=     0.0     freq=  3212. Q=  0.008 lam=     0.1
 212     freq=  3210. Q= -0.001 lam=     0.0     freq=  3215. Q= -0.007 lam=     0.1
 213     freq=  3227. Q= -0.002 lam=     0.0     freq=  3223. Q= -0.001 lam=     0.0
 214     freq=  3227. Q=  0.003 lam=     0.0     freq=  3224. Q=  0.002 lam=     0.0
 215     freq=  3248. Q=  0.002 lam=     0.0     freq=  3248. Q=  0.002 lam=     0.0
 216     freq=  3252. Q=  0.007 lam=     0.1     freq=  3249. Q=  0.008 lam=     0.1

 total reorg energy (cm**-1, kcal/mol)=    50751.    11908.    145.10     34.05
 Nber of molecules processed=           2
