 Enter ifcurve (0=recti, 1=orth curvi, 2=apprx curvi, -1 = skip
 And atom ordering flag, 0= never changes, 1= use the first order thenceforth,
  2= deduce it (does read on fail), 3= always read it
 Reading file: 
 ./phenothiazine-pyrene_1_C0S0.log                                              
                                          
  Entering Gaussian System, Link 0=g16                                          
  
 Gaussian format, type: g94, g98, g03= F F F
  #P Geom=AllCheck Guess=TCheck SCRF=Check GenChk RB3LYP/6-311G(d,p) Fre    
 energy type= B3LYP   
 Original G94 input coords:
  6  2.788783  1.574425  0.000000
  6  1.499087  2.057820  0.000000
  6  0.447802  1.138701  0.000000
  6 -1.034664  1.492987  0.000000
  6 -1.951711  0.423196  0.000000
  6 -3.323302  0.557660  0.000000
  6 -3.919106  1.816187  0.000000
  6 -5.343939  1.964398  0.000000
  6 -5.922867  3.189612  0.000000
  6 -5.116552  4.373311  0.000000
  6 -5.696974  5.649778  0.000000
  6 -4.911389  6.797133  0.000000
  6 -3.526824  6.691505  0.000000
  6 -2.907017  5.433325  0.000000
  6 -1.491604  5.278704  0.000000
  6 -0.899360  4.056277  0.000000
  6 -1.625325  2.810794  0.000000
  6 -3.066216  2.956351  0.000000
  6 -3.691427  4.247587  0.000000
  6  0.829583 -0.229213  0.000000
  6  2.127511 -0.801540  0.000000
  7  2.425106 -2.271719  0.000000
  6  3.835883 -2.774048  0.000000
  6  5.002732 -1.973744  0.000000
  6  6.319700 -2.426629  0.000000
  6  6.607878 -3.775080  0.000000
  6  5.516730 -4.616183  0.000000
  6  4.194836 -4.150364  0.000000
 16  3.110286 -5.515559  0.000000
  6  1.567370 -4.704153  0.000000
  6  0.546677 -5.664570  0.000000
  6 -0.791695 -5.337583  0.000000
  6 -1.073442 -3.988081  0.000000
  6 -0.051593 -3.041694  0.000000
  6  1.339536 -3.299132  0.000000
  6  3.102780  0.226664  0.000000
  1  3.616214  2.275657  0.000000
  1  1.381434  3.120401  0.000000
  1 -1.606055 -0.594565  0.000000
  1 -3.946749 -0.330009  0.000000
  1 -5.949958  1.064629  0.000000
  1 -7.002413  3.295278  0.000000
  1 -6.778645  5.731807  0.000000
  1 -5.381211  7.774124  0.000000
  1 -2.908759  7.582931  0.000000
  1 -0.871666  6.169438  0.000000
  1  0.169047  4.062716  0.000000
  1  0.000000 -0.860617  0.000000
  1  4.978073 -0.922402  0.000000
  1  7.107240 -1.682135  0.000000
  1  7.620462 -4.158472  0.000000
  1  5.663249 -5.691499  0.000000
  1  0.847772 -6.707186  0.000000
  1 -1.562471 -6.097914  0.000000
  1 -2.094889 -3.626025  0.000000
  1 -0.459446 -2.071993  0.000000
  1  4.147167  0.090422  0.000000
 nber atoms=          57
  SCF Done:  E(RB3LYP) =  -1761.46857795     A.U. after    1 cycles             
  
          23          40 "  -1761.46857795"
After scan for Atom:   Atom  AN      X      Y      Z        X      Y      Z        X      Y      Z   
After scan for Atom:   Atom  AN      X      Y      Z        X      Y      Z        X      Y      Z   
After scan for Atom:   Atom  AN      X      Y      Z        X      Y      Z        X      Y      Z   
After scan for Atom:   Atom  AN      X      Y      Z        X      Y      Z        X      Y      Z   
After scan for Atom:   Atom  AN      X      Y      Z        X      Y      Z        X      Y      Z   
After scan for Atom:   Atom  AN      X      Y      Z        X      Y      Z        X      Y      Z   
After scan for Atom:   Atom  AN      X      Y      Z        X      Y      Z        X      Y      Z   
After scan for Atom:   Atom  AN      X      Y      Z        X      Y      Z        X      Y      Z   
After scan for Atom:   Atom  AN      X      Y      Z        X      Y      Z        X      Y      Z   
After scan for Atom:   Atom  AN      X      Y      Z        X      Y      Z        X      Y      Z   
After scan for Atom:   Atom  AN      X      Y      Z        X      Y      Z        X      Y      Z   
After scan for Atom:   Atom  AN      X      Y      Z        X      Y      Z        X      Y      Z   
After scan for Atom:   Atom  AN      X      Y      Z        X      Y      Z        X      Y      Z   
After scan for Atom:   Atom  AN      X      Y      Z        X      Y      Z        X      Y      Z   
After scan for Atom:   Atom  AN      X      Y      Z        X      Y      Z        X      Y      Z   
After scan for Atom:   Atom  AN      X      Y      Z        X      Y      Z        X      Y      Z   
After scan for Atom:   Atom  AN      X      Y      Z        X      Y      Z        X      Y      Z   
After scan for Atom:   Atom  AN      X      Y      Z        X      Y      Z        X      Y      Z   
After scan for Atom:   Atom  AN      X      Y      Z        X      Y      Z        X      Y      Z   
After scan for Atom:   Atom  AN      X      Y      Z        X      Y      Z        X      Y      Z   
After scan for Atom:   Atom  AN      X      Y      Z        X      Y      Z        X      Y      Z   
After scan for Atom:   Atom  AN      X      Y      Z        X      Y      Z        X      Y      Z   
After scan for Atom:   Atom  AN      X      Y      Z        X      Y      Z        X      Y      Z   
After scan for Atom:   Atom  AN      X      Y      Z        X      Y      Z        X      Y      Z   
After scan for Atom:   Atom  AN      X      Y      Z        X      Y      Z        X      Y      Z   
After scan for Atom:   Atom  AN      X      Y      Z        X      Y      Z        X      Y      Z   
After scan for Atom:   Atom  AN      X      Y      Z        X      Y      Z        X      Y      Z   
After scan for Atom:   Atom  AN      X      Y      Z        X      Y      Z        X      Y      Z   
After scan for Atom:   Atom  AN      X      Y      Z        X      Y      Z        X      Y      Z   
After scan for Atom:   Atom  AN      X      Y      Z        X      Y      Z        X      Y      Z   
After scan for Atom:   Atom  AN      X      Y      Z        X      Y      Z        X      Y      Z   
After scan for Atom:   Atom  AN      X      Y      Z        X      Y      Z        X      Y      Z   
After scan for Atom:   Atom  AN      X      Y      Z        X      Y      Z        X      Y      Z   
After scan for Atom:   Atom  AN      X      Y      Z        X      Y      Z        X      Y      Z   
After scan for Atom:   Atom  AN      X      Y      Z        X      Y      Z        X      Y      Z   
After scan for Atom:   Atom  AN      X      Y      Z        X      Y      Z        X      Y      Z   
After scan for Atom:   Atom  AN      X      Y      Z        X      Y      Z        X      Y      Z   
After scan for Atom:   Atom  AN      X      Y      Z        X      Y      Z        X      Y      Z   
After scan for Atom:   Atom  AN      X      Y      Z        X      Y      Z        X      Y      Z   
After scan for Atom:   Atom  AN      X      Y      Z        X      Y      Z        X      Y      Z   
After scan for Atom:   Atom  AN      X      Y      Z        X      Y      Z        X      Y      Z   
After scan for Atom:   Atom  AN      X      Y      Z        X      Y      Z        X      Y      Z   
After scan for Atom:   Atom  AN      X      Y      Z        X      Y      Z        X      Y      Z   
After scan for Atom:   Atom  AN      X      Y      Z        X      Y      Z        X      Y      Z   
After scan for Atom:   Atom  AN      X      Y      Z        X      Y      Z        X      Y      Z   
After scan for Atom:   Atom  AN      X      Y      Z        X      Y      Z        X      Y      Z   
After scan for Atom:   Atom  AN      X      Y      Z        X      Y      Z        X      Y      Z   
After scan for Atom:   Atom  AN      X      Y      Z        X      Y      Z        X      Y      Z   
After scan for Atom:   Atom  AN      X      Y      Z        X      Y      Z        X      Y      Z   
After scan for Atom:   Atom  AN      X      Y      Z        X      Y      Z        X      Y      Z   
After scan for Atom:   Atom  AN      X      Y      Z        X      Y      Z        X      Y      Z   
After scan for Atom:   Atom  AN      X      Y      Z        X      Y      Z        X      Y      Z   
After scan for Atom:   Atom  AN      X      Y      Z        X      Y      Z        X      Y      Z   
After scan for Atom:   Atom  AN      X      Y      Z        X      Y      Z        X      Y      Z   
After scan for Atom:   Atom  AN      X      Y      Z        X      Y      Z        X      Y      Z   
 g94    frequencies=
     0.0    0.0    0.0    0.0    0.0    0.0 -610.8 -507.9 -224.8 -139.1
   -70.4  -65.8  -25.5   25.2   55.6   73.7  138.0  145.6  160.7  179.7
   197.9  218.5  233.8  240.5  267.2  280.9  302.9  316.2  318.6  329.7
   348.1  373.5  387.5  395.0  428.9  433.9  440.4  454.6  479.6  484.7
   497.9  502.4  517.2  517.4  530.5  534.9  548.6  556.8  562.0  570.2
   583.0  610.4  614.3  636.3  643.9  649.2  659.9  683.6  690.5  697.5
   706.8  710.4  724.1  731.0  733.7  747.1  754.4  768.6  777.1  777.9
   780.9  804.2  808.1  827.6  832.8  838.2  845.3  849.7  858.7  899.3
   903.0  905.2  908.2  922.2  938.4  959.4  968.1  970.0  977.7  987.5
   990.4 1012.6 1026.1 1054.7 1060.7 1079.1 1089.0 1100.2 1120.4 1124.4
  1130.1 1132.2 1155.3 1160.2 1163.1 1171.5 1176.3 1184.3 1191.8 1203.0
  1221.7 1238.9 1242.7 1256.4 1257.4 1271.2 1277.9 1288.4 1289.8 1294.1
  1299.3 1313.1 1340.9 1358.5 1375.0 1386.9 1410.8 1420.8 1437.5 1449.4
  1462.6 1468.8 1469.3 1492.1 1502.2 1520.7 1526.7 1546.5 1572.3 1594.6
  1604.0 1618.8 1625.1 1628.0 1634.4 1640.1 1641.0 1647.2 1654.4 1669.2
  3155.0 3155.6 3158.5 3160.0 3162.2 3166.1 3166.7 3168.5 3173.9 3174.0
  3178.1 3185.3 3198.5 3199.1 3269.4 3312.5 3380.1 3455.6 3501.1 3599.6
  3690.3
 g94    symmetries=
                                                A"     A"     A"     A"
      A"     A"     A"     A"     A'     A"     A'     A"     A"     A'
      A"     A"     A"     A'     A'     A"     A"     A'     A'     A"
      A"     A'     A'     A"     A'     A"     A'     A"     A'     A'
      A'     A"     A"     A'     A"     A"     A"     A"     A'     A'
      A"     A'     A"     A'     A'     A"     A"     A'     A"     A'
      A"     A'     A"     A"     A'     A'     A"     A"     A"     A'
      A"     A"     A"     A'     A"     A"     A'     A"     A'     A"
      A'     A"     A"     A"     A"     A"     A"     A"     A"     A"
      A'     A'     A'     A'     A'     A'     A'     A'     A'     A'
      A'     A'     A'     A'     A'     A'     A'     A'     A'     A'
      A'     A'     A'     A'     A'     A'     A'     A'     A'     A'
      A'     A'     A'     A'     A'     A'     A'     A'     A'     A'
      A'     A'     A'     A'     A'     A'     A'     A'     A'     A'
      A'     A'     A'     A'     A'     A'     A'     A'     A'     A'
      A'     A'     A'     A'     A'     A'     A'     A'     A'     A'
      A'     A'     A'     A'     A'     A'     A'     A'     A'     A'
      A'
 atomic masses:
 12.0000 12.0000 12.0000 12.0000 12.0000 12.0000 12.0000 12.0000 12.0000 12.0000
 12.0000 12.0000 12.0000 12.0000 12.0000 12.0000 12.0000 12.0000 12.0000 12.0000
 12.0000 14.0031 12.0000 12.0000 12.0000 12.0000 12.0000 12.0000 31.9721 12.0000
 12.0000 12.0000 12.0000 12.0000 12.0000 12.0000  1.0078  1.0078  1.0078  1.0078
  1.0078  1.0078  1.0078  1.0078  1.0078  1.0078  1.0078  1.0078  1.0078  1.0078
  1.0078  1.0078  1.0078  1.0078  1.0078  1.0078  1.0078
 looking for force constants in 
 ./phenothiazine-pyrene_1_C0S0.fchk                                             
  
 Cartesian Force Constants                  R   N=       14706                  
  
 n3=         171       14706
 g94-fc frequencies=
  -610.8 -507.9 -224.8 -139.2  -70.4  -65.8  -25.6   -2.0   -0.0   -0.0
     0.0    1.6    2.3   25.2   55.6   73.7  138.0  145.6  160.7  179.7
   197.9  218.5  233.9  240.5  267.2  280.9  302.9  316.2  318.6  329.8
   348.1  373.5  387.5  395.0  428.9  433.9  440.4  454.6  479.6  484.7
   497.9  502.4  517.3  517.5  530.5  534.9  548.7  556.8  562.0  570.2
   583.1  610.4  614.3  636.3  643.9  649.2  659.9  683.6  690.5  697.6
   706.9  710.4  724.2  731.0  733.7  747.1  754.4  768.7  777.1  778.0
   781.0  804.2  808.2  827.6  832.9  838.2  845.4  849.7  858.8  899.3
   903.0  905.2  908.2  922.2  938.4  959.4  968.1  970.0  977.7  987.6
   990.4 1012.6 1026.1 1054.7 1060.7 1079.1 1089.0 1100.2 1120.4 1124.5
  1130.2 1132.2 1155.3 1160.3 1163.1 1171.5 1176.3 1184.4 1191.9 1203.1
  1221.7 1239.0 1242.7 1256.5 1257.4 1271.3 1277.9 1288.5 1289.8 1294.1
  1299.3 1313.2 1341.0 1358.5 1375.1 1386.9 1410.8 1420.9 1437.6 1449.4
  1462.6 1468.8 1469.3 1492.2 1502.2 1520.7 1526.7 1546.5 1572.3 1594.7
  1604.1 1618.8 1625.1 1628.0 1634.5 1640.1 1641.1 1647.2 1654.5 1669.2
  3155.0 3155.6 3158.5 3160.0 3162.3 3166.1 3166.7 3168.5 3174.0 3174.1
  3178.2 3185.4 3198.6 3199.2 3269.4 3312.6 3380.2 3455.7 3501.2 3599.7
  3690.4
 at 99999: n3=         171
 symm operator            1 :  F  nop=           0
 symm operator            2 :  F  nop=           0
 symm operator            3 :  F  nop=           0
 symm operator            4 :  F  nop=           0
 symm operator            5 :  T  nop=           1
 symm operator            6 :  F  nop=           1
 symm operator            7 :  F  nop=           1
 The point group of the molecule is  CS
 enforcing symm op           5  jsymt=           1           1          -1
 cartesian coord symmetries:
 A' :  114 A" :   57
 Symmetry rotation matrix:
   1.00000   0.00000   0.00000
   0.00000   1.00000   0.00000
   0.00000   0.00000   1.00000

 Projecting out zero-frequency components
 generating redundant internal coords
         300        3600          57
 search for int coords
   1 str   2   1   1.377
   2 str   3   2   1.396
   3 str   4   3   1.524
   4 str   5   4   1.409
   5 str   6   5   1.378
   6 str   7   6   1.392
   7 str   8   7   1.433
   8 str   9   8   1.355
   9 str  10   9   1.432
  10 str  11  10   1.402
  11 str  12  11   1.391
  12 str  13  12   1.389
  13 str  14  13   1.403
  14 str  15  14   1.424
  15 str  16  15   1.358
  16 str  17   4   1.444
  17 str  17  16   1.442
  18 str  18   7   1.424
  19 str  18  17   1.448
  20 str  19  10   1.431
  21 str  19  14   1.422
  22 str  19  18   1.435
  23 str  20   3   1.420
  24 str  21  20   1.419
  25 str  22  21   1.500
  26 str  23  22   1.498
  27 str  24  23   1.415
  28 str  25  24   1.393
  29 str  26  25   1.379
  30 str  27  26   1.378
  31 str  28  23   1.422
  32 str  28  27   1.402
  33 str  29  28   1.744
  34 str  30  29   1.743
  35 str  31  30   1.402
  36 str  32  31   1.378
  37 str  33  32   1.379
  38 str  34  33   1.393
  39 str  35  22   1.495
  40 str  35  30   1.423
  41 str  35  34   1.415
  42 str  36   1   1.384
  43 str  36  21   1.417
  44 str  37   1   1.085
  45 str  38   2   1.069
  46 str  39   5   1.075
  47 str  40   6   1.085
  48 str  41   8   1.085
  49 str  42   9   1.085
  50 str  43  11   1.085
  51 str  44  12   1.084
  52 str  45  13   1.085
  53 str  46  15   1.085
  54 str  47  16   1.068
  55 str  48  20   1.043
  56 str  49  24   1.052
  57 str  50  25   1.084
  58 str  51  26   1.083
  59 str  52  27   1.085
  60 str  53  31   1.085
  61 str  54  32   1.083
  62 str  55  33   1.084
  63 str  56  34   1.052
  64 str  56  48   1.296
  65 str  57  36   1.053
 nber stretches=          65
  66 ben   1   2   3
  67 prop tor   1   2   3   4
  68 prop tor   1   2   3  20
  69 ben   1   2  38
  70 ben   1  36  21
  71 ben   1  36  57
  72 ben   2   1  36
  73 prop tor   2   1  36  21
  74 prop tor   2   1  36  57
  75 ben   2   1  37
  76 ben   2   3   4
  77 prop tor   2   3   4   5
  78 prop tor   2   3   4  17
  79 ben   2   3  20
  80 prop tor   2   3  20  21
  81 prop tor   2   3  20  48
  82 ben   3   2  38
  83 ben   3   4   5
  84 prop tor   3   4   5   6
  85 prop tor   3   4   5  39
  86 ben   3   4  17
  87 prop tor   3   4  17  16
  88 prop tor   3   4  17  18
  89 ben   3  20  21
  90 prop tor   3  20  21  22
  91 prop tor   3  20  21  36
  92 ben   3  20  48
  93 prop tor   3  20  48  56
  94 ben   4   3  20
  95 prop tor   4   3  20  21
  96 prop tor   4   3  20  48
  97 ben   4   5   6
  98 prop tor   4   5   6   7
  99 prop tor   4   5   6  40
 100 ben   4   5  39
 101 ben   4  17  16
 102 ben   4  17  18
 103 prop tor   4  17  18   7
 104 prop tor   4  17  18  19
 105 ben   5   4  17
 106 prop tor   5   4  17  16
 107 prop tor   5   4  17  18
 108 ben   5   6   7
 109 prop tor   5   6   7   8
 110 prop tor   5   6   7  18
 111 ben   5   6  40
 112 ben   6   5  39
 113 ben   6   7   8
 114 prop tor   6   7   8   9
 115 prop tor   6   7   8  41
 116 ben   6   7  18
 117 prop tor   6   7  18  17
 118 prop tor   6   7  18  19
 119 ben   7   6  40
 120 ben   7   8   9
 121 prop tor   7   8   9  10
 122 prop tor   7   8   9  42
 123 ben   7   8  41
 124 ben   7  18  17
 125 ben   7  18  19
 126 prop tor   7  18  19  10
 127 prop tor   7  18  19  14
 128 ben   8   7  18
 129 prop tor   8   7  18  17
 130 prop tor   8   7  18  19
 131 ben   8   9  10
 132 prop tor   8   9  10  11
 133 prop tor   8   9  10  19
 134 ben   8   9  42
 135 ben   9   8  41
 136 ben   9  10  11
 137 prop tor   9  10  11  12
 138 prop tor   9  10  11  43
 139 ben   9  10  19
 140 prop tor   9  10  19  14
 141 prop tor   9  10  19  18
 142 ben  10   9  42
 143 ben  10  11  12
 144 prop tor  10  11  12  13
 145 prop tor  10  11  12  44
 146 ben  10  11  43
 147 ben  10  19  14
 148 ben  10  19  18
 149 ben  11  10  19
 150 prop tor  11  10  19  14
 151 prop tor  11  10  19  18
 152 ben  11  12  13
 153 prop tor  11  12  13  14
 154 prop tor  11  12  13  45
 155 ben  11  12  44
 156 ben  12  11  43
 157 ben  12  13  14
 158 prop tor  12  13  14  15
 159 prop tor  12  13  14  19
 160 ben  12  13  45
 161 ben  13  12  44
 162 ben  13  14  15
 163 prop tor  13  14  15  16
 164 prop tor  13  14  15  46
 165 ben  13  14  19
 166 prop tor  13  14  19  10
 167 prop tor  13  14  19  18
 168 ben  14  13  45
 169 ben  14  15  16
 170 prop tor  14  15  16  17
 171 prop tor  14  15  16  47
 172 ben  14  15  46
 173 ben  14  19  18
 174 ben  15  14  19
 175 prop tor  15  14  19  10
 176 prop tor  15  14  19  18
 177 ben  15  16  17
 178 prop tor  15  16  17   4
 179 prop tor  15  16  17  18
 180 ben  15  16  47
 181 ben  16  15  46
 182 ben  16  17  18
 183 prop tor  16  17  18   7
 184 prop tor  16  17  18  19
 185 prop tor  17   4   5   6
 186 prop tor  17   4   5  39
 187 ben  17  16  47
 188 ben  17  18  19
 189 prop tor  17  18  19  10
 190 prop tor  17  18  19  14
 191 prop tor  18   7   8   9
 192 prop tor  18   7   8  41
 193 prop tor  19  10  11  12
 194 prop tor  19  10  11  43
 195 prop tor  19  14  15  16
 196 prop tor  19  14  15  46
 197 prop tor  20   3   4   5
 198 prop tor  20   3   4  17
 199 ben  20  21  22
 200 prop tor  20  21  22  23
 201 prop tor  20  21  22  35
 202 ben  20  21  36
 203 prop tor  20  21  36   1
 204 prop tor  20  21  36  57
 205 ben  20  48  56
 206 prop tor  20  48  56  34
 207 ben  21  20  48
 208 prop tor  21  20  48  56
 209 ben  21  22  23
 210 prop tor  21  22  23  24
 211 prop tor  21  22  23  28
 212 ben  21  22  35
 213 prop tor  21  22  35  30
 214 prop tor  21  22  35  34
 215 ben  21  36  57
 216 ben  22  21  36
 217 prop tor  22  21  36   1
 218 prop tor  22  21  36  57
 219 ben  22  23  24
 220 prop tor  22  23  24  25
 221 prop tor  22  23  24  49
 222 ben  22  23  28
 223 prop tor  22  23  28  27
 224 prop tor  22  23  28  29
 225 ben  22  35  30
 226 ben  22  35  34
 227 ben  23  22  35
 228 prop tor  23  22  35  30
 229 prop tor  23  22  35  34
 230 ben  23  24  25
 231 prop tor  23  24  25  26
 232 prop tor  23  24  25  50
 233 ben  23  24  49
 234 ben  23  28  27
 235 ben  23  28  29
 236 prop tor  23  28  29  30
 237 ben  24  23  28
 238 prop tor  24  23  28  27
 239 prop tor  24  23  28  29
 240 ben  24  25  26
 241 prop tor  24  25  26  27
 242 prop tor  24  25  26  51
 243 ben  24  25  50
 244 ben  25  24  49
 245 ben  25  26  27
 246 prop tor  25  26  27  28
 247 prop tor  25  26  27  52
 248 ben  25  26  51
 249 ben  26  25  50
 250 ben  26  27  28
 251 prop tor  26  27  28  23
 252 prop tor  26  27  28  29
 253 ben  26  27  52
 254 ben  27  26  51
 255 ben  27  28  29
 256 prop tor  27  28  29  30
 257 prop tor  28  23  24  25
 258 prop tor  28  23  24  49
 259 ben  28  27  52
 260 ben  28  29  30
 261 prop tor  28  29  30  31
 262 prop tor  28  29  30  35
 263 ben  29  30  31
 264 prop tor  29  30  31  32
 265 prop tor  29  30  31  53
 266 ben  29  30  35
 267 prop tor  29  30  35  22
 268 prop tor  29  30  35  34
 269 ben  30  31  32
 270 prop tor  30  31  32  33
 271 prop tor  30  31  32  54
 272 ben  30  31  53
 273 ben  30  35  34
 274 ben  31  30  35
 275 prop tor  31  30  35  22
 276 prop tor  31  30  35  34
 277 ben  31  32  33
 278 prop tor  31  32  33  34
 279 prop tor  31  32  33  55
 280 ben  31  32  54
 281 ben  32  31  53
 282 ben  32  33  34
 283 prop tor  32  33  34  35
 284 prop tor  32  33  34  56
 285 ben  32  33  55
 286 ben  33  32  54
 287 ben  33  34  35
 288 prop tor  33  34  35  22
 289 prop tor  33  34  35  30
 290 ben  33  34  56
 291 prop tor  33  34  56  48
 292 ben  34  33  55
 293 ben  34  56  48
 294 prop tor  35  22  23  24
 295 prop tor  35  22  23  28
 296 prop tor  35  30  31  32
 297 prop tor  35  30  31  53
 298 ben  35  34  56
 299 prop tor  35  34  56  48
 300 prop tor  36   1   2   3
 301 prop tor  36   1   2  38
 302 ben  36   1  37
 303 prop tor  36  21  22  23
 304 prop tor  36  21  22  35
 305 prop tor  37   1   2   3
 306 prop tor  37   1   2  38
 307 prop tor  37   1  36  21
 308 prop tor  37   1  36  57
 309 prop tor  38   2   3   4
 310 prop tor  38   2   3  20
 311 prop tor  39   5   6   7
 312 prop tor  39   5   6  40
 313 prop tor  40   6   7   8
 314 prop tor  40   6   7  18
 315 prop tor  41   8   9  10
 316 prop tor  41   8   9  42
 317 prop tor  42   9  10  11
 318 prop tor  42   9  10  19
 319 prop tor  43  11  12  13
 320 prop tor  43  11  12  44
 321 prop tor  44  12  13  14
 322 prop tor  44  12  13  45
 323 prop tor  45  13  14  15
 324 prop tor  45  13  14  19
 325 prop tor  46  15  16  17
 326 prop tor  46  15  16  47
 327 prop tor  47  16  17   4
 328 prop tor  47  16  17  18
 329 prop tor  48  20  21  22
 330 prop tor  48  20  21  36
 331 prop tor  49  24  25  26
 332 prop tor  49  24  25  50
 333 prop tor  50  25  26  27
 334 prop tor  50  25  26  51
 335 prop tor  51  26  27  28
 336 prop tor  51  26  27  52
 337 prop tor  52  27  28  23
 338 prop tor  52  27  28  29
 339 prop tor  53  31  32  33
 340 prop tor  53  31  32  54
 341 prop tor  54  32  33  34
 342 prop tor  54  32  33  55
 343 prop tor  55  33  34  35
 344 prop tor  55  33  34  56
 345 prop tor  56  34  35  22
 346 prop tor  56  34  35  30
 nber bend=             108
 nber lin bend=           0
 nber prop tor=         173
 nber impr tor=           0
 nber tot redund int=         346
 Eigenvalues of G in red int coords
    Gval -0.00000000 -0.00000000 -0.00000000 -0.00000000 -0.00000000 -0.00000000 -0.00000000 -0.00000000
    Gval -0.00000000 -0.00000000 -0.00000000 -0.00000000 -0.00000000 -0.00000000 -0.00000000 -0.00000000
    Gval -0.00000000 -0.00000000 -0.00000000 -0.00000000 -0.00000000 -0.00000000 -0.00000000 -0.00000000
    Gval -0.00000000 -0.00000000 -0.00000000 -0.00000000 -0.00000000 -0.00000000 -0.00000000 -0.00000000
    Gval -0.00000000 -0.00000000 -0.00000000 -0.00000000 -0.00000000 -0.00000000 -0.00000000 -0.00000000
    Gval -0.00000000 -0.00000000 -0.00000000 -0.00000000 -0.00000000 -0.00000000 -0.00000000 -0.00000000
    Gval -0.00000000 -0.00000000 -0.00000000 -0.00000000 -0.00000000 -0.00000000 -0.00000000 -0.00000000
    Gval -0.00000000 -0.00000000 -0.00000000 -0.00000000 -0.00000000 -0.00000000 -0.00000000 -0.00000000
    Gval -0.00000000 -0.00000000 -0.00000000 -0.00000000 -0.00000000 -0.00000000 -0.00000000 -0.00000000
    Gval -0.00000000 -0.00000000 -0.00000000 -0.00000000 -0.00000000 -0.00000000 -0.00000000 -0.00000000
    Gval -0.00000000 -0.00000000 -0.00000000 -0.00000000 -0.00000000  0.00000000  0.00000000  0.00000000
    Gval  0.00000000  0.00000000  0.00000000  0.00000000  0.00000000  0.00000000  0.00000000  0.00000000
    Gval  0.00000000  0.00000000  0.00000000  0.00000000  0.00000000  0.00000000  0.00000000  0.00000000
    Gval  0.00000000  0.00000000  0.00000000  0.00000000  0.00000000  0.00000000  0.00000000  0.00000000
    Gval  0.00000000  0.00000000  0.00000000  0.00000000  0.00000000  0.00000000  0.00000000  0.00000000
    Gval  0.00000000  0.00000000  0.00000000  0.00000000  0.00000000  0.00000000  0.00000000  0.00000000
    Gval  0.00000000  0.00000000  0.00000000  0.00000000  0.00000000  0.00000000  0.00000000  0.00000000
    Gval  0.00000000  0.00000000  0.00000000  0.00000000  0.00000000  0.00000000  0.00000000  0.00000000
    Gval  0.00000000  0.00000000  0.00000000  0.00000000  0.00000000  0.00000000  0.00000000  0.00000000
    Gval  0.00000000  0.00000000  0.00000000  0.00000000  0.00000000  0.00000000  0.00000000  0.00000000
    Gval  0.00000000  0.00000000  0.00000000  0.00000000  0.00000000  0.00000000  0.00000000  0.00000000
    Gval  0.00000000  0.00000000  0.00000000  0.00000000  0.00000000  0.00000000  0.00000000  0.00000000
    Gval  0.00000000  0.00000000  0.00000000  0.00000000  0.00000000  0.00000030  0.00000134  0.00000192
    Gval  0.00000254  0.00000295  0.00000658  0.00000939  0.00001040  0.00001291  0.00001512  0.00001709
    Gval  0.00001920  0.00002170  0.00002291  0.00002377  0.00002435  0.00002825  0.00002925  0.00003191
    Gval  0.00004133  0.00004170  0.00004833  0.00004854  0.00005290  0.00005652  0.00005705  0.00006123
    Gval  0.00006127  0.00006333  0.00006815  0.00006919  0.00007153  0.00007227  0.00007444  0.00007778
    Gval  0.00007831  0.00008045  0.00008928  0.00009013  0.00009358  0.00010308  0.00010676  0.00010904
    Gval  0.00011168  0.00012434  0.00012975  0.00013178  0.00013500  0.00013981  0.00014414  0.00014570
    Gval  0.00015165  0.00017193  0.00017354  0.00018093  0.00018684  0.00019046  0.00019833  0.00021003
    Gval  0.00021086  0.00022969  0.00023186  0.00024655  0.00025805  0.00025877  0.00028188  0.00030438
    Gval  0.00031442  0.00032349  0.00033466  0.00033865  0.00037038  0.00037226  0.00037760  0.00037913
    Gval  0.00038967  0.00039598  0.00040359  0.00041713  0.00042233  0.00042834  0.00044307  0.00045036
    Gval  0.00047675  0.00048906  0.00059331  0.00059378  0.00059391  0.00059422  0.00059664  0.00059683
    Gval  0.00059833  0.00059962  0.00060739  0.00060768  0.00060840  0.00061925  0.00063387  0.00064252
    Gval  0.00064728  0.00064765  0.00064898  0.00065451  0.00065669  0.00065932  0.00070020  0.00074795
    Gval  0.00078506  0.00081067  0.00081734  0.00084873  0.00090258  0.00098077  0.00101722  0.00102891
    Gval  0.00106151  0.00106548  0.00107558  0.00108471  0.00109192  0.00109886  0.00110201  0.00113213
    Gval  0.00113925  0.00113961  0.00116293  0.00116432  0.00116917  0.00117363  0.00117864  0.00117875
    Gval  0.00117983  0.00118642  0.00119097  0.00119177  0.00140137  0.00154506  0.00172274  0.00176094
    Gval  0.00183441  0.00186483  0.00192780  0.00192944  0.00213392  0.00223883  0.00230430  0.00232857
    Gval  0.00252208  0.00255812  0.00263433  0.00274138  0.00296582  0.00310706  0.00335737  0.00350019
    Gval  0.00356734  0.00365562  0.00374794  0.00390352  0.00393641  0.00401110  0.00408661  0.00412794
    Gval  0.00563158  0.03555323
  3.035134659556130E-007  3.035134659556130E-007
  1.338297788470168E-006  3.035134659556130E-007
  1.924292807360403E-006  3.035134659556130E-007
  2.544534712666587E-006  3.035134659556130E-007
  2.952282583258996E-006  3.035134659556130E-007
  6.578730356236203E-006  3.035134659556130E-007
  9.390941505799432E-006  3.035134659556130E-007
  1.040123441367739E-005  3.035134659556130E-007
  1.290838592580843E-005  3.035134659556130E-007
  1.512074116628263E-005  3.035134659556130E-007
  1.709465218608670E-005  3.035134659556130E-007
  1.920087467936768E-005  3.035134659556130E-007
  2.169883761852291E-005  3.035134659556130E-007
  2.291054396162741E-005  3.035134659556130E-007
  2.376532551516788E-005  3.035134659556130E-007
  2.435361934863525E-005  3.035134659556130E-007
  2.825225806907734E-005  3.035134659556130E-007
  2.924972161711915E-005  3.035134659556130E-007
  3.191305672412247E-005  3.035134659556130E-007
  4.133011803621780E-005  3.035134659556130E-007
  4.170453692849236E-005  3.035134659556130E-007
  4.832500431778673E-005  3.035134659556130E-007
  4.853741815227843E-005  3.035134659556130E-007
  5.289553391025194E-005  3.035134659556130E-007
  5.652485658639407E-005  3.035134659556130E-007
  5.705274713666792E-005  3.035134659556130E-007
  6.123298145308167E-005  3.035134659556130E-007
  6.126975960970334E-005  3.035134659556130E-007
  6.332551635052388E-005  3.035134659556130E-007
  6.815217276721706E-005  3.035134659556130E-007
  6.919307063869022E-005  3.035134659556130E-007
  7.152889178745264E-005  3.035134659556130E-007
  7.226755717093431E-005  3.035134659556130E-007
  7.443607654847325E-005  3.035134659556130E-007
  7.777898781556005E-005  3.035134659556130E-007
  7.830653891190893E-005  3.035134659556130E-007
  8.045183557265397E-005  3.035134659556130E-007
  8.927521846103744E-005  3.035134659556130E-007
  9.013374120257927E-005  3.035134659556130E-007
  9.358296289262234E-005  3.035134659556130E-007
  1.030767430594163E-004  3.035134659556130E-007
  1.067591285164843E-004  3.035134659556130E-007
  1.090396319087270E-004  3.035134659556130E-007
  1.116761281812937E-004  3.035134659556130E-007
  1.243406987916981E-004  3.035134659556130E-007
  1.297549686668654E-004  3.035134659556130E-007
  1.317777914754678E-004  3.035134659556130E-007
  1.349972632800063E-004  3.035134659556130E-007
  1.398062233293039E-004  3.035134659556130E-007
  1.441414611244418E-004  3.035134659556130E-007
  1.456950513812800E-004  3.035134659556130E-007
  1.516499298202235E-004  3.035134659556130E-007
  1.719254872524239E-004  3.035134659556130E-007
  1.735426669300424E-004  3.035134659556130E-007
  1.809338396878207E-004  3.035134659556130E-007
  1.868444729518250E-004  3.035134659556130E-007
  1.904642357211286E-004  3.035134659556130E-007
  1.983348731231618E-004  3.035134659556130E-007
  2.100278579125587E-004  3.035134659556130E-007
  2.108556395660859E-004  3.035134659556130E-007
  2.296876117533312E-004  3.035134659556130E-007
  2.318612944735330E-004  3.035134659556130E-007
  2.465520285566643E-004  3.035134659556130E-007
  2.580502082456608E-004  3.035134659556130E-007
  2.587727929307483E-004  3.035134659556130E-007
  2.818800546114180E-004  3.035134659556130E-007
  3.043755186463502E-004  3.035134659556130E-007
  3.144155969222229E-004  3.035134659556130E-007
  3.234852654825363E-004  3.035134659556130E-007
  3.346647486793266E-004  3.035134659556130E-007
  3.386543875475974E-004  3.035134659556130E-007
  3.703757818876252E-004  3.035134659556130E-007
  3.722610192208927E-004  3.035134659556130E-007
  3.775966118971574E-004  3.035134659556130E-007
  3.791254552416027E-004  3.035134659556130E-007
  3.896675043858674E-004  3.035134659556130E-007
  3.959762694880312E-004  3.035134659556130E-007
  4.035866584818517E-004  3.035134659556130E-007
  4.171331462695019E-004  3.035134659556130E-007
  4.223323173443286E-004  3.035134659556130E-007
  4.283442983152331E-004  3.035134659556130E-007
  4.430684829943638E-004  3.035134659556130E-007
  4.503617868558336E-004  3.035134659556130E-007
  4.767499314441107E-004  3.035134659556130E-007
  4.890613350103062E-004  3.035134659556130E-007
  5.933058744031955E-004  3.035134659556130E-007
  5.937803167486434E-004  3.035134659556130E-007
  5.939073069034209E-004  3.035134659556130E-007
  5.942218702503303E-004  3.035134659556130E-007
  5.966372557328272E-004  3.035134659556130E-007
  5.968322896117551E-004  3.035134659556130E-007
  5.983251408909699E-004  3.035134659556130E-007
  5.996184055539957E-004  3.035134659556130E-007
  6.073902510521165E-004  3.035134659556130E-007
  6.076773389727142E-004  3.035134659556130E-007
  6.083989283524791E-004  3.035134659556130E-007
  6.192478827214209E-004  3.035134659556130E-007
  6.338748156895776E-004  3.035134659556130E-007
  6.425190128272864E-004  3.035134659556130E-007
  6.472772119918519E-004  3.035134659556130E-007
  6.476456359851503E-004  3.035134659556130E-007
  6.489759489997213E-004  3.035134659556130E-007
  6.545069503775905E-004  3.035134659556130E-007
  6.566939976941475E-004  3.035134659556130E-007
  6.593209315360674E-004  3.035134659556130E-007
  7.001971535117119E-004  3.035134659556130E-007
  7.479526287345096E-004  3.035134659556130E-007
  7.850607959324338E-004  3.035134659556130E-007
  8.106720778462595E-004  3.035134659556130E-007
  8.173432544513425E-004  3.035134659556130E-007
  8.487335561029642E-004  3.035134659556130E-007
  9.025783510454849E-004  3.035134659556130E-007
  9.807673080928438E-004  3.035134659556130E-007
  1.017220820950776E-003  3.035134659556130E-007
  1.028908920223437E-003  3.035134659556130E-007
  1.061514872086457E-003  3.035134659556130E-007
  1.065479897282630E-003  3.035134659556130E-007
  1.075584756695675E-003  3.035134659556130E-007
  1.084714930550015E-003  3.035134659556130E-007
  1.091915040398704E-003  3.035134659556130E-007
  1.098864618129034E-003  3.035134659556130E-007
  1.102005895324450E-003  3.035134659556130E-007
  1.132131805477744E-003  3.035134659556130E-007
  1.139247796278397E-003  3.035134659556130E-007
  1.139612336846844E-003  3.035134659556130E-007
  1.162930773879742E-003  3.035134659556130E-007
  1.164319788969396E-003  3.035134659556130E-007
  1.169169630850343E-003  3.035134659556130E-007
  1.173633831969800E-003  3.035134659556130E-007
  1.178643912464427E-003  3.035134659556130E-007
  1.178745138888069E-003  3.035134659556130E-007
  1.179825766900861E-003  3.035134659556130E-007
  1.186416017232515E-003  3.035134659556130E-007
  1.190966163996985E-003  3.035134659556130E-007
  1.191765752841162E-003  3.035134659556130E-007
  1.401370963729347E-003  3.035134659556130E-007
  1.545055486735506E-003  3.035134659556130E-007
  1.722737484634154E-003  3.035134659556130E-007
  1.760937529814099E-003  3.035134659556130E-007
  1.834406371564857E-003  3.035134659556130E-007
  1.864834263823327E-003  3.035134659556130E-007
  1.927804434650128E-003  3.035134659556130E-007
  1.929438456399403E-003  3.035134659556130E-007
  2.133922234136156E-003  3.035134659556130E-007
  2.238833635518659E-003  3.035134659556130E-007
  2.304297815655104E-003  3.035134659556130E-007
  2.328572986004051E-003  3.035134659556130E-007
  2.522082269665979E-003  3.035134659556130E-007
  2.558117764241156E-003  3.035134659556130E-007
  2.634327793611308E-003  3.035134659556130E-007
  2.741377606538481E-003  3.035134659556130E-007
  2.965817139709343E-003  3.035134659556130E-007
  3.107059130299281E-003  3.035134659556130E-007
  3.357370508918715E-003  3.035134659556130E-007
  3.500191579663800E-003  3.035134659556130E-007
  3.567343324884656E-003  3.035134659556130E-007
  3.655620979925018E-003  3.035134659556130E-007
  3.747940734055836E-003  3.035134659556130E-007
  3.903520972630482E-003  3.035134659556130E-007
  3.936411605792840E-003  3.035134659556130E-007
  4.011096001252456E-003  3.035134659556130E-007
  4.086608096706078E-003  3.035134659556130E-007
  4.127937237209203E-003  3.035134659556130E-007
  5.631584201401692E-003  3.035134659556130E-007
  3.555322515103338E-002  3.035134659556130E-007
 cut=1d-8, nber non-redundant internal coords=         165
 Check on Eigenvals of non-red overlap matrix:
  0.00000030  0.00000134  0.00000192  0.00000254  0.00000295  0.00000658  0.00000939  0.00001040
  0.00001291  0.00001512  0.00001709  0.00001920  0.00002170  0.00002291  0.00002377  0.00002435
  0.00002825  0.00002925  0.00003191  0.00004133  0.00004170  0.00004833  0.00004854  0.00005290
  0.00005652  0.00005705  0.00006123  0.00006127  0.00006333  0.00006815  0.00006919  0.00007153
  0.00007227  0.00007444  0.00007778  0.00007831  0.00008045  0.00008928  0.00009013  0.00009358
  0.00010308  0.00010676  0.00010904  0.00011168  0.00012434  0.00012975  0.00013178  0.00013500
  0.00013981  0.00014414  0.00014570  0.00015165  0.00017193  0.00017354  0.00018093  0.00018684
  0.00019046  0.00019833  0.00021003  0.00021086  0.00022969  0.00023186  0.00024655  0.00025805
  0.00025877  0.00028188  0.00030438  0.00031442  0.00032349  0.00033466  0.00033865  0.00037038
  0.00037226  0.00037760  0.00037913  0.00038967  0.00039598  0.00040359  0.00041713  0.00042233
  0.00042834  0.00044307  0.00045036  0.00047675  0.00048906  0.00059331  0.00059378  0.00059391
  0.00059422  0.00059664  0.00059683  0.00059833  0.00059962  0.00060739  0.00060768  0.00060840
  0.00061925  0.00063387  0.00064252  0.00064728  0.00064765  0.00064898  0.00065451  0.00065669
  0.00065932  0.00070020  0.00074795  0.00078506  0.00081067  0.00081734  0.00084873  0.00090258
  0.00098077  0.00101722  0.00102891  0.00106151  0.00106548  0.00107558  0.00108471  0.00109192
  0.00109886  0.00110201  0.00113213  0.00113925  0.00113961  0.00116293  0.00116432  0.00116917
  0.00117363  0.00117864  0.00117875  0.00117983  0.00118642  0.00119097  0.00119177  0.00140137
  0.00154506  0.00172274  0.00176094  0.00183441  0.00186483  0.00192780  0.00192944  0.00213392
  0.00223883  0.00230430  0.00232857  0.00252208  0.00255812  0.00263433  0.00274138  0.00296582
  0.00310706  0.00335737  0.00350019  0.00356734  0.00365562  0.00374794  0.00390352  0.00393641
  0.00401110  0.00408661  0.00412794  0.00563158  0.03555323
 Checking for correct frequencies
 recalc frequencies=
  -610.8 -507.9 -224.8 -139.2  -70.4  -65.8  -25.5   -0.0   -0.0   -0.0
     0.0    0.0    0.0   25.2   55.6   73.7  138.0  145.6  160.7  179.7
   197.9  218.5  233.9  240.5  267.2  280.9  302.9  316.2  318.6  329.8
   348.1  373.5  387.5  395.0  428.9  433.9  440.4  454.6  479.6  484.7
   497.9  502.4  517.3  517.5  530.5  534.9  548.7  556.8  562.0  570.2
   583.1  610.4  614.3  636.3  643.9  649.2  659.9  683.6  690.5  697.6
   706.9  710.4  724.2  731.0  733.7  747.1  754.4  768.7  777.1  778.0
   781.0  804.2  808.2  827.6  832.9  838.2  845.4  849.7  858.8  899.3
   903.0  905.2  908.2  922.2  938.4  959.4  968.1  970.0  977.7  987.6
   990.4 1012.6 1026.1 1054.7 1060.7 1079.1 1089.0 1100.2 1120.4 1124.5
  1130.2 1132.2 1155.3 1160.3 1163.1 1171.5 1176.3 1184.4 1191.9 1203.1
  1221.7 1239.0 1242.7 1256.5 1257.4 1271.3 1277.9 1288.5 1289.8 1294.1
  1299.3 1313.2 1341.0 1358.5 1375.1 1386.9 1410.8 1420.9 1437.6 1449.4
  1462.6 1468.8 1469.3 1492.2 1502.2 1520.7 1526.7 1546.5 1572.3 1594.7
  1604.1 1618.8 1625.1 1628.0 1634.5 1640.1 1641.1 1647.2 1654.5 1669.2
  3155.0 3155.6 3158.5 3160.0 3162.3 3166.1 3166.7 3168.5 3174.0 3174.1
  3178.2 3185.4 3198.6 3199.2 3269.4 3312.6 3380.2 3455.7 3501.2 3599.7
  3690.4
 recalc symmetries=
     A"     A"     A"     A"     A"     A"     A"     A'     A'     A" 
     A"     A"     A'     A"     A'     A"     A'     A"     A"     A' 
     A"     A"     A"     A'     A'     A"     A"     A'     A'     A" 
     A"     A'     A'     A"     A'     A"     A'     A"     A'     A' 
     A'     A"     A"     A'     A"     A"     A"     A"     A'     A' 
     A"     A'     A"     A'     A'     A"     A"     A'     A"     A' 
     A"     A'     A"     A"     A'     A'     A"     A"     A"     A' 
     A"     A"     A"     A'     A"     A"     A'     A"     A'     A" 
     A'     A"     A"     A"     A"     A"     A"     A"     A"     A" 
     A'     A'     A'     A'     A'     A'     A'     A'     A'     A' 
     A'     A'     A'     A'     A'     A'     A'     A'     A'     A' 
     A'     A'     A'     A'     A'     A'     A'     A'     A'     A' 
     A'     A'     A'     A'     A'     A'     A'     A'     A'     A' 
     A'     A'     A'     A'     A'     A'     A'     A'     A'     A' 
     A'     A'     A'     A'     A'     A'     A'     A'     A'     A' 
     A'     A'     A'     A'     A'     A'     A'     A'     A'     A' 
     A'     A'     A'     A'     A'     A'     A'     A'     A'     A' 
     A' 
 recalc freqs check OK
 Zero-point lengths:
 10.0311 11.0004 16.5340 21.0162 29.5524 30.5653 49.0487 10.0000 10.0000 10.0000
 10.0000 10.0000 10.0000 49.3684 33.2478 28.8861 21.1056 20.5428 19.5583 18.4954
 17.6222 16.7722 16.2116 15.9854 15.1664 14.7910 14.2439 13.9411 13.8889 13.6522
 13.2876 12.8277 12.5941 12.4733 11.9705 11.9014 11.8136 11.6271 11.3201 11.2600
 11.1100 11.0599 10.9005 10.8983 10.7636 10.7189 10.5838 10.5060 10.4576 10.3818
 10.2669 10.0342 10.0024  9.8279  9.7696  9.7296  9.6504  9.4820  9.4341  9.3866
  9.3246  9.3013  9.2125  9.1695  9.1524  9.0698  9.0258  8.9419  8.8933  8.8883
  8.8712  8.7421  8.7206  8.6174  8.5903  8.5628  8.5265  8.5046  8.4598  8.2667
  8.2499  8.2400  8.2263  8.1634  8.0928  8.0037  7.9677  7.9598  7.9286  7.8889
  7.8774  7.7907  7.7391  7.6336  7.6119  7.5467  7.5123  7.4740  7.4064  7.3931
  7.3744  7.3676  7.2937  7.2781  7.2692  7.2430  7.2284  7.2037  7.1809  7.1475
  7.0926  7.0431  7.0326  6.9939  6.9913  6.9531  6.9349  6.9066  6.9030  6.8914
  6.8776  6.8413  6.7700  6.7261  6.6855  6.6568  6.6002  6.5768  6.5385  6.5117
  6.4823  6.4686  6.4676  6.4178  6.3963  6.3573  6.3448  6.3040  6.2521  6.2081
  6.1899  6.1616  6.1497  6.1442  6.1321  6.1215  6.1198  6.1083  6.0949  6.0679
  4.4136  4.4132  4.4112  4.4101  4.4086  4.4059  4.4054  4.4042  4.4004  4.4004
  4.3975  4.3925  4.3835  4.3831  4.3357  4.3074  4.2641  4.2173  4.1897  4.1320
  4.0809
 highest evec of mol 1
 -0.0010 -0.0005  0.0000
 -0.0007 -0.0007  0.0000
  0.0010  0.0006  0.0000
  0.0008  0.0013  0.0000
 -0.0011  0.0066  0.0000
 -0.0000  0.0004  0.0000
  0.0000 -0.0002  0.0000
  0.0000  0.0000  0.0000
 -0.0000  0.0000  0.0000
  0.0000 -0.0000  0.0000
  0.0000  0.0000  0.0000
 -0.0000  0.0000  0.0000
  0.0000 -0.0000  0.0000
 -0.0000 -0.0000  0.0000
  0.0000  0.0000  0.0000
  0.0000 -0.0000  0.0000
 -0.0000 -0.0000  0.0000
  0.0000  0.0001  0.0000
 -0.0000  0.0000  0.0000
  0.1832  0.1348  0.0000
 -0.0039  0.0021  0.0000
  0.0007  0.0006  0.0000
  0.0002 -0.0001  0.0000
  0.0000  0.0015  0.0000
  0.0000  0.0001  0.0000
 -0.0001 -0.0000  0.0000
  0.0001 -0.0000  0.0000
 -0.0001 -0.0001  0.0000
  0.0000 -0.0000  0.0000
  0.0005  0.0011  0.0000
 -0.0004  0.0003  0.0000
 -0.0001  0.0004  0.0000
  0.0020 -0.0013  0.0000
  0.0421 -0.0846  0.0000
 -0.0037 -0.0015  0.0000
  0.0016 -0.0014  0.0000
  0.0009  0.0008  0.0000
  0.0001 -0.0019  0.0000
  0.0265 -0.0394  0.0000
  0.0001 -0.0002  0.0000
  0.0000 -0.0000  0.0000
 -0.0000  0.0000  0.0000
 -0.0000  0.0000  0.0000
  0.0000 -0.0000  0.0000
  0.0000  0.0000  0.0000
 -0.0000  0.0000  0.0000
 -0.0003  0.0000  0.0000
 -0.6710 -0.5612  0.0000
  0.0008 -0.0063  0.0000
 -0.0000 -0.0000  0.0000
  0.0001 -0.0000  0.0000
 -0.0000  0.0001  0.0000
  0.0002 -0.0006  0.0000
  0.0004  0.0002  0.0000
 -0.0034  0.0015  0.0000
 -0.1082  0.3999  0.0000
 -0.0095  0.0020  0.0000
 generating redundant internal coords
         300        3600          57
 Adding extra bonds for z output only
           6           6           6           6           6           6
           6           6           6           6           6           6
           6           6           6           6           6           6
           6           6           6           7           6           6
           6           6           6           6          16           6
           6           6           6           6           6           6
           1           1           1           1           1           1
           1           1           1           1           1           1
           1           1           1           1           1           1
           1           1           1
 search for int coords
   1 str   2   1   1.377
   2 str   3   2   1.396
   3 str   4   3   1.524
   4 str   5   4   1.409
   5 str   6   5   1.378
   6 str   7   6   1.392
   7 str   8   7   1.433
   8 str   9   8   1.355
   9 str  10   9   1.432
  10 str  11  10   1.402
  11 str  12  11   1.391
  12 str  13  12   1.389
  13 str  14  13   1.403
  14 str  15  14   1.424
  15 str  16  15   1.358
  16 str  17   4   1.444
  17 str  17  16   1.442
  18 str  18   7   1.424
  19 str  18  17   1.448
  20 str  19  10   1.431
  21 str  19  14   1.422
  22 str  19  18   1.435
  23 str  20   3   1.420
  24 str  21  20   1.419
  25 str  22  21   1.500
  26 str  23  22   1.498
  27 str  24  23   1.415
  28 str  25  24   1.393
  29 str  26  25   1.379
  30 str  27  26   1.378
  31 str  28  23   1.422
  32 str  28  27   1.402
  33 str  29  28   1.744
  34 str  30  29   1.743
  35 str  31  30   1.402
  36 str  32  31   1.378
  37 str  33  32   1.379
  38 str  34  33   1.393
  39 str  35  22   1.495
  40 str  35  30   1.423
  41 str  35  34   1.415
  42 str  36   1   1.384
  43 str  36  21   1.417
  44 str  37   1   1.085
  45 str  38   2   1.069
  46 str  39   5   1.075
  47 str  40   6   1.085
  48 str  41   8   1.085
  49 str  42   9   1.085
  50 str  43  11   1.085
  51 str  44  12   1.084
  52 str  45  13   1.085
  53 str  46  15   1.085
  54 str  47  16   1.068
  55 str  48  20   1.043
  56 str  49  24   1.052
  57 str  50  25   1.084
  58 str  51  26   1.083
  59 str  52  27   1.085
  60 str  53  31   1.085
  61 str  54  32   1.083
  62 str  55  33   1.084
  63 str  56  34   1.052
  64 str  56  48   1.296
  65 str  57  36   1.053
 nber stretches=          65
  66 ben   1   2   3
  67 prop tor   1   2   3   4
  68 prop tor   1   2   3  20
  69 ben   1   2  38
  70 ben   1  36  21
  71 ben   1  36  57
  72 ben   2   1  36
  73 prop tor   2   1  36  21
  74 prop tor   2   1  36  57
  75 ben   2   1  37
  76 ben   2   3   4
  77 prop tor   2   3   4   5
  78 prop tor   2   3   4  17
  79 ben   2   3  20
  80 prop tor   2   3  20  21
  81 prop tor   2   3  20  48
  82 ben   3   2  38
  83 ben   3   4   5
  84 prop tor   3   4   5   6
  85 prop tor   3   4   5  39
  86 ben   3   4  17
  87 prop tor   3   4  17  16
  88 prop tor   3   4  17  18
  89 ben   3  20  21
  90 prop tor   3  20  21  22
  91 prop tor   3  20  21  36
  92 ben   3  20  48
  93 prop tor   3  20  48  56
  94 ben   4   3  20
  95 prop tor   4   3  20  21
  96 prop tor   4   3  20  48
  97 ben   4   5   6
  98 prop tor   4   5   6   7
  99 prop tor   4   5   6  40
 100 ben   4   5  39
 101 ben   4  17  16
 102 ben   4  17  18
 103 prop tor   4  17  18   7
 104 prop tor   4  17  18  19
 105 ben   5   4  17
 106 prop tor   5   4  17  16
 107 prop tor   5   4  17  18
 108 ben   5   6   7
 109 prop tor   5   6   7   8
 110 prop tor   5   6   7  18
 111 ben   5   6  40
 112 ben   6   5  39
 113 ben   6   7   8
 114 prop tor   6   7   8   9
 115 prop tor   6   7   8  41
 116 ben   6   7  18
 117 prop tor   6   7  18  17
 118 prop tor   6   7  18  19
 119 ben   7   6  40
 120 ben   7   8   9
 121 prop tor   7   8   9  10
 122 prop tor   7   8   9  42
 123 ben   7   8  41
 124 ben   7  18  17
 125 ben   7  18  19
 126 prop tor   7  18  19  10
 127 prop tor   7  18  19  14
 128 ben   8   7  18
 129 prop tor   8   7  18  17
 130 prop tor   8   7  18  19
 131 ben   8   9  10
 132 prop tor   8   9  10  11
 133 prop tor   8   9  10  19
 134 ben   8   9  42
 135 ben   9   8  41
 136 ben   9  10  11
 137 prop tor   9  10  11  12
 138 prop tor   9  10  11  43
 139 ben   9  10  19
 140 prop tor   9  10  19  14
 141 prop tor   9  10  19  18
 142 ben  10   9  42
 143 ben  10  11  12
 144 prop tor  10  11  12  13
 145 prop tor  10  11  12  44
 146 ben  10  11  43
 147 ben  10  19  14
 148 ben  10  19  18
 149 ben  11  10  19
 150 prop tor  11  10  19  14
 151 prop tor  11  10  19  18
 152 ben  11  12  13
 153 prop tor  11  12  13  14
 154 prop tor  11  12  13  45
 155 ben  11  12  44
 156 ben  12  11  43
 157 ben  12  13  14
 158 prop tor  12  13  14  15
 159 prop tor  12  13  14  19
 160 ben  12  13  45
 161 ben  13  12  44
 162 ben  13  14  15
 163 prop tor  13  14  15  16
 164 prop tor  13  14  15  46
 165 ben  13  14  19
 166 prop tor  13  14  19  10
 167 prop tor  13  14  19  18
 168 ben  14  13  45
 169 ben  14  15  16
 170 prop tor  14  15  16  17
 171 prop tor  14  15  16  47
 172 ben  14  15  46
 173 ben  14  19  18
 174 ben  15  14  19
 175 prop tor  15  14  19  10
 176 prop tor  15  14  19  18
 177 ben  15  16  17
 178 prop tor  15  16  17   4
 179 prop tor  15  16  17  18
 180 ben  15  16  47
 181 ben  16  15  46
 182 ben  16  17  18
 183 prop tor  16  17  18   7
 184 prop tor  16  17  18  19
 185 prop tor  17   4   5   6
 186 prop tor  17   4   5  39
 187 ben  17  16  47
 188 ben  17  18  19
 189 prop tor  17  18  19  10
 190 prop tor  17  18  19  14
 191 prop tor  18   7   8   9
 192 prop tor  18   7   8  41
 193 prop tor  19  10  11  12
 194 prop tor  19  10  11  43
 195 prop tor  19  14  15  16
 196 prop tor  19  14  15  46
 197 prop tor  20   3   4   5
 198 prop tor  20   3   4  17
 199 ben  20  21  22
 200 prop tor  20  21  22  23
 201 prop tor  20  21  22  35
 202 ben  20  21  36
 203 prop tor  20  21  36   1
 204 prop tor  20  21  36  57
 205 ben  20  48  56
 206 prop tor  20  48  56  34
 207 ben  21  20  48
 208 prop tor  21  20  48  56
 209 ben  21  22  23
 210 prop tor  21  22  23  24
 211 prop tor  21  22  23  28
 212 ben  21  22  35
 213 prop tor  21  22  35  30
 214 prop tor  21  22  35  34
 215 ben  21  36  57
 216 ben  22  21  36
 217 prop tor  22  21  36   1
 218 prop tor  22  21  36  57
 219 ben  22  23  24
 220 prop tor  22  23  24  25
 221 prop tor  22  23  24  49
 222 ben  22  23  28
 223 prop tor  22  23  28  27
 224 prop tor  22  23  28  29
 225 ben  22  35  30
 226 ben  22  35  34
 227 ben  23  22  35
 228 prop tor  23  22  35  30
 229 prop tor  23  22  35  34
 230 ben  23  24  25
 231 prop tor  23  24  25  26
 232 prop tor  23  24  25  50
 233 ben  23  24  49
 234 ben  23  28  27
 235 ben  23  28  29
 236 prop tor  23  28  29  30
 237 ben  24  23  28
 238 prop tor  24  23  28  27
 239 prop tor  24  23  28  29
 240 ben  24  25  26
 241 prop tor  24  25  26  27
 242 prop tor  24  25  26  51
 243 ben  24  25  50
 244 ben  25  24  49
 245 ben  25  26  27
 246 prop tor  25  26  27  28
 247 prop tor  25  26  27  52
 248 ben  25  26  51
 249 ben  26  25  50
 250 ben  26  27  28
 251 prop tor  26  27  28  23
 252 prop tor  26  27  28  29
 253 ben  26  27  52
 254 ben  27  26  51
 255 ben  27  28  29
 256 prop tor  27  28  29  30
 257 prop tor  28  23  24  25
 258 prop tor  28  23  24  49
 259 ben  28  27  52
 260 ben  28  29  30
 261 prop tor  28  29  30  31
 262 prop tor  28  29  30  35
 263 ben  29  30  31
 264 prop tor  29  30  31  32
 265 prop tor  29  30  31  53
 266 ben  29  30  35
 267 prop tor  29  30  35  22
 268 prop tor  29  30  35  34
 269 ben  30  31  32
 270 prop tor  30  31  32  33
 271 prop tor  30  31  32  54
 272 ben  30  31  53
 273 ben  30  35  34
 274 ben  31  30  35
 275 prop tor  31  30  35  22
 276 prop tor  31  30  35  34
 277 ben  31  32  33
 278 prop tor  31  32  33  34
 279 prop tor  31  32  33  55
 280 ben  31  32  54
 281 ben  32  31  53
 282 ben  32  33  34
 283 prop tor  32  33  34  35
 284 prop tor  32  33  34  56
 285 ben  32  33  55
 286 ben  33  32  54
 287 ben  33  34  35
 288 prop tor  33  34  35  22
 289 prop tor  33  34  35  30
 290 ben  33  34  56
 291 prop tor  33  34  56  48
 292 ben  34  33  55
 293 ben  34  56  48
 294 prop tor  35  22  23  24
 295 prop tor  35  22  23  28
 296 prop tor  35  30  31  32
 297 prop tor  35  30  31  53
 298 ben  35  34  56
 299 prop tor  35  34  56  48
 300 prop tor  36   1   2   3
 301 prop tor  36   1   2  38
 302 ben  36   1  37
 303 prop tor  36  21  22  23
 304 prop tor  36  21  22  35
 305 prop tor  37   1   2   3
 306 prop tor  37   1   2  38
 307 prop tor  37   1  36  21
 308 prop tor  37   1  36  57
 309 prop tor  38   2   3   4
 310 prop tor  38   2   3  20
 311 prop tor  39   5   6   7
 312 prop tor  39   5   6  40
 313 prop tor  40   6   7   8
 314 prop tor  40   6   7  18
 315 prop tor  41   8   9  10
 316 prop tor  41   8   9  42
 317 prop tor  42   9  10  11
 318 prop tor  42   9  10  19
 319 prop tor  43  11  12  13
 320 prop tor  43  11  12  44
 321 prop tor  44  12  13  14
 322 prop tor  44  12  13  45
 323 prop tor  45  13  14  15
 324 prop tor  45  13  14  19
 325 prop tor  46  15  16  17
 326 prop tor  46  15  16  47
 327 prop tor  47  16  17   4
 328 prop tor  47  16  17  18
 329 prop tor  48  20  21  22
 330 prop tor  48  20  21  36
 331 prop tor  49  24  25  26
 332 prop tor  49  24  25  50
 333 prop tor  50  25  26  27
 334 prop tor  50  25  26  51
 335 prop tor  51  26  27  28
 336 prop tor  51  26  27  52
 337 prop tor  52  27  28  23
 338 prop tor  52  27  28  29
 339 prop tor  53  31  32  33
 340 prop tor  53  31  32  54
 341 prop tor  54  32  33  34
 342 prop tor  54  32  33  55
 343 prop tor  55  33  34  35
 344 prop tor  55  33  34  56
 345 prop tor  56  34  35  22
 346 prop tor  56  34  35  30
 nber bend=             108
 nber lin bend=           0
 nber prop tor=         173
 nber impr tor=           0
 nber tot redund int=         346
 Reading file: 
 ./phenothiazine-pyrene_1_C1S0.log                                              
                                          
  Entering Gaussian System, Link 0=g16                                          
  
 Gaussian format, type: g94, g98, g03= F F F
  #P Geom=AllCheck Guess=TCheck SCRF=Check GenChk UB3LYP/6-311G(d,p) Fre    
 energy type= B3LYP   
 Original G94 input coords:
  6  2.307102 -2.195878  0.000000
  6  2.382629 -0.821363  0.000000
  6  1.196660 -0.076069  0.000000
  6  1.118869  1.436272  0.000000
  6 -0.169940  2.010299  0.000000
  6 -0.431315  3.360288  0.000000
  6  0.609917  4.293038  0.000000
  6  0.340053  5.694053  0.000000
  6  1.352108  6.603469  0.000000
  6  2.711271  6.170052  0.000000
  6  3.769376  7.095828  0.000000
  6  5.094688  6.676072  0.000000
  6  5.390172  5.319816  0.000000
  6  4.360520  4.361912  0.000000
  6  4.621792  2.967711  0.000000
  6  3.618534  2.044247  0.000000
  6  2.222476  2.380292  0.000000
  6  1.946150  3.802071  0.000000
  6  3.000771  4.770420  0.000000
  6  0.000000 -0.840180  0.000000
  6 -0.153749 -2.246188  0.000000
  7 -1.480381 -2.984354  0.000000
  6 -1.533949 -4.467293  0.000000
  6 -0.425815 -5.352534  0.000000
  6 -0.485665 -6.737993  0.000000
  6 -1.695606 -7.416420  0.000000
  6 -2.816644 -6.629687  0.000000
  6 -2.749926 -5.220367  0.000000
 16 -4.348186 -4.591644  0.000000
  6 -4.048577 -2.901413  0.000000
  6 -5.282093 -2.218162  0.000000
  6 -5.362997 -0.850682  0.000000
  6 -4.150891 -0.176440  0.000000
  6 -2.940980 -0.852958  0.000000
  6 -2.767704 -2.260589  0.000000
  6  1.109361 -2.887109  0.000000
  1  3.220379 -2.778694  0.000000
  1  3.362018 -0.393365  0.000000
  1 -1.048275  1.389832  0.000000
  1 -1.458185  3.707968  0.000000
  1 -0.694317  6.018761  0.000000
  1  1.141086  7.666881  0.000000
  1  3.536181  8.154749  0.000000
  1  5.894270  7.406844  0.000000
  1  6.421280  4.984419  0.000000
  1  5.652139  2.628943  0.000000
  1  3.943016  1.026196  0.000000
  1 -0.843389 -0.226981  0.000000
  1  0.575674 -5.031213  0.000000
  1  0.452659 -7.279091  0.000000
  1 -1.757095 -8.496534  0.000000
  1 -3.802032 -7.083136  0.000000
  1 -6.185625 -2.818286  0.000000
  1 -6.314868 -0.336484  0.000000
  1 -4.120630  0.906273  0.000000
  1 -2.140006 -0.171634  0.000000
  1  1.279802 -3.925771  0.000000
 nber atoms=          57
  SCF Done:  E(UB3LYP) =  -1761.23751465     A.U. after    4 cycles             
  
          23          40 "  -1761.23751465"
After scan for Atom:   Atom  AN      X      Y      Z        X      Y      Z        X      Y      Z   
After scan for Atom:   Atom  AN      X      Y      Z        X      Y      Z        X      Y      Z   
After scan for Atom:   Atom  AN      X      Y      Z        X      Y      Z        X      Y      Z   
After scan for Atom:   Atom  AN      X      Y      Z        X      Y      Z        X      Y      Z   
After scan for Atom:   Atom  AN      X      Y      Z        X      Y      Z        X      Y      Z   
After scan for Atom:   Atom  AN      X      Y      Z        X      Y      Z        X      Y      Z   
After scan for Atom:   Atom  AN      X      Y      Z        X      Y      Z        X      Y      Z   
After scan for Atom:   Atom  AN      X      Y      Z        X      Y      Z        X      Y      Z   
After scan for Atom:   Atom  AN      X      Y      Z        X      Y      Z        X      Y      Z   
After scan for Atom:   Atom  AN      X      Y      Z        X      Y      Z        X      Y      Z   
After scan for Atom:   Atom  AN      X      Y      Z        X      Y      Z        X      Y      Z   
After scan for Atom:   Atom  AN      X      Y      Z        X      Y      Z        X      Y      Z   
After scan for Atom:   Atom  AN      X      Y      Z        X      Y      Z        X      Y      Z   
After scan for Atom:   Atom  AN      X      Y      Z        X      Y      Z        X      Y      Z   
After scan for Atom:   Atom  AN      X      Y      Z        X      Y      Z        X      Y      Z   
After scan for Atom:   Atom  AN      X      Y      Z        X      Y      Z        X      Y      Z   
After scan for Atom:   Atom  AN      X      Y      Z        X      Y      Z        X      Y      Z   
After scan for Atom:   Atom  AN      X      Y      Z        X      Y      Z        X      Y      Z   
After scan for Atom:   Atom  AN      X      Y      Z        X      Y      Z        X      Y      Z   
After scan for Atom:   Atom  AN      X      Y      Z        X      Y      Z        X      Y      Z   
After scan for Atom:   Atom  AN      X      Y      Z        X      Y      Z        X      Y      Z   
After scan for Atom:   Atom  AN      X      Y      Z        X      Y      Z        X      Y      Z   
After scan for Atom:   Atom  AN      X      Y      Z        X      Y      Z        X      Y      Z   
After scan for Atom:   Atom  AN      X      Y      Z        X      Y      Z        X      Y      Z   
After scan for Atom:   Atom  AN      X      Y      Z        X      Y      Z        X      Y      Z   
After scan for Atom:   Atom  AN      X      Y      Z        X      Y      Z        X      Y      Z   
After scan for Atom:   Atom  AN      X      Y      Z        X      Y      Z        X      Y      Z   
After scan for Atom:   Atom  AN      X      Y      Z        X      Y      Z        X      Y      Z   
After scan for Atom:   Atom  AN      X      Y      Z        X      Y      Z        X      Y      Z   
After scan for Atom:   Atom  AN      X      Y      Z        X      Y      Z        X      Y      Z   
After scan for Atom:   Atom  AN      X      Y      Z        X      Y      Z        X      Y      Z   
After scan for Atom:   Atom  AN      X      Y      Z        X      Y      Z        X      Y      Z   
After scan for Atom:   Atom  AN      X      Y      Z        X      Y      Z        X      Y      Z   
After scan for Atom:   Atom  AN      X      Y      Z        X      Y      Z        X      Y      Z   
After scan for Atom:   Atom  AN      X      Y      Z        X      Y      Z        X      Y      Z   
After scan for Atom:   Atom  AN      X      Y      Z        X      Y      Z        X      Y      Z   
After scan for Atom:   Atom  AN      X      Y      Z        X      Y      Z        X      Y      Z   
After scan for Atom:   Atom  AN      X      Y      Z        X      Y      Z        X      Y      Z   
After scan for Atom:   Atom  AN      X      Y      Z        X      Y      Z        X      Y      Z   
After scan for Atom:   Atom  AN      X      Y      Z        X      Y      Z        X      Y      Z   
After scan for Atom:   Atom  AN      X      Y      Z        X      Y      Z        X      Y      Z   
After scan for Atom:   Atom  AN      X      Y      Z        X      Y      Z        X      Y      Z   
After scan for Atom:   Atom  AN      X      Y      Z        X      Y      Z        X      Y      Z   
After scan for Atom:   Atom  AN      X      Y      Z        X      Y      Z        X      Y      Z   
After scan for Atom:   Atom  AN      X      Y      Z        X      Y      Z        X      Y      Z   
After scan for Atom:   Atom  AN      X      Y      Z        X      Y      Z        X      Y      Z   
After scan for Atom:   Atom  AN      X      Y      Z        X      Y      Z        X      Y      Z   
After scan for Atom:   Atom  AN      X      Y      Z        X      Y      Z        X      Y      Z   
After scan for Atom:   Atom  AN      X      Y      Z        X      Y      Z        X      Y      Z   
After scan for Atom:   Atom  AN      X      Y      Z        X      Y      Z        X      Y      Z   
After scan for Atom:   Atom  AN      X      Y      Z        X      Y      Z        X      Y      Z   
After scan for Atom:   Atom  AN      X      Y      Z        X      Y      Z        X      Y      Z   
After scan for Atom:   Atom  AN      X      Y      Z        X      Y      Z        X      Y      Z   
After scan for Atom:   Atom  AN      X      Y      Z        X      Y      Z        X      Y      Z   
After scan for Atom:   Atom  AN      X      Y      Z        X      Y      Z        X      Y      Z   
 g94    frequencies=
     0.0    0.0    0.0    0.0    0.0    0.0 -584.4 -495.1 -212.9 -134.7
   -68.0  -28.2   -6.2   24.0   54.1   74.2  137.8  144.5  170.7  179.9
   193.7  210.2  233.6  237.0  261.1  277.5  307.1  315.7  317.9  333.7
   365.7  376.4  389.8  398.1  428.4  437.8  440.0  450.0  478.9  483.4
   492.9  498.0  507.8  511.3  516.7  529.2  549.7  561.4  565.3  567.7
   584.0  610.3  619.3  632.7  639.2  649.5  666.3  679.9  690.8  693.9
   708.6  709.4  726.9  733.8  738.3  747.9  757.6  770.8  777.9  781.2
   791.4  813.7  817.4  826.5  831.5  847.9  850.1  859.9  867.1  888.2
   923.3  930.0  937.1  939.1  956.9  976.9  990.7  993.4  998.1 1000.5
  1004.8 1013.1 1015.7 1043.6 1056.3 1069.6 1082.5 1097.5 1099.2 1124.8
  1131.1 1135.0 1156.5 1166.9 1170.5 1176.6 1184.4 1188.2 1190.2 1208.6
  1224.7 1240.3 1241.9 1254.7 1257.5 1274.7 1280.1 1287.7 1293.7 1300.6
  1314.3 1316.5 1344.9 1359.0 1373.0 1389.0 1397.7 1419.5 1438.2 1448.1
  1459.9 1467.3 1469.0 1477.1 1505.0 1507.4 1516.0 1544.9 1564.4 1587.0
  1590.3 1604.8 1613.7 1618.8 1622.9 1629.6 1633.7 1641.8 1645.3 1649.6
  3168.1 3168.6 3171.1 3172.6 3174.5 3176.2 3179.4 3185.8 3188.5 3189.0
  3190.0 3197.4 3214.0 3214.4 3262.0 3318.0 3383.5 3463.9 3506.1 3604.3
  3688.8
 g94    symmetries=
                                                A"     A"     A"     A"
      A"     A"     A"     A"     A'     A"     A'     A"     A"     A'
      A"     A"     A"     A'     A'     A"     A"     A'     A'     A"
      A"     A'     A'     A"     A'     A"     A'     A"     A'     A'
      A'     A"     A"     A"     A'     A"     A"     A'     A'     A"
      A"     A'     A"     A'     A'     A"     A"     A'     A"     A'
      A'     A"     A"     A"     A'     A'     A"     A"     A'     A"
      A"     A"     A"     A'     A"     A'     A"     A"     A'     A'
      A"     A"     A"     A"     A"     A"     A"     A'     A"     A"
      A"     A'     A'     A'     A'     A'     A'     A'     A'     A'
      A'     A'     A'     A'     A'     A'     A'     A'     A'     A'
      A'     A'     A'     A'     A'     A'     A'     A'     A'     A'
      A'     A'     A'     A'     A'     A'     A'     A'     A'     A'
      A'     A'     A'     A'     A'     A'     A'     A'     A'     A'
      A'     A'     A'     A'     A'     A'     A'     A'     A'     A'
      A'     A'     A'     A'     A'     A'     A'     A'     A'     A'
      A'     A'     A'     A'     A'     A'     A'     A'     A'     A'
      A'
 atomic masses:
 12.0000 12.0000 12.0000 12.0000 12.0000 12.0000 12.0000 12.0000 12.0000 12.0000
 12.0000 12.0000 12.0000 12.0000 12.0000 12.0000 12.0000 12.0000 12.0000 12.0000
 12.0000 14.0031 12.0000 12.0000 12.0000 12.0000 12.0000 12.0000 31.9721 12.0000
 12.0000 12.0000 12.0000 12.0000 12.0000 12.0000  1.0078  1.0078  1.0078  1.0078
  1.0078  1.0078  1.0078  1.0078  1.0078  1.0078  1.0078  1.0078  1.0078  1.0078
  1.0078  1.0078  1.0078  1.0078  1.0078  1.0078  1.0078
 looking for force constants in 
 ./phenothiazine-pyrene_1_C1S0.fchk                                             
  
 Cartesian Force Constants                  R   N=       14706                  
  
 n3=         171       14706
 g94-fc frequencies=
  -584.5 -495.2 -212.9 -134.7  -68.0  -28.2   -6.3   -0.0   -0.0   -0.0
     1.3    1.3    3.2   24.0   54.1   74.2  137.8  144.5  170.7  179.9
   193.7  210.2  233.6  237.0  261.1  277.5  307.1  315.7  317.9  333.7
   365.7  376.4  389.8  398.1  428.4  437.8  440.0  450.0  478.9  483.4
   492.9  498.0  507.8  511.3  516.7  529.2  549.7  561.4  565.3  567.7
   584.0  610.3  619.3  632.7  639.2  649.5  666.4  679.9  690.8  693.9
   708.6  709.4  726.9  733.8  738.3  747.9  757.6  770.9  777.9  781.2
   791.4  813.7  817.4  826.5  831.5  847.9  850.1  859.9  867.1  888.2
   923.3  930.0  937.1  939.1  957.0  977.0  990.7  993.4  998.2 1000.6
  1004.9 1013.2 1015.8 1043.6 1056.3 1069.6 1082.5 1097.6 1099.2 1124.8
  1131.1 1135.0 1156.5 1166.9 1170.5 1176.6 1184.4 1188.3 1190.2 1208.6
  1224.7 1240.3 1242.0 1254.7 1257.5 1274.7 1280.1 1287.7 1293.8 1300.6
  1314.3 1316.5 1344.9 1359.0 1373.1 1389.0 1397.7 1419.5 1438.3 1448.2
  1459.9 1467.3 1469.1 1477.1 1505.1 1507.5 1516.1 1544.9 1564.4 1587.1
  1590.3 1604.8 1613.7 1618.9 1622.9 1629.6 1633.8 1641.8 1645.3 1649.6
  3168.2 3168.7 3171.2 3172.7 3174.6 3176.2 3179.5 3185.8 3188.6 3189.0
  3190.1 3197.4 3214.1 3214.4 3262.1 3318.0 3383.5 3463.9 3506.2 3604.4
  3688.9
 at 99999: n3=         171
 symm operator            1 :  F  nop=           0
 symm operator            2 :  F  nop=           0
 symm operator            3 :  F  nop=           0
 symm operator            4 :  F  nop=           0
 symm operator            5 :  T  nop=           1
 symm operator            6 :  F  nop=           1
 symm operator            7 :  F  nop=           1
 The point group of the molecule is  CS
 enforcing symm op           5  jsymt=           1           1          -1
 cartesian coord symmetries:
 A' :  114 A" :   57
 Symmetry rotation matrix:
   1.00000   0.00000   0.00000
   0.00000   1.00000   0.00000
   0.00000   0.00000   1.00000

 Projecting out zero-frequency components
 generating redundant internal coords
         300        3600          57
 search for int coords
   1 str   2   1   1.377
   2 str   3   2   1.401
   3 str   4   3   1.514
   4 str   5   4   1.411
   5 str   6   5   1.375
   6 str   7   6   1.398
   7 str   8   7   1.427
   8 str   9   8   1.361
   9 str  10   9   1.427
  10 str  11  10   1.406
  11 str  12  11   1.390
  12 str  13  12   1.388
  13 str  14  13   1.406
  14 str  15  14   1.418
  15 str  16  15   1.364
  16 str  17   4   1.452
  17 str  17  16   1.436
  18 str  18   7   1.424
  19 str  18  17   1.448
  20 str  19  10   1.429
  21 str  19  14   1.420
  22 str  19  18   1.432
  23 str  20   3   1.420
  24 str  21  20   1.414
  25 str  22  21   1.518
  26 str  23  22   1.484
  27 str  24  23   1.418
  28 str  25  24   1.387
  29 str  26  25   1.387
  30 str  27  26   1.370
  31 str  28  23   1.430
  32 str  28  27   1.411
  33 str  29  27   2.549
  34 str  29  28   1.717
  35 str  30  29   1.717
  36 str  31  30   1.410
  37 str  32  31   1.370
  38 str  33  32   1.387
  39 str  34  33   1.386
  40 str  35  22   1.477
  41 str  35  30   1.432
  42 str  35  34   1.418
  43 str  36   1   1.383
  44 str  36  21   1.416
  45 str  37   1   1.083
  46 str  38   2   1.069
  47 str  39   5   1.075
  48 str  40   6   1.084
  49 str  41   8   1.084
  50 str  42   9   1.084
  51 str  43  11   1.084
  52 str  44  12   1.083
  53 str  45  13   1.084
  54 str  46  15   1.085
  55 str  47  16   1.069
  56 str  48  20   1.043
  57 str  49  24   1.052
  58 str  50  25   1.083
  59 str  51  26   1.082
  60 str  52  27   1.085
  61 str  53  31   1.085
  62 str  54  32   1.082
  63 str  55  33   1.083
  64 str  56  34   1.052
  65 str  56  48   1.298
  66 str  57  36   1.053
 nber stretches=          66
  67 ben   1   2   3
  68 prop tor   1   2   3   4
  69 prop tor   1   2   3  20
  70 ben   1   2  38
  71 ben   1  36  21
  72 ben   1  36  57
  73 ben   2   1  36
  74 prop tor   2   1  36  21
  75 prop tor   2   1  36  57
  76 ben   2   1  37
  77 ben   2   3   4
  78 prop tor   2   3   4   5
  79 prop tor   2   3   4  17
  80 ben   2   3  20
  81 prop tor   2   3  20  21
  82 prop tor   2   3  20  48
  83 ben   3   2  38
  84 ben   3   4   5
  85 prop tor   3   4   5   6
  86 prop tor   3   4   5  39
  87 ben   3   4  17
  88 prop tor   3   4  17  16
  89 prop tor   3   4  17  18
  90 ben   3  20  21
  91 prop tor   3  20  21  22
  92 prop tor   3  20  21  36
  93 ben   3  20  48
  94 prop tor   3  20  48  56
  95 ben   4   3  20
  96 prop tor   4   3  20  21
  97 prop tor   4   3  20  48
  98 ben   4   5   6
  99 prop tor   4   5   6   7
 100 prop tor   4   5   6  40
 101 ben   4   5  39
 102 ben   4  17  16
 103 ben   4  17  18
 104 prop tor   4  17  18   7
 105 prop tor   4  17  18  19
 106 ben   5   4  17
 107 prop tor   5   4  17  16
 108 prop tor   5   4  17  18
 109 ben   5   6   7
 110 prop tor   5   6   7   8
 111 prop tor   5   6   7  18
 112 ben   5   6  40
 113 ben   6   5  39
 114 ben   6   7   8
 115 prop tor   6   7   8   9
 116 prop tor   6   7   8  41
 117 ben   6   7  18
 118 prop tor   6   7  18  17
 119 prop tor   6   7  18  19
 120 ben   7   6  40
 121 ben   7   8   9
 122 prop tor   7   8   9  10
 123 prop tor   7   8   9  42
 124 ben   7   8  41
 125 ben   7  18  17
 126 ben   7  18  19
 127 prop tor   7  18  19  10
 128 prop tor   7  18  19  14
 129 ben   8   7  18
 130 prop tor   8   7  18  17
 131 prop tor   8   7  18  19
 132 ben   8   9  10
 133 prop tor   8   9  10  11
 134 prop tor   8   9  10  19
 135 ben   8   9  42
 136 ben   9   8  41
 137 ben   9  10  11
 138 prop tor   9  10  11  12
 139 prop tor   9  10  11  43
 140 ben   9  10  19
 141 prop tor   9  10  19  14
 142 prop tor   9  10  19  18
 143 ben  10   9  42
 144 ben  10  11  12
 145 prop tor  10  11  12  13
 146 prop tor  10  11  12  44
 147 ben  10  11  43
 148 ben  10  19  14
 149 ben  10  19  18
 150 ben  11  10  19
 151 prop tor  11  10  19  14
 152 prop tor  11  10  19  18
 153 ben  11  12  13
 154 prop tor  11  12  13  14
 155 prop tor  11  12  13  45
 156 ben  11  12  44
 157 ben  12  11  43
 158 ben  12  13  14
 159 prop tor  12  13  14  15
 160 prop tor  12  13  14  19
 161 ben  12  13  45
 162 ben  13  12  44
 163 ben  13  14  15
 164 prop tor  13  14  15  16
 165 prop tor  13  14  15  46
 166 ben  13  14  19
 167 prop tor  13  14  19  10
 168 prop tor  13  14  19  18
 169 ben  14  13  45
 170 ben  14  15  16
 171 prop tor  14  15  16  17
 172 prop tor  14  15  16  47
 173 ben  14  15  46
 174 ben  14  19  18
 175 ben  15  14  19
 176 prop tor  15  14  19  10
 177 prop tor  15  14  19  18
 178 ben  15  16  17
 179 prop tor  15  16  17   4
 180 prop tor  15  16  17  18
 181 ben  15  16  47
 182 ben  16  15  46
 183 ben  16  17  18
 184 prop tor  16  17  18   7
 185 prop tor  16  17  18  19
 186 prop tor  17   4   5   6
 187 prop tor  17   4   5  39
 188 ben  17  16  47
 189 ben  17  18  19
 190 prop tor  17  18  19  10
 191 prop tor  17  18  19  14
 192 prop tor  18   7   8   9
 193 prop tor  18   7   8  41
 194 prop tor  19  10  11  12
 195 prop tor  19  10  11  43
 196 prop tor  19  14  15  16
 197 prop tor  19  14  15  46
 198 prop tor  20   3   4   5
 199 prop tor  20   3   4  17
 200 ben  20  21  22
 201 prop tor  20  21  22  23
 202 prop tor  20  21  22  35
 203 ben  20  21  36
 204 prop tor  20  21  36   1
 205 prop tor  20  21  36  57
 206 ben  20  48  56
 207 prop tor  20  48  56  34
 208 ben  21  20  48
 209 prop tor  21  20  48  56
 210 ben  21  22  23
 211 prop tor  21  22  23  24
 212 prop tor  21  22  23  28
 213 ben  21  22  35
 214 prop tor  21  22  35  30
 215 prop tor  21  22  35  34
 216 ben  21  36  57
 217 ben  22  21  36
 218 prop tor  22  21  36   1
 219 prop tor  22  21  36  57
 220 ben  22  23  24
 221 prop tor  22  23  24  25
 222 prop tor  22  23  24  49
 223 ben  22  23  28
 224 prop tor  22  23  28  27
 225 prop tor  22  23  28  29
 226 ben  22  35  30
 227 ben  22  35  34
 228 ben  23  22  35
 229 prop tor  23  22  35  30
 230 prop tor  23  22  35  34
 231 ben  23  24  25
 232 prop tor  23  24  25  26
 233 prop tor  23  24  25  50
 234 ben  23  24  49
 235 ben  23  28  27
 236 ben  23  28  29
 237 prop tor  23  28  29  27
 238 prop tor  23  28  29  30
 239 ben  24  23  28
 240 prop tor  24  23  28  27
 241 prop tor  24  23  28  29
 242 ben  24  25  26
 243 prop tor  24  25  26  27
 244 prop tor  24  25  26  51
 245 ben  24  25  50
 246 ben  25  24  49
 247 ben  25  26  27
 248 prop tor  25  26  27  28
 249 prop tor  25  26  27  29
 250 prop tor  25  26  27  52
 251 ben  25  26  51
 252 ben  26  25  50
 253 ben  26  27  28
 254 prop tor  26  27  28  23
 255 prop tor  26  27  28  29
 256 ben  26  27  29
 257 prop tor  26  27  29  28
 258 prop tor  26  27  29  30
 259 ben  26  27  52
 260 ben  27  26  51
 261 ben  27  28  29
 262 prop tor  27  28  29  30
 263 ben  27  29  28
 264 ben  27  29  30
 265 prop tor  27  29  30  31
 266 prop tor  27  29  30  35
 267 prop tor  28  23  24  25
 268 prop tor  28  23  24  49
 269 ben  28  27  29
 270 prop tor  28  27  29  30
 271 ben  28  27  52
 272 ben  28  29  30
 273 prop tor  28  29  30  31
 274 prop tor  28  29  30  35
 275 prop tor  29  27  28  23
 276 ben  29  27  52
 277 ben  29  30  31
 278 prop tor  29  30  31  32
 279 prop tor  29  30  31  53
 280 ben  29  30  35
 281 prop tor  29  30  35  22
 282 prop tor  29  30  35  34
 283 ben  30  31  32
 284 prop tor  30  31  32  33
 285 prop tor  30  31  32  54
 286 ben  30  31  53
 287 ben  30  35  34
 288 ben  31  30  35
 289 prop tor  31  30  35  22
 290 prop tor  31  30  35  34
 291 ben  31  32  33
 292 prop tor  31  32  33  34
 293 prop tor  31  32  33  55
 294 ben  31  32  54
 295 ben  32  31  53
 296 ben  32  33  34
 297 prop tor  32  33  34  35
 298 prop tor  32  33  34  56
 299 ben  32  33  55
 300 ben  33  32  54
 301 ben  33  34  35
 302 prop tor  33  34  35  22
 303 prop tor  33  34  35  30
 304 ben  33  34  56
 305 prop tor  33  34  56  48
 306 ben  34  33  55
 307 ben  34  56  48
 308 prop tor  35  22  23  24
 309 prop tor  35  22  23  28
 310 prop tor  35  30  31  32
 311 prop tor  35  30  31  53
 312 ben  35  34  56
 313 prop tor  35  34  56  48
 314 prop tor  36   1   2   3
 315 prop tor  36   1   2  38
 316 ben  36   1  37
 317 prop tor  36  21  22  23
 318 prop tor  36  21  22  35
 319 prop tor  37   1   2   3
 320 prop tor  37   1   2  38
 321 prop tor  37   1  36  21
 322 prop tor  37   1  36  57
 323 prop tor  38   2   3   4
 324 prop tor  38   2   3  20
 325 prop tor  39   5   6   7
 326 prop tor  39   5   6  40
 327 prop tor  40   6   7   8
 328 prop tor  40   6   7  18
 329 prop tor  41   8   9  10
 330 prop tor  41   8   9  42
 331 prop tor  42   9  10  11
 332 prop tor  42   9  10  19
 333 prop tor  43  11  12  13
 334 prop tor  43  11  12  44
 335 prop tor  44  12  13  14
 336 prop tor  44  12  13  45
 337 prop tor  45  13  14  15
 338 prop tor  45  13  14  19
 339 prop tor  46  15  16  17
 340 prop tor  46  15  16  47
 341 prop tor  47  16  17   4
 342 prop tor  47  16  17  18
 343 prop tor  48  20  21  22
 344 prop tor  48  20  21  36
 345 prop tor  49  24  25  26
 346 prop tor  49  24  25  50
 347 prop tor  50  25  26  27
 348 prop tor  50  25  26  51
 349 prop tor  51  26  27  28
 350 prop tor  51  26  27  29
 351 prop tor  51  26  27  52
 352 prop tor  52  27  28  23
 353 prop tor  52  27  28  29
 354 prop tor  52  27  29  28
 355 prop tor  52  27  29  30
 356 prop tor  53  31  32  33
 357 prop tor  53  31  32  54
 358 prop tor  54  32  33  34
 359 prop tor  54  32  33  55
 360 prop tor  55  33  34  35
 361 prop tor  55  33  34  56
 362 prop tor  56  34  35  22
 363 prop tor  56  34  35  30
 nber bend=             113
 nber lin bend=           0
 nber prop tor=         184
 nber impr tor=           0
 nber tot redund int=         363
 Eigenvalues of G in red int coords
    Gval -0.00000000 -0.00000000 -0.00000000 -0.00000000 -0.00000000 -0.00000000 -0.00000000 -0.00000000
    Gval -0.00000000 -0.00000000 -0.00000000 -0.00000000 -0.00000000 -0.00000000 -0.00000000 -0.00000000
    Gval -0.00000000 -0.00000000 -0.00000000 -0.00000000 -0.00000000 -0.00000000 -0.00000000 -0.00000000
    Gval -0.00000000 -0.00000000 -0.00000000 -0.00000000 -0.00000000 -0.00000000 -0.00000000 -0.00000000
    Gval -0.00000000 -0.00000000 -0.00000000 -0.00000000 -0.00000000 -0.00000000 -0.00000000 -0.00000000
    Gval -0.00000000 -0.00000000 -0.00000000 -0.00000000 -0.00000000 -0.00000000 -0.00000000 -0.00000000
    Gval -0.00000000 -0.00000000 -0.00000000 -0.00000000 -0.00000000 -0.00000000 -0.00000000 -0.00000000
    Gval -0.00000000 -0.00000000 -0.00000000 -0.00000000 -0.00000000 -0.00000000 -0.00000000 -0.00000000
    Gval -0.00000000 -0.00000000 -0.00000000 -0.00000000 -0.00000000 -0.00000000 -0.00000000 -0.00000000
    Gval -0.00000000 -0.00000000 -0.00000000 -0.00000000 -0.00000000 -0.00000000 -0.00000000 -0.00000000
    Gval -0.00000000 -0.00000000 -0.00000000 -0.00000000 -0.00000000 -0.00000000 -0.00000000 -0.00000000
    Gval -0.00000000 -0.00000000 -0.00000000 -0.00000000 -0.00000000 -0.00000000 -0.00000000 -0.00000000
    Gval  0.00000000  0.00000000  0.00000000  0.00000000  0.00000000  0.00000000  0.00000000  0.00000000
    Gval  0.00000000  0.00000000  0.00000000  0.00000000  0.00000000  0.00000000  0.00000000  0.00000000
    Gval  0.00000000  0.00000000  0.00000000  0.00000000  0.00000000  0.00000000  0.00000000  0.00000000
    Gval  0.00000000  0.00000000  0.00000000  0.00000000  0.00000000  0.00000000  0.00000000  0.00000000
    Gval  0.00000000  0.00000000  0.00000000  0.00000000  0.00000000  0.00000000  0.00000000  0.00000000
    Gval  0.00000000  0.00000000  0.00000000  0.00000000  0.00000000  0.00000000  0.00000000  0.00000000
    Gval  0.00000000  0.00000000  0.00000000  0.00000000  0.00000000  0.00000000  0.00000000  0.00000000
    Gval  0.00000000  0.00000000  0.00000000  0.00000000  0.00000000  0.00000000  0.00000000  0.00000000
    Gval  0.00000000  0.00000000  0.00000000  0.00000000  0.00000000  0.00000000  0.00000000  0.00000000
    Gval  0.00000000  0.00000000  0.00000000  0.00000000  0.00000000  0.00000000  0.00000000  0.00000000
    Gval  0.00000000  0.00000000  0.00000000  0.00000000  0.00000000  0.00000000  0.00000000  0.00000000
    Gval  0.00000000  0.00000000  0.00000000  0.00000000  0.00000000  0.00000000  0.00000000  0.00000000
    Gval  0.00000000  0.00000000  0.00000000  0.00000000  0.00000000  0.00000000  0.00000031  0.00000135
    Gval  0.00000194  0.00000259  0.00000298  0.00000674  0.00001060  0.00001152  0.00001420  0.00001514
    Gval  0.00001726  0.00001939  0.00002371  0.00002407  0.00002747  0.00002896  0.00002911  0.00003166
    Gval  0.00004019  0.00004310  0.00004946  0.00005261  0.00005418  0.00005515  0.00005797  0.00005826
    Gval  0.00006215  0.00006296  0.00006450  0.00006823  0.00007017  0.00007164  0.00007480  0.00007824
    Gval  0.00007909  0.00008582  0.00008826  0.00008985  0.00009377  0.00009702  0.00010624  0.00011002
    Gval  0.00012009  0.00012086  0.00012965  0.00013108  0.00013512  0.00013988  0.00014397  0.00014639
    Gval  0.00015194  0.00016059  0.00017659  0.00018353  0.00019006  0.00019635  0.00020103  0.00021061
    Gval  0.00022218  0.00023200  0.00025009  0.00025936  0.00026511  0.00028486  0.00028699  0.00030278
    Gval  0.00032783  0.00033404  0.00033896  0.00034540  0.00035098  0.00037015  0.00037486  0.00038015
    Gval  0.00038593  0.00039416  0.00039793  0.00040301  0.00041851  0.00042372  0.00043560  0.00044350
[...]
 191 prop tor  17  18  19  14
 192 prop tor  18   7   8   9
 193 prop tor  18   7   8  41
 194 prop tor  19  10  11  12
 195 prop tor  19  10  11  43
 196 prop tor  19  14  15  16
 197 prop tor  19  14  15  46
 198 prop tor  20   3   4   5
 199 prop tor  20   3   4  17
 200 ben  20  21  22
 201 prop tor  20  21  22  23
 202 prop tor  20  21  22  35
 203 ben  20  21  36
 204 prop tor  20  21  36   1
 205 prop tor  20  21  36  57
 206 ben  20  48  56
 207 prop tor  20  48  56  34
 208 ben  21  20  48
 209 prop tor  21  20  48  56
 210 ben  21  22  23
 211 prop tor  21  22  23  24
 212 prop tor  21  22  23  28
 213 ben  21  22  35
 214 prop tor  21  22  35  30
 215 prop tor  21  22  35  34
 216 ben  21  36  57
 217 ben  22  21  36
 218 prop tor  22  21  36   1
 219 prop tor  22  21  36  57
 220 ben  22  23  24
 221 prop tor  22  23  24  25
 222 prop tor  22  23  24  49
 223 ben  22  23  28
 224 prop tor  22  23  28  27
 225 prop tor  22  23  28  29
 226 ben  22  35  30
 227 ben  22  35  34
 228 ben  23  22  35
 229 prop tor  23  22  35  30
 230 prop tor  23  22  35  34
 231 ben  23  24  25
 232 prop tor  23  24  25  26
 233 prop tor  23  24  25  50
 234 ben  23  24  49
 235 ben  23  28  27
 236 ben  23  28  29
 237 prop tor  23  28  29  27
 238 prop tor  23  28  29  30
 239 ben  24  23  28
 240 prop tor  24  23  28  27
 241 prop tor  24  23  28  29
 242 ben  24  25  26
 243 prop tor  24  25  26  27
 244 prop tor  24  25  26  51
 245 ben  24  25  50
 246 ben  25  24  49
 247 ben  25  26  27
 248 prop tor  25  26  27  28
 249 prop tor  25  26  27  29
 250 prop tor  25  26  27  52
 251 ben  25  26  51
 252 ben  26  25  50
 253 ben  26  27  28
 254 prop tor  26  27  28  23
 255 prop tor  26  27  28  29
 256 ben  26  27  29
 257 prop tor  26  27  29  28
 258 prop tor  26  27  29  30
 259 ben  26  27  52
 260 ben  27  26  51
 261 ben  27  28  29
 262 prop tor  27  28  29  30
 263 ben  27  29  28
 264 ben  27  29  30
 265 prop tor  27  29  30  31
 266 prop tor  27  29  30  35
 267 prop tor  28  23  24  25
 268 prop tor  28  23  24  49
 269 ben  28  27  29
 270 prop tor  28  27  29  30
 271 ben  28  27  52
 272 ben  28  29  30
 273 prop tor  28  29  30  31
 274 prop tor  28  29  30  35
 275 prop tor  29  27  28  23
 276 ben  29  27  52
 277 ben  29  30  31
 278 prop tor  29  30  31  32
 279 prop tor  29  30  31  53
 280 ben  29  30  35
 281 prop tor  29  30  35  22
 282 prop tor  29  30  35  34
 283 ben  30  31  32
 284 prop tor  30  31  32  33
 285 prop tor  30  31  32  54
 286 ben  30  31  53
 287 ben  30  35  34
 288 ben  31  30  35
 289 prop tor  31  30  35  22
 290 prop tor  31  30  35  34
 291 ben  31  32  33
 292 prop tor  31  32  33  34
 293 prop tor  31  32  33  55
 294 ben  31  32  54
 295 ben  32  31  53
 296 ben  32  33  34
 297 prop tor  32  33  34  35
 298 prop tor  32  33  34  56
 299 ben  32  33  55
 300 ben  33  32  54
 301 ben  33  34  35
 302 prop tor  33  34  35  22
 303 prop tor  33  34  35  30
 304 ben  33  34  56
 305 prop tor  33  34  56  48
 306 ben  34  33  55
 307 ben  34  56  48
 308 prop tor  35  22  23  24
 309 prop tor  35  22  23  28
 310 prop tor  35  30  31  32
 311 prop tor  35  30  31  53
 312 ben  35  34  56
 313 prop tor  35  34  56  48
 314 prop tor  36   1   2   3
 315 prop tor  36   1   2  38
 316 ben  36   1  37
 317 prop tor  36  21  22  23
 318 prop tor  36  21  22  35
 319 prop tor  37   1   2   3
 320 prop tor  37   1   2  38
 321 prop tor  37   1  36  21
 322 prop tor  37   1  36  57
 323 prop tor  38   2   3   4
 324 prop tor  38   2   3  20
 325 prop tor  39   5   6   7
 326 prop tor  39   5   6  40
 327 prop tor  40   6   7   8
 328 prop tor  40   6   7  18
 329 prop tor  41   8   9  10
 330 prop tor  41   8   9  42
 331 prop tor  42   9  10  11
 332 prop tor  42   9  10  19
 333 prop tor  43  11  12  13
 334 prop tor  43  11  12  44
 335 prop tor  44  12  13  14
 336 prop tor  44  12  13  45
 337 prop tor  45  13  14  15
 338 prop tor  45  13  14  19
 339 prop tor  46  15  16  17
 340 prop tor  46  15  16  47
 341 prop tor  47  16  17   4
 342 prop tor  47  16  17  18
 343 prop tor  48  20  21  22
 344 prop tor  48  20  21  36
 345 prop tor  49  24  25  26
 346 prop tor  49  24  25  50
 347 prop tor  50  25  26  27
 348 prop tor  50  25  26  51
 349 prop tor  51  26  27  28
 350 prop tor  51  26  27  29
 351 prop tor  51  26  27  52
 352 prop tor  52  27  28  23
 353 prop tor  52  27  28  29
 354 prop tor  52  27  29  28
 355 prop tor  52  27  29  30
 356 prop tor  53  31  32  33
 357 prop tor  53  31  32  54
 358 prop tor  54  32  33  34
 359 prop tor  54  32  33  55
 360 prop tor  55  33  34  35
 361 prop tor  55  33  34  56
 362 prop tor  56  34  35  22
 363 prop tor  56  34  35  30
 nber bend=             113
 nber lin bend=           0
 nber prop tor=         184
 nber impr tor=           0
 nber tot redund int=         363
 Eigenvalues of G in red int coords
    Gval -0.00000000 -0.00000000 -0.00000000 -0.00000000 -0.00000000 -0.00000000 -0.00000000 -0.00000000
    Gval -0.00000000 -0.00000000 -0.00000000 -0.00000000 -0.00000000 -0.00000000 -0.00000000 -0.00000000
    Gval -0.00000000 -0.00000000 -0.00000000 -0.00000000 -0.00000000 -0.00000000 -0.00000000 -0.00000000
    Gval -0.00000000 -0.00000000 -0.00000000 -0.00000000 -0.00000000 -0.00000000 -0.00000000 -0.00000000
    Gval -0.00000000 -0.00000000 -0.00000000 -0.00000000 -0.00000000 -0.00000000 -0.00000000 -0.00000000
    Gval -0.00000000 -0.00000000 -0.00000000 -0.00000000 -0.00000000 -0.00000000 -0.00000000 -0.00000000
    Gval -0.00000000 -0.00000000 -0.00000000 -0.00000000 -0.00000000 -0.00000000 -0.00000000 -0.00000000
    Gval -0.00000000 -0.00000000 -0.00000000 -0.00000000 -0.00000000 -0.00000000 -0.00000000 -0.00000000
    Gval -0.00000000 -0.00000000 -0.00000000 -0.00000000 -0.00000000 -0.00000000 -0.00000000 -0.00000000
    Gval -0.00000000 -0.00000000 -0.00000000 -0.00000000 -0.00000000 -0.00000000 -0.00000000 -0.00000000
    Gval -0.00000000 -0.00000000 -0.00000000 -0.00000000 -0.00000000 -0.00000000 -0.00000000 -0.00000000
    Gval -0.00000000 -0.00000000 -0.00000000 -0.00000000 -0.00000000 -0.00000000 -0.00000000 -0.00000000
    Gval -0.00000000 -0.00000000  0.00000000  0.00000000  0.00000000  0.00000000  0.00000000  0.00000000
    Gval  0.00000000  0.00000000  0.00000000  0.00000000  0.00000000  0.00000000  0.00000000  0.00000000
    Gval  0.00000000  0.00000000  0.00000000  0.00000000  0.00000000  0.00000000  0.00000000  0.00000000
    Gval  0.00000000  0.00000000  0.00000000  0.00000000  0.00000000  0.00000000  0.00000000  0.00000000
    Gval  0.00000000  0.00000000  0.00000000  0.00000000  0.00000000  0.00000000  0.00000000  0.00000000
    Gval  0.00000000  0.00000000  0.00000000  0.00000000  0.00000000  0.00000000  0.00000000  0.00000000
    Gval  0.00000000  0.00000000  0.00000000  0.00000000  0.00000000  0.00000000  0.00000000  0.00000000
    Gval  0.00000000  0.00000000  0.00000000  0.00000000  0.00000000  0.00000000  0.00000000  0.00000000
    Gval  0.00000000  0.00000000  0.00000000  0.00000000  0.00000000  0.00000000  0.00000000  0.00000000
    Gval  0.00000000  0.00000000  0.00000000  0.00000000  0.00000000  0.00000000  0.00000000  0.00000000
    Gval  0.00000000  0.00000000  0.00000000  0.00000000  0.00000000  0.00000000  0.00000000  0.00000000
    Gval  0.00000000  0.00000000  0.00000000  0.00000000  0.00000000  0.00000000  0.00000000  0.00000000
    Gval  0.00000000  0.00000000  0.00000000  0.00000000  0.00000000  0.00000000  0.00000031  0.00000135
    Gval  0.00000194  0.00000259  0.00000298  0.00000674  0.00001060  0.00001152  0.00001420  0.00001514
    Gval  0.00001726  0.00001939  0.00002371  0.00002407  0.00002747  0.00002896  0.00002911  0.00003166
    Gval  0.00004019  0.00004310  0.00004946  0.00005261  0.00005418  0.00005515  0.00005797  0.00005826
    Gval  0.00006215  0.00006296  0.00006450  0.00006823  0.00007017  0.00007164  0.00007480  0.00007824
    Gval  0.00007909  0.00008582  0.00008826  0.00008985  0.00009377  0.00009702  0.00010624  0.00011002
    Gval  0.00012009  0.00012086  0.00012965  0.00013108  0.00013512  0.00013988  0.00014397  0.00014639
    Gval  0.00015194  0.00016059  0.00017659  0.00018353  0.00019006  0.00019635  0.00020103  0.00021061
    Gval  0.00022218  0.00023200  0.00025009  0.00025936  0.00026511  0.00028486  0.00028699  0.00030278
    Gval  0.00032783  0.00033404  0.00033896  0.00034540  0.00035098  0.00037015  0.00037486  0.00038015
    Gval  0.00038593  0.00039416  0.00039793  0.00040301  0.00041851  0.00042372  0.00043560  0.00044350
    Gval  0.00045089  0.00047676  0.00059370  0.00059380  0.00059391  0.00059421  0.00059664  0.00059805
    Gval  0.00059832  0.00059963  0.00060738  0.00060769  0.00060834  0.00062647  0.00063024  0.00063393
    Gval  0.00064257  0.00064765  0.00064885  0.00065436  0.00065921  0.00067367  0.00067531  0.00070176
    Gval  0.00078601  0.00081076  0.00083866  0.00090540  0.00093402  0.00101521  0.00102405  0.00104412
    Gval  0.00106646  0.00107584  0.00108646  0.00108781  0.00109354  0.00109989  0.00110270  0.00113979
    Gval  0.00114078  0.00116325  0.00116488  0.00117052  0.00117071  0.00117309  0.00117876  0.00118053
    Gval  0.00118859  0.00119147  0.00119409  0.00141406  0.00155140  0.00161081  0.00173015  0.00183707
    Gval  0.00191952  0.00193169  0.00199389  0.00211635  0.00218943  0.00229550  0.00231212  0.00242602
    Gval  0.00252601  0.00256358  0.00263977  0.00296006  0.00306630  0.00310695  0.00334659  0.00350188
    Gval  0.00356966  0.00365683  0.00374937  0.00390874  0.00394209  0.00400781  0.00408197  0.00411486
    Gval  0.00558039  0.00562409  0.03395817
  3.063022590938189E-007  3.063022590938189E-007
  1.347473886920377E-006  3.063022590938189E-007
  1.939547623134188E-006  3.063022590938189E-007
  2.587115656098493E-006  3.063022590938189E-007
  2.984345340604857E-006  3.063022590938189E-007
  6.743508699597629E-006  3.063022590938189E-007
  1.059883245129393E-005  3.063022590938189E-007
  1.151925096932000E-005  3.063022590938189E-007
  1.420453847348625E-005  3.063022590938189E-007
  1.513806328467992E-005  3.063022590938189E-007
  1.725605468639237E-005  3.063022590938189E-007
  1.938595907010234E-005  3.063022590938189E-007
  2.370560833490171E-005  3.063022590938189E-007
  2.406899912209302E-005  3.063022590938189E-007
  2.746788910220650E-005  3.063022590938189E-007
  2.895644146721628E-005  3.063022590938189E-007
  2.911412555191204E-005  3.063022590938189E-007
  3.166229815241312E-005  3.063022590938189E-007
  4.018524703717013E-005  3.063022590938189E-007
  4.309925497894866E-005  3.063022590938189E-007
  4.946239689011854E-005  3.063022590938189E-007
  5.260595247153379E-005  3.063022590938189E-007
  5.417773279683467E-005  3.063022590938189E-007
  5.515423763548160E-005  3.063022590938189E-007
  5.796733503540159E-005  3.063022590938189E-007
  5.826111371897887E-005  3.063022590938189E-007
  6.214630615331305E-005  3.063022590938189E-007
  6.295506471678329E-005  3.063022590938189E-007
  6.449674539395590E-005  3.063022590938189E-007
  6.823409513969885E-005  3.063022590938189E-007
  7.016978375858574E-005  3.063022590938189E-007
  7.164122718827209E-005  3.063022590938189E-007
  7.479519448363001E-005  3.063022590938189E-007
  7.824348679429330E-005  3.063022590938189E-007
  7.908950826042325E-005  3.063022590938189E-007
  8.582077371816784E-005  3.063022590938189E-007
  8.826258514959928E-005  3.063022590938189E-007
  8.985449397656707E-005  3.063022590938189E-007
  9.376556160960971E-005  3.063022590938189E-007
  9.701826454214741E-005  3.063022590938189E-007
  1.062430941756932E-004  3.063022590938189E-007
  1.100233261733015E-004  3.063022590938189E-007
  1.200868362170798E-004  3.063022590938189E-007
  1.208574935185572E-004  3.063022590938189E-007
  1.296474323177837E-004  3.063022590938189E-007
  1.310849492465257E-004  3.063022590938189E-007
  1.351221754809379E-004  3.063022590938189E-007
  1.398759487737782E-004  3.063022590938189E-007
  1.439683808581009E-004  3.063022590938189E-007
  1.463912466936726E-004  3.063022590938189E-007
  1.519376122095167E-004  3.063022590938189E-007
  1.605944365029167E-004  3.063022590938189E-007
  1.765920604469978E-004  3.063022590938189E-007
  1.835336414526963E-004  3.063022590938189E-007
  1.900573357755205E-004  3.063022590938189E-007
  1.963524795934429E-004  3.063022590938189E-007
  2.010331763606763E-004  3.063022590938189E-007
  2.106104117262990E-004  3.063022590938189E-007
  2.221771219449008E-004  3.063022590938189E-007
  2.320009657192195E-004  3.063022590938189E-007
  2.500878952141396E-004  3.063022590938189E-007
  2.593637492598902E-004  3.063022590938189E-007
  2.651103737025636E-004  3.063022590938189E-007
  2.848613762870623E-004  3.063022590938189E-007
  2.869908650904029E-004  3.063022590938189E-007
  3.027816871899922E-004  3.063022590938189E-007
  3.278310051311102E-004  3.063022590938189E-007
  3.340392625334209E-004  3.063022590938189E-007
  3.389603176354654E-004  3.063022590938189E-007
  3.453962963944993E-004  3.063022590938189E-007
  3.509818871887461E-004  3.063022590938189E-007
  3.701466135122792E-004  3.063022590938189E-007
  3.748617825638285E-004  3.063022590938189E-007
  3.801545154314295E-004  3.063022590938189E-007
  3.859288873449269E-004  3.063022590938189E-007
  3.941552271344197E-004  3.063022590938189E-007
  3.979324366013896E-004  3.063022590938189E-007
  4.030121567527681E-004  3.063022590938189E-007
  4.185117437584118E-004  3.063022590938189E-007
  4.237249493509333E-004  3.063022590938189E-007
  4.355970782227554E-004  3.063022590938189E-007
  4.435029081591430E-004  3.063022590938189E-007
  4.508924141021058E-004  3.063022590938189E-007
  4.767611206377428E-004  3.063022590938189E-007
  5.937047438171573E-004  3.063022590938189E-007
  5.938043420870531E-004  3.063022590938189E-007
  5.939127198746300E-004  3.063022590938189E-007
  5.942054920907127E-004  3.063022590938189E-007
  5.966413196085762E-004  3.063022590938189E-007
  5.980493333099617E-004  3.063022590938189E-007
  5.983157246224006E-004  3.063022590938189E-007
  5.996254599999295E-004  3.063022590938189E-007
  6.073789505476262E-004  3.063022590938189E-007
  6.076909533732035E-004  3.063022590938189E-007
  6.083386242357261E-004  3.063022590938189E-007
  6.264655079256063E-004  3.063022590938189E-007
  6.302442128240840E-004  3.063022590938189E-007
  6.339320619614744E-004  3.063022590938189E-007
  6.425733033173478E-004  3.063022590938189E-007
  6.476481999607867E-004  3.063022590938189E-007
  6.488527908607863E-004  3.063022590938189E-007
  6.543609687780664E-004  3.063022590938189E-007
  6.592118804268091E-004  3.063022590938189E-007
  6.736716950239472E-004  3.063022590938189E-007
  6.753131451259233E-004  3.063022590938189E-007
  7.017607642075903E-004  3.063022590938189E-007
  7.860120068360556E-004  3.063022590938189E-007
  8.107645172311868E-004  3.063022590938189E-007
  8.386646187033521E-004  3.063022590938189E-007
  9.054024139986013E-004  3.063022590938189E-007
  9.340195455611580E-004  3.063022590938189E-007
  1.015212951067878E-003  3.063022590938189E-007
  1.024051531314963E-003  3.063022590938189E-007
  1.044115563057206E-003  3.063022590938189E-007
  1.066463743434740E-003  3.063022590938189E-007
  1.075843029516316E-003  3.063022590938189E-007
  1.086463335079780E-003  3.063022590938189E-007
  1.087812087565624E-003  3.063022590938189E-007
  1.093543425819577E-003  3.063022590938189E-007
  1.099894557983601E-003  3.063022590938189E-007
  1.102697734893790E-003  3.063022590938189E-007
  1.139791147078296E-003  3.063022590938189E-007
  1.140784682256699E-003  3.063022590938189E-007
  1.163246848403741E-003  3.063022590938189E-007
  1.164881193917437E-003  3.063022590938189E-007
  1.170515557801076E-003  3.063022590938189E-007
  1.170706308373220E-003  3.063022590938189E-007
  1.173091227219704E-003  3.063022590938189E-007
  1.178764613534664E-003  3.063022590938189E-007
  1.180533503054162E-003  3.063022590938189E-007
  1.188594329175332E-003  3.063022590938189E-007
  1.191467802173791E-003  3.063022590938189E-007
  1.194094521312119E-003  3.063022590938189E-007
  1.414059420128733E-003  3.063022590938189E-007
  1.551395483160372E-003  3.063022590938189E-007
  1.610814376042637E-003  3.063022590938189E-007
  1.730147203395773E-003  3.063022590938189E-007
  1.837065500429046E-003  3.063022590938189E-007
  1.919519366530945E-003  3.063022590938189E-007
  1.931685731561487E-003  3.063022590938189E-007
  1.993886281446001E-003  3.063022590938189E-007
  2.116348900169411E-003  3.063022590938189E-007
  2.189434442361207E-003  3.063022590938189E-007
  2.295503656418653E-003  3.063022590938189E-007
  2.312119264602492E-003  3.063022590938189E-007
  2.426020963480510E-003  3.063022590938189E-007
  2.526006963352799E-003  3.063022590938189E-007
  2.563584322684077E-003  3.063022590938189E-007
  2.639767031754075E-003  3.063022590938189E-007
  2.960056400248422E-003  3.063022590938189E-007
  3.066297505017669E-003  3.063022590938189E-007
  3.106945335913491E-003  3.063022590938189E-007
  3.346585900094212E-003  3.063022590938189E-007
  3.501880074529395E-003  3.063022590938189E-007
  3.569660679963315E-003  3.063022590938189E-007
  3.656830228919588E-003  3.063022590938189E-007
  3.749372171090788E-003  3.063022590938189E-007
  3.908743225629082E-003  3.063022590938189E-007
  3.942085067068469E-003  3.063022590938189E-007
  4.007805061208835E-003  3.063022590938189E-007
  4.081974469959150E-003  3.063022590938189E-007
  4.114864615552266E-003  3.063022590938189E-007
  5.580385083315987E-003  3.063022590938189E-007
  5.624091157523214E-003  3.063022590938189E-007
  3.395817084138334E-002  3.063022590938189E-007
 cut=1d-8, nber non-redundant internal coords=         165
 Check on Eigenvals of non-red overlap matrix:
  0.00000031  0.00000135  0.00000194  0.00000259  0.00000298  0.00000674  0.00001060  0.00001152
  0.00001420  0.00001514  0.00001726  0.00001939  0.00002371  0.00002407  0.00002747  0.00002896
  0.00002911  0.00003166  0.00004019  0.00004310  0.00004946  0.00005261  0.00005418  0.00005515
  0.00005797  0.00005826  0.00006215  0.00006296  0.00006450  0.00006823  0.00007017  0.00007164
  0.00007480  0.00007824  0.00007909  0.00008582  0.00008826  0.00008985  0.00009377  0.00009702
  0.00010624  0.00011002  0.00012009  0.00012086  0.00012965  0.00013108  0.00013512  0.00013988
  0.00014397  0.00014639  0.00015194  0.00016059  0.00017659  0.00018353  0.00019006  0.00019635
  0.00020103  0.00021061  0.00022218  0.00023200  0.00025009  0.00025936  0.00026511  0.00028486
  0.00028699  0.00030278  0.00032783  0.00033404  0.00033896  0.00034540  0.00035098  0.00037015
  0.00037486  0.00038015  0.00038593  0.00039416  0.00039793  0.00040301  0.00041851  0.00042372
  0.00043560  0.00044350  0.00045089  0.00047676  0.00059370  0.00059380  0.00059391  0.00059421
  0.00059664  0.00059805  0.00059832  0.00059963  0.00060738  0.00060769  0.00060834  0.00062647
  0.00063024  0.00063393  0.00064257  0.00064765  0.00064885  0.00065436  0.00065921  0.00067367
  0.00067531  0.00070176  0.00078601  0.00081076  0.00083866  0.00090540  0.00093402  0.00101521
  0.00102405  0.00104412  0.00106646  0.00107584  0.00108646  0.00108781  0.00109354  0.00109989
  0.00110270  0.00113979  0.00114078  0.00116325  0.00116488  0.00117052  0.00117071  0.00117309
  0.00117876  0.00118053  0.00118859  0.00119147  0.00119409  0.00141406  0.00155140  0.00161081
  0.00173015  0.00183707  0.00191952  0.00193169  0.00199389  0.00211635  0.00218943  0.00229550
  0.00231212  0.00242602  0.00252601  0.00256358  0.00263977  0.00296006  0.00306630  0.00310695
  0.00334659  0.00350188  0.00356966  0.00365683  0.00374937  0.00390874  0.00394209  0.00400781
  0.00408197  0.00411486  0.00558039  0.00562409  0.03395817
 int defn changed for coord          33
          29          28           0           0
          29          27           0           0
