 Enter ifcurve (0=recti, 1=orth curvi, 2=apprx curvi, -1 = skip
 And atom ordering flag, 0= never changes, 1= use the first order thenceforth,
  2= deduce it (does read on fail), 3= always read it
 Reading file: 
 ./Benzene_Conj_4_C0S0.log                                                      
                                          
  Entering Gaussian System, Link 0=g16                                          
  
 Gaussian format, type: g94, g98, g03= F F F
  #P Geom=AllCheck Guess=TCheck SCRF=Check GenChk RB3LYP/6-311G(d,p) Fre    
 energy type= B3LYP   
 Original G94 input coords:
  6  4.935313 -1.408448  0.000000
  6  3.672792 -0.726839  0.000000
  6  2.464310 -1.406247  0.000000
  6  1.224548 -0.727625  0.000000
  6  0.000000 -1.406748  0.000000
  6 -1.224548 -0.727625  0.000000
  6 -2.464310 -1.406247  0.000000
  6 -3.672792 -0.726839  0.000000
  6 -4.935313 -1.408448  0.000000
  6 -6.107765 -0.715894  0.000000
  6 -6.107765  0.715894  0.000000
  6 -4.935313  1.408448  0.000000
  6 -3.672792  0.726839  0.000000
  6 -2.464310  1.406247  0.000000
  6 -1.224548  0.727625  0.000000
  6  0.000000  1.406748  0.000000
  6  1.224548  0.727625  0.000000
  6  2.464310  1.406247  0.000000
  6  3.672792  0.726839  0.000000
  6  4.935313  1.408448  0.000000
  6  6.107765  0.715894  0.000000
  6  6.107765 -0.715894  0.000000
  1  4.935281 -2.493748  0.000000
  1  2.464929 -2.491878  0.000000
  1  0.000000 -2.492321  0.000000
  1 -2.464929 -2.491878  0.000000
  1 -4.935281 -2.493748  0.000000
  1 -7.053673 -1.245430  0.000000
  1 -7.053673  1.245430  0.000000
  1 -4.935281  2.493748  0.000000
  1 -2.464929  2.491878  0.000000
  1  0.000000  2.492321  0.000000
  1  2.464929  2.491878  0.000000
  1  4.935281  2.493748  0.000000
  1  7.053673  1.245430  0.000000
  1  7.053673 -1.245430  0.000000
 nber atoms=          36
 Original standard coords:
  6  0.000000  4.935313  1.408448
  6  0.000000  3.672792  0.726839
  6  0.000000  2.464310  1.406247
  6  0.000000  1.224548  0.727625
  6  0.000000  0.000000  1.406748
  6  0.000000 -1.224548  0.727625
  6  0.000000 -2.464310  1.406247
  6  0.000000 -3.672792  0.726839
  6  0.000000 -4.935313  1.408448
  6  0.000000 -6.107765  0.715894
  6  0.000000 -6.107765 -0.715894
  6  0.000000 -4.935313 -1.408448
  6  0.000000 -3.672792 -0.726839
  6  0.000000 -2.464310 -1.406247
  6  0.000000 -1.224548 -0.727625
  6  0.000000  0.000000 -1.406748
  6  0.000000  1.224548 -0.727625
  6  0.000000  2.464310 -1.406247
  6  0.000000  3.672792 -0.726839
  6  0.000000  4.935313 -1.408448
  6  0.000000  6.107765 -0.715894
  6  0.000000  6.107765  0.715894
  1  0.000000  4.935281  2.493748
  1  0.000000  2.464929  2.491878
  1  0.000000  0.000000  2.492321
  1  0.000000 -2.464929  2.491878
  1  0.000000 -4.935281  2.493748
  1  0.000000 -7.053673  1.245430
  1  0.000000 -7.053673 -1.245430
  1  0.000000 -4.935281 -2.493748
  1  0.000000 -2.464929 -2.491878
  1  0.000000  0.000000 -2.492321
  1  0.000000  2.464929 -2.491878
  1  0.000000  4.935281 -2.493748
  1  0.000000  7.053673 -1.245430
  1  0.000000  7.053673  1.245430
  SCF Done:  E(RB3LYP) =  -846.989449393     A.U. after    1 cycles             
  
          23          40 "  -846.989449393"
After scan for Atom:   Atom  AN      X      Y      Z        X      Y      Z        X      Y      Z   
After scan for Atom:   Atom  AN      X      Y      Z        X      Y      Z        X      Y      Z   
After scan for Atom:   Atom  AN      X      Y      Z        X      Y      Z        X      Y      Z   
After scan for Atom:   Atom  AN      X      Y      Z        X      Y      Z        X      Y      Z   
After scan for Atom:   Atom  AN      X      Y      Z        X      Y      Z        X      Y      Z   
After scan for Atom:   Atom  AN      X      Y      Z        X      Y      Z        X      Y      Z   
After scan for Atom:   Atom  AN      X      Y      Z        X      Y      Z        X      Y      Z   
After scan for Atom:   Atom  AN      X      Y      Z        X      Y      Z        X      Y      Z   
After scan for Atom:   Atom  AN      X      Y      Z        X      Y      Z        X      Y      Z   
After scan for Atom:   Atom  AN      X      Y      Z        X      Y      Z        X      Y      Z   
After scan for Atom:   Atom  AN      X      Y      Z        X      Y      Z        X      Y      Z   
After scan for Atom:   Atom  AN      X      Y      Z        X      Y      Z        X      Y      Z   
After scan for Atom:   Atom  AN      X      Y      Z        X      Y      Z        X      Y      Z   
After scan for Atom:   Atom  AN      X      Y      Z        X      Y      Z        X      Y      Z   
After scan for Atom:   Atom  AN      X      Y      Z        X      Y      Z        X      Y      Z   
After scan for Atom:   Atom  AN      X      Y      Z        X      Y      Z        X      Y      Z   
After scan for Atom:   Atom  AN      X      Y      Z        X      Y      Z        X      Y      Z   
After scan for Atom:   Atom  AN      X      Y      Z        X      Y      Z        X      Y      Z   
After scan for Atom:   Atom  AN      X      Y      Z        X      Y      Z        X      Y      Z   
After scan for Atom:   Atom  AN      X      Y      Z        X      Y      Z        X      Y      Z   
After scan for Atom:   Atom  AN      X      Y      Z        X      Y      Z        X      Y      Z   
After scan for Atom:   Atom  AN      X      Y      Z        X      Y      Z        X      Y      Z   
After scan for Atom:   Atom  AN      X      Y      Z        X      Y      Z        X      Y      Z   
After scan for Atom:   Atom  AN      X      Y      Z        X      Y      Z        X      Y      Z   
After scan for Atom:   Atom  AN      X      Y      Z        X      Y      Z        X      Y      Z   
After scan for Atom:   Atom  AN      X      Y      Z        X      Y      Z        X      Y      Z   
After scan for Atom:   Atom  AN      X      Y      Z        X      Y      Z        X      Y      Z   
After scan for Atom:   Atom  AN      X      Y      Z        X      Y      Z        X      Y      Z   
After scan for Atom:   Atom  AN      X      Y      Z        X      Y      Z        X      Y      Z   
After scan for Atom:   Atom  AN      X      Y      Z        X      Y      Z        X      Y      Z   
After scan for Atom:   Atom  AN      X      Y      Z        X      Y      Z        X      Y      Z   
After scan for Atom:   Atom  AN      X      Y      Z        X      Y      Z        X      Y      Z   
After scan for Atom:   Atom  AN      X      Y      Z        X      Y      Z        X      Y      Z   
After scan for Atom:   Atom  AN      X      Y      Z        X      Y      Z        X      Y      Z   
 g94    frequencies=
     0.0    0.0    0.0    0.0    0.0    0.0   36.4   71.3  100.8  118.8
   148.9  192.2  238.2  240.5  263.5  292.9  348.9  362.0  379.0  453.9
   469.4  471.4  476.7  478.3  490.9  512.6  525.9  553.5  579.1  616.3
   639.2  647.1  715.8  724.9  744.0  745.7  751.7  752.5  761.6  770.7
   774.3  795.2  837.4  839.6  840.4  847.4  874.1  887.4  888.8  900.5
   915.5  920.9  922.1  936.3  972.9  973.3  995.4  995.4 1016.2 1019.0
  1134.3 1143.8 1158.3 1184.7 1188.2 1200.2 1207.2 1210.5 1242.4 1251.1
  1294.4 1295.2 1312.2 1318.6 1333.5 1358.7 1376.2 1410.3 1416.4 1419.0
  1426.6 1434.2 1477.6 1477.9 1493.4 1542.2 1557.2 1576.9 1579.1 1593.8
  1633.2 1642.0 1673.4 1674.1 3153.9 3154.7 3155.8 3156.2 3157.2 3157.7
  3159.4 3159.9 3161.0 3163.1 3175.1 3175.1 3187.8 3188.0
 g94    symmetries=
                                                B3     AU     B1     B1
      B2     B3     B3     AU     AG     B1     B2     B1     B3     B3
      B3     B1     B3     B1     B2     B3     AU     B2     B1     AG
      B2     AG     AU     B3     B2     B3     B1     B2     AG     AU
      B2     AG     B1     B3     B2     AU     B2     B1     B2     AU
      B2     B3     B1     B3     B1     B3     AU     B2     B2     AG
      B2     B1     B3     AG     B2     B3     AG     B1     B3     B2
      B1     B3     B3     B1     AG     B2     B1     AG     B2     B3
      B2     AG     B2     B1     AG     B2     AG     AG     B2     B3
      B3     B1     B3     B1     B1     B3     AG     B1     B2     B3
      AG     B1     B2     AG     B3     B1     B2     AG
 atomic masses:
 12.0000 12.0000 12.0000 12.0000 12.0000 12.0000 12.0000 12.0000 12.0000 12.0000
 12.0000 12.0000 12.0000 12.0000 12.0000 12.0000 12.0000 12.0000 12.0000 12.0000
 12.0000 12.0000  1.0078  1.0078  1.0078  1.0078  1.0078  1.0078  1.0078  1.0078
  1.0078  1.0078  1.0078  1.0078  1.0078  1.0078
 looking for force constants in 
 ./Benzene_Conj_4_C0S0.fchk                                                     
  
 Cartesian Force Constants                  R   N=        5886                  
  
 n3=         108        5886
 g94-fc frequencies=
    -2.8   -2.7   -0.0    0.0    0.0    6.4   36.4   71.3  100.8  118.8
   148.9  192.2  238.2  240.5  263.5  292.9  348.9  362.0  379.0  454.0
   469.4  471.4  476.7  478.4  490.9  512.6  525.9  553.5  579.1  616.4
   639.3  647.1  715.8  724.9  744.0  745.7  751.7  752.5  761.7  770.7
   774.3  795.2  837.5  839.6  840.4  847.4  874.1  887.5  888.8  900.5
   915.5  920.9  922.1  936.4  972.9  973.3  995.4  995.5 1016.3 1019.0
  1134.3 1143.8 1158.3 1184.8 1188.2 1200.2 1207.3 1210.5 1242.4 1251.1
  1294.5 1295.3 1312.3 1318.6 1333.6 1358.8 1376.2 1410.3 1416.4 1419.1
  1426.7 1434.2 1477.6 1477.9 1493.4 1542.3 1557.2 1576.9 1579.1 1593.8
  1633.2 1642.0 1673.5 1674.1 3154.0 3154.8 3155.8 3156.2 3157.2 3157.8
  3159.5 3160.0 3161.1 3163.2 3175.2 3175.2 3187.9 3188.0
 at 99999: n3=         108
 symm operator            1 :  T  nop=           1
 symm operator            2 :  T  nop=           2
 symm operator            3 :  T  nop=           3
 symm operator            4 :  T  nop=           4
 symm operator            5 :  T  nop=           5
 symm operator            6 :  T  nop=           6
 symm operator            7 :  T  nop=           7
 The point group of the molecule is D2H
 enforcing symm op           1  jsymt=          -1          -1           1
 enforcing symm op           2  jsymt=          -1           1          -1
 enforcing symm op           3  jsymt=           1          -1          -1
 enforcing symm op           4  jsymt=          -1          -1          -1
 enforcing symm op           5  jsymt=           1           1          -1
 enforcing symm op           6  jsymt=           1          -1           1
 enforcing symm op           7  jsymt=          -1           1           1
 cartesian coord symmetries:
 Ag :   18 Au :    8 B1g:    8 B1u:   18 B2g:   10 B2u:   18 B3g:   18 B3u:   10
 Symmetry rotation matrix:
   1.00000   0.00000   0.00000
   0.00000   1.00000   0.00000
   0.00000   0.00000   1.00000

 Projecting out zero-frequency components
 generating redundant internal coords
         300        3600          36
 search for int coords
   1 str   2   1   1.435
   2 str   3   2   1.386
   3 str   4   3   1.413
   4 str   5   4   1.400
   5 str   6   5   1.400
   6 str   7   6   1.413
   7 str   8   7   1.386
   8 str   9   8   1.435
   9 str  10   9   1.362
  10 str  11  10   1.432
  11 str  12  11   1.362
  12 str  13   8   1.454
  13 str  13  12   1.435
  14 str  14  13   1.386
  15 str  15   6   1.455
  16 str  15  14   1.413
  17 str  16  15   1.400
  18 str  17   4   1.455
  19 str  17  16   1.400
  20 str  18  17   1.413
  21 str  19   2   1.454
  22 str  19  18   1.386
  23 str  20  19   1.435
  24 str  21  20   1.362
  25 str  22   1   1.362
  26 str  22  21   1.432
  27 str  23   1   1.085
  28 str  24   3   1.086
  29 str  25   5   1.086
  30 str  26   7   1.086
  31 str  27   9   1.085
  32 str  28  10   1.084
  33 str  29  11   1.084
  34 str  30  12   1.085
  35 str  31  14   1.086
  36 str  32  16   1.086
  37 str  33  18   1.086
  38 str  34  20   1.085
  39 str  35  21   1.084
  40 str  36  22   1.084
 nber stretches=          40
  41 ben   1   2   3
  42 prop tor   1   2   3   4
  43 prop tor   1   2   3  24
  44 ben   1   2  19
  45 prop tor   1   2  19  18
  46 prop tor   1   2  19  20
  47 ben   1  22  21
  48 ben   1  22  36
  49 ben   2   1  22
  50 prop tor   2   1  22  21
  51 prop tor   2   1  22  36
  52 ben   2   1  23
  53 ben   2   3   4
  54 prop tor   2   3   4   5
  55 prop tor   2   3   4  17
  56 ben   2   3  24
  57 ben   2  19  18
  58 ben   2  19  20
  59 prop tor   2  19  20  21
  60 prop tor   2  19  20  34
  61 ben   3   2  19
  62 prop tor   3   2  19  18
  63 prop tor   3   2  19  20
  64 ben   3   4   5
  65 prop tor   3   4   5   6
  66 prop tor   3   4   5  25
  67 ben   3   4  17
  68 prop tor   3   4  17  16
  69 prop tor   3   4  17  18
  70 ben   4   3  24
  71 ben   4   5   6
  72 prop tor   4   5   6   7
  73 prop tor   4   5   6  15
  74 ben   4   5  25
  75 ben   4  17  16
  76 ben   4  17  18
  77 prop tor   4  17  18  19
  78 prop tor   4  17  18  33
  79 ben   5   4  17
  80 prop tor   5   4  17  16
  81 prop tor   5   4  17  18
  82 ben   5   6   7
  83 prop tor   5   6   7   8
  84 prop tor   5   6   7  26
  85 ben   5   6  15
  86 prop tor   5   6  15  14
  87 prop tor   5   6  15  16
  88 ben   6   5  25
  89 ben   6   7   8
  90 prop tor   6   7   8   9
  91 prop tor   6   7   8  13
  92 ben   6   7  26
  93 ben   6  15  14
  94 ben   6  15  16
  95 prop tor   6  15  16  17
  96 prop tor   6  15  16  32
  97 ben   7   6  15
  98 prop tor   7   6  15  14
  99 prop tor   7   6  15  16
 100 ben   7   8   9
 101 prop tor   7   8   9  10
 102 prop tor   7   8   9  27
 103 ben   7   8  13
 104 prop tor   7   8  13  12
 105 prop tor   7   8  13  14
 106 ben   8   7  26
 107 ben   8   9  10
 108 prop tor   8   9  10  11
 109 prop tor   8   9  10  28
 110 ben   8   9  27
 111 ben   8  13  12
 112 ben   8  13  14
 113 prop tor   8  13  14  15
 114 prop tor   8  13  14  31
 115 ben   9   8  13
 116 prop tor   9   8  13  12
 117 prop tor   9   8  13  14
 118 ben   9  10  11
 119 prop tor   9  10  11  12
 120 prop tor   9  10  11  29
 121 ben   9  10  28
 122 ben  10   9  27
 123 ben  10  11  12
 124 prop tor  10  11  12  13
 125 prop tor  10  11  12  30
 126 ben  10  11  29
 127 ben  11  10  28
 128 ben  11  12  13
 129 prop tor  11  12  13   8
 130 prop tor  11  12  13  14
 131 ben  11  12  30
 132 ben  12  11  29
 133 ben  12  13  14
 134 prop tor  12  13  14  15
 135 prop tor  12  13  14  31
 136 prop tor  13   8   9  10
 137 prop tor  13   8   9  27
 138 ben  13  12  30
 139 ben  13  14  15
 140 prop tor  13  14  15   6
 141 prop tor  13  14  15  16
 142 ben  13  14  31
 143 ben  14  15  16
 144 prop tor  14  15  16  17
 145 prop tor  14  15  16  32
 146 prop tor  15   6   7   8
 147 prop tor  15   6   7  26
 148 ben  15  14  31
 149 ben  15  16  17
 150 prop tor  15  16  17   4
 151 prop tor  15  16  17  18
 152 ben  15  16  32
 153 ben  16  17  18
 154 prop tor  16  17  18  19
 155 prop tor  16  17  18  33
 156 prop tor  17   4   5   6
 157 prop tor  17   4   5  25
 158 ben  17  16  32
 159 ben  17  18  19
 160 prop tor  17  18  19   2
 161 prop tor  17  18  19  20
 162 ben  17  18  33
 163 ben  18  19  20
 164 prop tor  18  19  20  21
 165 prop tor  18  19  20  34
 166 prop tor  19   2   3   4
 167 prop tor  19   2   3  24
 168 ben  19  18  33
 169 ben  19  20  21
 170 prop tor  19  20  21  22
 171 prop tor  19  20  21  35
 172 ben  19  20  34
 173 ben  20  21  22
 174 prop tor  20  21  22   1
 175 prop tor  20  21  22  36
 176 ben  20  21  35
 177 ben  21  20  34
 178 ben  21  22  36
 179 prop tor  22   1   2   3
 180 prop tor  22   1   2  19
 181 ben  22   1  23
 182 ben  22  21  35
 183 prop tor  23   1   2   3
 184 prop tor  23   1   2  19
 185 prop tor  23   1  22  21
 186 prop tor  23   1  22  36
 187 prop tor  24   3   4   5
 188 prop tor  24   3   4  17
 189 prop tor  25   5   6   7
 190 prop tor  25   5   6  15
 191 prop tor  26   7   8   9
 192 prop tor  26   7   8  13
 193 prop tor  27   9  10  11
 194 prop tor  27   9  10  28
 195 prop tor  28  10  11  12
 196 prop tor  28  10  11  29
 197 prop tor  29  11  12  13
 198 prop tor  29  11  12  30
 199 prop tor  30  12  13   8
 200 prop tor  30  12  13  14
 201 prop tor  31  14  15   6
 202 prop tor  31  14  15  16
 203 prop tor  32  16  17   4
 204 prop tor  32  16  17  18
 205 prop tor  33  18  19   2
 206 prop tor  33  18  19  20
 207 prop tor  34  20  21  22
 208 prop tor  34  20  21  35
 209 prop tor  35  21  22   1
 210 prop tor  35  21  22  36
 nber bend=              66
 nber lin bend=           0
 nber prop tor=         104
 nber impr tor=           0
 nber tot redund int=         210
 Eigenvalues of G in red int coords
    Gval -0.00000000 -0.00000000 -0.00000000 -0.00000000 -0.00000000 -0.00000000 -0.00000000 -0.00000000
    Gval -0.00000000 -0.00000000 -0.00000000 -0.00000000 -0.00000000 -0.00000000 -0.00000000 -0.00000000
    Gval -0.00000000 -0.00000000 -0.00000000 -0.00000000 -0.00000000 -0.00000000 -0.00000000 -0.00000000
    Gval -0.00000000 -0.00000000 -0.00000000 -0.00000000 -0.00000000 -0.00000000 -0.00000000 -0.00000000
    Gval -0.00000000 -0.00000000 -0.00000000 -0.00000000 -0.00000000 -0.00000000 -0.00000000 -0.00000000
    Gval -0.00000000 -0.00000000 -0.00000000 -0.00000000 -0.00000000 -0.00000000 -0.00000000 -0.00000000
    Gval -0.00000000 -0.00000000 -0.00000000  0.00000000  0.00000000  0.00000000  0.00000000  0.00000000
    Gval  0.00000000  0.00000000  0.00000000  0.00000000  0.00000000  0.00000000  0.00000000  0.00000000
    Gval  0.00000000  0.00000000  0.00000000  0.00000000  0.00000000  0.00000000  0.00000000  0.00000000
    Gval  0.00000000  0.00000000  0.00000000  0.00000000  0.00000000  0.00000000  0.00000000  0.00000000
    Gval  0.00000000  0.00000000  0.00000000  0.00000000  0.00000000  0.00000000  0.00000000  0.00000000
    Gval  0.00000000  0.00000000  0.00000000  0.00000000  0.00000000  0.00000000  0.00000000  0.00000000
    Gval  0.00000000  0.00000000  0.00000000  0.00000000  0.00000000  0.00000000  0.00000000  0.00000000
    Gval  0.00000000  0.00000000  0.00000000  0.00000000  0.00000190  0.00000410  0.00000605  0.00001000
    Gval  0.00001573  0.00002689  0.00002816  0.00003139  0.00003281  0.00004093  0.00004326  0.00004469
    Gval  0.00004591  0.00005009  0.00005336  0.00005710  0.00006880  0.00006929  0.00007632  0.00007693
    Gval  0.00008354  0.00009929  0.00010277  0.00010992  0.00011267  0.00011707  0.00012683  0.00013721
    Gval  0.00014031  0.00014780  0.00016339  0.00016457  0.00019924  0.00021442  0.00025756  0.00026082
    Gval  0.00027568  0.00030229  0.00033464  0.00033951  0.00034486  0.00038205  0.00038513  0.00040308
    Gval  0.00041143  0.00041494  0.00041511  0.00043977  0.00046922  0.00048115  0.00059310  0.00059310
    Gval  0.00059684  0.00059685  0.00060815  0.00061144  0.00061946  0.00061998  0.00062897  0.00063496
    Gval  0.00064147  0.00065230  0.00065666  0.00065773  0.00072480  0.00073886  0.00080622  0.00081723
    Gval  0.00091687  0.00098122  0.00105046  0.00105056  0.00110820  0.00111167  0.00111203  0.00111901
    Gval  0.00111972  0.00112397  0.00112763  0.00112935  0.00116180  0.00116180  0.00117005  0.00117005
    Gval  0.00158898  0.00176955  0.00177064  0.00180348  0.00193641  0.00201581  0.00256455  0.00257819
    Gval  0.00278391  0.00286211  0.00304501  0.00313002  0.00331842  0.00335287  0.00356246  0.00358409
    Gval  0.00400142  0.00400179
  1.903076857727943E-006  1.903076857727943E-006
  4.099311292814575E-006  1.903076857727943E-006
  6.045824902603491E-006  1.903076857727943E-006
  9.996892858469858E-006  1.903076857727943E-006
  1.572516989190469E-005  1.903076857727943E-006
  2.689324161748647E-005  1.903076857727943E-006
  2.816270892880401E-005  1.903076857727943E-006
  3.138580256682814E-005  1.903076857727943E-006
  3.280616931988445E-005  1.903076857727943E-006
  4.093168535974941E-005  1.903076857727943E-006
  4.326413092610033E-005  1.903076857727943E-006
  4.468564142678838E-005  1.903076857727943E-006
  4.590565969537275E-005  1.903076857727943E-006
  5.008941072719332E-005  1.903076857727943E-006
  5.336496900669337E-005  1.903076857727943E-006
  5.709864423225551E-005  1.903076857727943E-006
  6.880310805415636E-005  1.903076857727943E-006
  6.929247357569645E-005  1.903076857727943E-006
  7.632332717992589E-005  1.903076857727943E-006
  7.692877143480778E-005  1.903076857727943E-006
  8.353783474409859E-005  1.903076857727943E-006
  9.928733064886475E-005  1.903076857727943E-006
  1.027669661905765E-004  1.903076857727943E-006
  1.099215830212338E-004  1.903076857727943E-006
  1.126682745476876E-004  1.903076857727943E-006
  1.170706351430755E-004  1.903076857727943E-006
  1.268317152539007E-004  1.903076857727943E-006
  1.372113660867725E-004  1.903076857727943E-006
  1.403141421611121E-004  1.903076857727943E-006
  1.478043430848590E-004  1.903076857727943E-006
  1.633854498852286E-004  1.903076857727943E-006
  1.645667671932820E-004  1.903076857727943E-006
  1.992407655250861E-004  1.903076857727943E-006
  2.144220588902692E-004  1.903076857727943E-006
  2.575608836566120E-004  1.903076857727943E-006
  2.608244660643913E-004  1.903076857727943E-006
  2.756761032516456E-004  1.903076857727943E-006
  3.022949550472380E-004  1.903076857727943E-006
  3.346371043323688E-004  1.903076857727943E-006
  3.395073344149568E-004  1.903076857727943E-006
  3.448621306339978E-004  1.903076857727943E-006
  3.820451280059156E-004  1.903076857727943E-006
  3.851322193235266E-004  1.903076857727943E-006
  4.030776894762677E-004  1.903076857727943E-006
  4.114303449398209E-004  1.903076857727943E-006
  4.149411437633428E-004  1.903076857727943E-006
  4.151097668049027E-004  1.903076857727943E-006
  4.397679104503893E-004  1.903076857727943E-006
  4.692187617282741E-004  1.903076857727943E-006
  4.811506570563618E-004  1.903076857727943E-006
  5.930958930449434E-004  1.903076857727943E-006
  5.930980519289615E-004  1.903076857727943E-006
  5.968417132103950E-004  1.903076857727943E-006
  5.968523658199073E-004  1.903076857727943E-006
  6.081467067878023E-004  1.903076857727943E-006
  6.114360787961178E-004  1.903076857727943E-006
  6.194590687801486E-004  1.903076857727943E-006
  6.199831129456734E-004  1.903076857727943E-006
  6.289748527194566E-004  1.903076857727943E-006
  6.349597093470034E-004  1.903076857727943E-006
  6.414732828472175E-004  1.903076857727943E-006
  6.522978958545971E-004  1.903076857727943E-006
  6.566641060898764E-004  1.903076857727943E-006
  6.577329911801343E-004  1.903076857727943E-006
  7.248035938666141E-004  1.903076857727943E-006
  7.388636031105867E-004  1.903076857727943E-006
  8.062195558796834E-004  1.903076857727943E-006
  8.172256802338477E-004  1.903076857727943E-006
  9.168716894790622E-004  1.903076857727943E-006
  9.812155791752749E-004  1.903076857727943E-006
  1.050461234491920E-003  1.903076857727943E-006
  1.050562947243557E-003  1.903076857727943E-006
  1.108202769127809E-003  1.903076857727943E-006
  1.111669430267970E-003  1.903076857727943E-006
  1.112027147214048E-003  1.903076857727943E-006
  1.119005553103314E-003  1.903076857727943E-006
  1.119721682786851E-003  1.903076857727943E-006
  1.123968068001657E-003  1.903076857727943E-006
  1.127631267450999E-003  1.903076857727943E-006
  1.129354895978042E-003  1.903076857727943E-006
  1.161797946529238E-003  1.903076857727943E-006
  1.161803970110272E-003  1.903076857727943E-006
  1.170050739981172E-003  1.903076857727943E-006
  1.170050741073605E-003  1.903076857727943E-006
  1.588981976432682E-003  1.903076857727943E-006
  1.769553896603537E-003  1.903076857727943E-006
  1.770640867686238E-003  1.903076857727943E-006
  1.803479877638737E-003  1.903076857727943E-006
  1.936412974891832E-003  1.903076857727943E-006
  2.015808652584563E-003  1.903076857727943E-006
  2.564549119532833E-003  1.903076857727943E-006
  2.578188213084208E-003  1.903076857727943E-006
  2.783907292501938E-003  1.903076857727943E-006
  2.862108954988906E-003  1.903076857727943E-006
  3.045007687826323E-003  1.903076857727943E-006
  3.130019807772690E-003  1.903076857727943E-006
  3.318418371538805E-003  1.903076857727943E-006
  3.352871153815655E-003  1.903076857727943E-006
  3.562456788005295E-003  1.903076857727943E-006
  3.584087495050813E-003  1.903076857727943E-006
  4.001419423892792E-003  1.903076857727943E-006
  4.001787736094492E-003  1.903076857727943E-006
 cut=1d-8, nber non-redundant internal coords=         102
 Check on Eigenvals of non-red overlap matrix:
  0.00000190  0.00000410  0.00000605  0.00001000  0.00001573  0.00002689  0.00002816  0.00003139
  0.00003281  0.00004093  0.00004326  0.00004469  0.00004591  0.00005009  0.00005336  0.00005710
  0.00006880  0.00006929  0.00007632  0.00007693  0.00008354  0.00009929  0.00010277  0.00010992
  0.00011267  0.00011707  0.00012683  0.00013721  0.00014031  0.00014780  0.00016339  0.00016457
  0.00019924  0.00021442  0.00025756  0.00026082  0.00027568  0.00030229  0.00033464  0.00033951
  0.00034486  0.00038205  0.00038513  0.00040308  0.00041143  0.00041494  0.00041511  0.00043977
  0.00046922  0.00048115  0.00059310  0.00059310  0.00059684  0.00059685  0.00060815  0.00061144
  0.00061946  0.00061998  0.00062897  0.00063496  0.00064147  0.00065230  0.00065666  0.00065773
  0.00072480  0.00073886  0.00080622  0.00081723  0.00091687  0.00098122  0.00105046  0.00105056
  0.00110820  0.00111167  0.00111203  0.00111901  0.00111972  0.00112397  0.00112763  0.00112935
  0.00116180  0.00116180  0.00117005  0.00117005  0.00158898  0.00176955  0.00177064  0.00180348
  0.00193641  0.00201581  0.00256455  0.00257819  0.00278391  0.00286211  0.00304501  0.00313002
  0.00331842  0.00335287  0.00356246  0.00358409  0.00400142  0.00400179
 Checking for correct frequencies
 recalc frequencies=
    -0.0   -0.0   -0.0   -0.0    0.0    0.0   36.4   71.3  100.8  118.8
   148.9  192.2  238.2  240.5  263.5  292.9  348.9  362.0  379.0  454.0
   469.4  471.4  476.7  478.4  490.9  512.6  525.9  553.5  579.1  616.4
   639.3  647.1  715.8  724.9  744.0  745.7  751.7  752.5  761.7  770.7
   774.3  795.2  837.5  839.6  840.4  847.4  874.1  887.5  888.8  900.5
   915.5  920.9  922.1  936.4  972.9  973.3  995.4  995.5 1016.3 1019.0
  1134.3 1143.8 1158.3 1184.8 1188.2 1200.2 1207.3 1210.5 1242.4 1251.1
  1294.5 1295.3 1312.3 1318.6 1333.6 1358.8 1376.2 1410.3 1416.4 1419.1
  1426.7 1434.2 1477.6 1477.9 1493.4 1542.3 1557.2 1576.9 1579.1 1593.8
  1633.2 1642.0 1673.5 1674.1 3154.0 3154.8 3155.8 3156.2 3157.2 3157.8
  3159.5 3160.0 3161.1 3163.2 3175.2 3175.2 3187.9 3188.0
 recalc symmetries=
     B3g    B2g    B1g    B3u    B2u    B1u    B3u    Au     B1g    B1u
     B2g    B3u    B3g    Au     Ag     B1g    B2g    B1u    B3u    B3g
     B3u    B1g    B3u    B1g    B2u    B3g    Au     B2g    B1u    Ag 
     B2u    Ag     Au     B3g    B2u    B3u    B1g    B2g    Ag     Au 
     B2g    Ag     B1u    B3u    B2g    Au     B2g    B1g    B2u    Au 
     B2g    B3u    B1u    B3g    B1g    B3u    Au     B2g    B2u    Ag 
     B2u    B1u    B3g    Ag     B2u    B3g    Ag     B1u    B3g    B2u
     B1u    B3g    B3g    B1u    Ag     B2u    B1u    Ag     B2u    B3g
     B2u    Ag     B2u    B1u    Ag     B2u    Ag     Ag     B2u    B3g
     B3g    B1u    B3g    B1u    B1u    B3g    Ag     B1u    B2u    B3g
     Ag     B1u    B2u    Ag     B3g    B1u    B2u    Ag 
 recalc freqs check OK
 Zero-point lengths:
 10.0000 10.0000 10.0000 10.0000 10.0000 10.0000 41.1010 29.3641 24.6892 22.7411
 20.3184 17.8822 16.0625 15.9863 15.2716 14.4846 13.2718 13.0291 12.7337 11.6356
 11.4426 11.4184 11.3541 11.3350 11.1893 10.9500 10.8100 10.5370 10.3020  9.9858
  9.8052  9.7454  9.2659  9.2078  9.0887  9.0784  9.0419  9.0374  8.9828  8.9298
  8.9094  8.7914  8.5667  8.5559  8.5516  8.5162  8.3852  8.3219  8.3154  8.2614
  8.1935  8.1693  8.1640  8.1017  7.9480  7.9463  7.8576  7.8575  7.7767  7.7660
  7.3610  7.3302  7.2842  7.2025  7.1920  7.1559  7.1350  7.1255  7.0334  7.0088
  6.8905  6.8884  6.8436  6.8271  6.7887  6.7255  6.6827  6.6014  6.5872  6.5810
  6.5635  6.5462  6.4493  6.4486  6.4151  6.3127  6.2824  6.2429  6.2387  6.2097
  6.1344  6.1179  6.0602  6.0590  4.4143  4.4138  4.4130  4.4128  4.4121  4.4117
  4.4105  4.4101  4.4094  4.4079  4.3996  4.3996  4.3908  4.3907
 highest evec of mol 1
  0.0000  0.0068 -0.0573
  0.0000  0.0024  0.0004
  0.0000 -0.0001 -0.0051
  0.0000 -0.0001  0.0001
  0.0000  0.0000 -0.0029
  0.0000  0.0001  0.0001
  0.0000  0.0001 -0.0051
  0.0000 -0.0024  0.0004
  0.0000 -0.0068 -0.0573
  0.0000  0.1202 -0.0664
  0.0000  0.1202  0.0664
  0.0000 -0.0068  0.0573
  0.0000 -0.0024 -0.0004
  0.0000  0.0001  0.0051
  0.0000  0.0001 -0.0001
  0.0000  0.0000  0.0029
  0.0000 -0.0001 -0.0001
  0.0000 -0.0001  0.0051
  0.0000  0.0024 -0.0004
  0.0000  0.0068  0.0573
  0.0000 -0.1202  0.0664
  0.0000 -0.1202 -0.0664
  0.0000 -0.0017  0.1769
  0.0000 -0.0005  0.0170
  0.0000  0.0000  0.0092
  0.0000  0.0005  0.0170
  0.0000  0.0017  0.1769
  0.0000 -0.3859  0.2173
  0.0000 -0.3859 -0.2173
  0.0000  0.0017 -0.1769
  0.0000  0.0005 -0.0170
  0.0000  0.0000 -0.0092
  0.0000 -0.0005 -0.0170
  0.0000 -0.0017 -0.1769
  0.0000  0.3859 -0.2173
  0.0000  0.3859  0.2173
 generating redundant internal coords
         300        3600          36
 Adding extra bonds for z output only
           6           6           6           6           6           6
           6           6           6           6           6           6
           6           6           6           6           6           6
           6           6           6           6           1           1
           1           1           1           1           1           1
           1           1           1           1           1           1
 search for int coords
   1 str   2   1   1.435
   2 str   3   2   1.386
   3 str   4   3   1.413
   4 str   5   4   1.400
   5 str   6   5   1.400
   6 str   7   6   1.413
   7 str   8   7   1.386
   8 str   9   8   1.435
   9 str  10   9   1.362
  10 str  11  10   1.432
  11 str  12  11   1.362
  12 str  13   8   1.454
  13 str  13  12   1.435
  14 str  14  13   1.386
  15 str  15   6   1.455
  16 str  15  14   1.413
  17 str  16  15   1.400
  18 str  17   4   1.455
  19 str  17  16   1.400
  20 str  18  17   1.413
  21 str  19   2   1.454
  22 str  19  18   1.386
  23 str  20  19   1.435
  24 str  21  20   1.362
  25 str  22   1   1.362
  26 str  22  21   1.432
  27 str  23   1   1.085
  28 str  24   3   1.086
  29 str  25   5   1.086
  30 str  26   7   1.086
  31 str  27   9   1.085
  32 str  28  10   1.084
  33 str  29  11   1.084
  34 str  30  12   1.085
  35 str  31  14   1.086
  36 str  32  16   1.086
  37 str  33  18   1.086
  38 str  34  20   1.085
  39 str  35  21   1.084
  40 str  36  22   1.084
 nber stretches=          40
  41 ben   1   2   3
  42 prop tor   1   2   3   4
  43 prop tor   1   2   3  24
  44 ben   1   2  19
  45 prop tor   1   2  19  18
  46 prop tor   1   2  19  20
  47 ben   1  22  21
  48 ben   1  22  36
  49 ben   2   1  22
  50 prop tor   2   1  22  21
  51 prop tor   2   1  22  36
  52 ben   2   1  23
  53 ben   2   3   4
  54 prop tor   2   3   4   5
  55 prop tor   2   3   4  17
  56 ben   2   3  24
  57 ben   2  19  18
  58 ben   2  19  20
  59 prop tor   2  19  20  21
  60 prop tor   2  19  20  34
  61 ben   3   2  19
  62 prop tor   3   2  19  18
  63 prop tor   3   2  19  20
  64 ben   3   4   5
  65 prop tor   3   4   5   6
  66 prop tor   3   4   5  25
  67 ben   3   4  17
  68 prop tor   3   4  17  16
  69 prop tor   3   4  17  18
  70 ben   4   3  24
  71 ben   4   5   6
  72 prop tor   4   5   6   7
  73 prop tor   4   5   6  15
  74 ben   4   5  25
  75 ben   4  17  16
  76 ben   4  17  18
  77 prop tor   4  17  18  19
  78 prop tor   4  17  18  33
  79 ben   5   4  17
  80 prop tor   5   4  17  16
  81 prop tor   5   4  17  18
  82 ben   5   6   7
  83 prop tor   5   6   7   8
  84 prop tor   5   6   7  26
  85 ben   5   6  15
  86 prop tor   5   6  15  14
  87 prop tor   5   6  15  16
  88 ben   6   5  25
  89 ben   6   7   8
  90 prop tor   6   7   8   9
  91 prop tor   6   7   8  13
  92 ben   6   7  26
  93 ben   6  15  14
  94 ben   6  15  16
  95 prop tor   6  15  16  17
  96 prop tor   6  15  16  32
  97 ben   7   6  15
  98 prop tor   7   6  15  14
  99 prop tor   7   6  15  16
 100 ben   7   8   9
 101 prop tor   7   8   9  10
 102 prop tor   7   8   9  27
 103 ben   7   8  13
 104 prop tor   7   8  13  12
 105 prop tor   7   8  13  14
 106 ben   8   7  26
 107 ben   8   9  10
 108 prop tor   8   9  10  11
 109 prop tor   8   9  10  28
 110 ben   8   9  27
 111 ben   8  13  12
 112 ben   8  13  14
 113 prop tor   8  13  14  15
 114 prop tor   8  13  14  31
 115 ben   9   8  13
 116 prop tor   9   8  13  12
 117 prop tor   9   8  13  14
 118 ben   9  10  11
 119 prop tor   9  10  11  12
 120 prop tor   9  10  11  29
 121 ben   9  10  28
 122 ben  10   9  27
 123 ben  10  11  12
 124 prop tor  10  11  12  13
 125 prop tor  10  11  12  30
 126 ben  10  11  29
 127 ben  11  10  28
 128 ben  11  12  13
 129 prop tor  11  12  13   8
 130 prop tor  11  12  13  14
 131 ben  11  12  30
 132 ben  12  11  29
 133 ben  12  13  14
 134 prop tor  12  13  14  15
 135 prop tor  12  13  14  31
 136 prop tor  13   8   9  10
 137 prop tor  13   8   9  27
 138 ben  13  12  30
 139 ben  13  14  15
 140 prop tor  13  14  15   6
 141 prop tor  13  14  15  16
 142 ben  13  14  31
 143 ben  14  15  16
 144 prop tor  14  15  16  17
 145 prop tor  14  15  16  32
 146 prop tor  15   6   7   8
 147 prop tor  15   6   7  26
 148 ben  15  14  31
 149 ben  15  16  17
 150 prop tor  15  16  17   4
 151 prop tor  15  16  17  18
 152 ben  15  16  32
 153 ben  16  17  18
 154 prop tor  16  17  18  19
 155 prop tor  16  17  18  33
 156 prop tor  17   4   5   6
 157 prop tor  17   4   5  25
 158 ben  17  16  32
 159 ben  17  18  19
 160 prop tor  17  18  19   2
 161 prop tor  17  18  19  20
 162 ben  17  18  33
 163 ben  18  19  20
 164 prop tor  18  19  20  21
 165 prop tor  18  19  20  34
 166 prop tor  19   2   3   4
 167 prop tor  19   2   3  24
 168 ben  19  18  33
 169 ben  19  20  21
 170 prop tor  19  20  21  22
 171 prop tor  19  20  21  35
 172 ben  19  20  34
 173 ben  20  21  22
 174 prop tor  20  21  22   1
 175 prop tor  20  21  22  36
 176 ben  20  21  35
 177 ben  21  20  34
 178 ben  21  22  36
 179 prop tor  22   1   2   3
 180 prop tor  22   1   2  19
 181 ben  22   1  23
 182 ben  22  21  35
 183 prop tor  23   1   2   3
 184 prop tor  23   1   2  19
 185 prop tor  23   1  22  21
 186 prop tor  23   1  22  36
 187 prop tor  24   3   4   5
 188 prop tor  24   3   4  17
 189 prop tor  25   5   6   7
 190 prop tor  25   5   6  15
 191 prop tor  26   7   8   9
 192 prop tor  26   7   8  13
 193 prop tor  27   9  10  11
 194 prop tor  27   9  10  28
 195 prop tor  28  10  11  12
 196 prop tor  28  10  11  29
 197 prop tor  29  11  12  13
 198 prop tor  29  11  12  30
 199 prop tor  30  12  13   8
 200 prop tor  30  12  13  14
 201 prop tor  31  14  15   6
 202 prop tor  31  14  15  16
 203 prop tor  32  16  17   4
 204 prop tor  32  16  17  18
 205 prop tor  33  18  19   2
 206 prop tor  33  18  19  20
 207 prop tor  34  20  21  22
 208 prop tor  34  20  21  35
 209 prop tor  35  21  22   1
 210 prop tor  35  21  22  36
 nber bend=              66
 nber lin bend=           0
 nber prop tor=         104
 nber impr tor=           0
 nber tot redund int=         210
 Reading file: 
 ./Benzene_Conj_4_C-1S0.log                                                     
                                          
  Entering Gaussian System, Link 0=g16                                          
  
 Gaussian format, type: g94, g98, g03= F F F
  #P Geom=AllCheck Guess=TCheck SCRF=Check GenChk UB3LYP/6-311G(d,p) Fre    
 energy type= B3LYP   
 Original G94 input coords:
  6  4.955970 -1.398199  0.000000
  6  3.701660 -0.724530  0.000000
  6  2.472946 -1.401035  0.000000
  6  1.235720 -0.730859  0.000000
  6  0.000000 -1.403175  0.000000
  6 -1.235720 -0.730859  0.000000
  6 -2.472946 -1.401035  0.000000
  6 -3.701660 -0.724530  0.000000
  6 -4.955970 -1.398199  0.000000
  6 -6.147384 -0.708400  0.000000
  6 -6.147384  0.708400  0.000000
  6 -4.955970  1.398199  0.000000
  6 -3.701660  0.724530  0.000000
  6 -2.472946  1.401035  0.000000
  6 -1.235720  0.730859  0.000000
  6  0.000000  1.403175  0.000000
  6  1.235720  0.730859  0.000000
  6  2.472946  1.401035  0.000000
  6  3.701660  0.724530  0.000000
  6  4.955970  1.398199  0.000000
  6  6.147384  0.708400  0.000000
  6  6.147384 -0.708400  0.000000
  1  4.955320 -2.485535  0.000000
  1  2.474622 -2.488397  0.000000
  1  0.000000 -2.490424  0.000000
  1 -2.474622 -2.488397  0.000000
  1 -4.955320 -2.485535  0.000000
  1 -7.089621 -1.247974  0.000000
  1 -7.089621  1.247974  0.000000
  1 -4.955320  2.485535  0.000000
  1 -2.474622  2.488397  0.000000
  1  0.000000  2.490424  0.000000
  1  2.474622  2.488397  0.000000
  1  4.955320  2.485535  0.000000
  1  7.089621  1.247974  0.000000
  1  7.089621 -1.247974  0.000000
 nber atoms=          36
 Original standard coords:
  6  0.000000  4.955970  1.398199
  6  0.000000  3.701660  0.724530
  6  0.000000  2.472946  1.401035
  6  0.000000  1.235720  0.730859
  6  0.000000  0.000000  1.403175
  6  0.000000 -1.235720  0.730859
  6  0.000000 -2.472946  1.401035
  6  0.000000 -3.701660  0.724530
  6  0.000000 -4.955970  1.398199
  6  0.000000 -6.147384  0.708400
  6  0.000000 -6.147384 -0.708400
  6  0.000000 -4.955970 -1.398199
  6  0.000000 -3.701660 -0.724530
  6  0.000000 -2.472946 -1.401035
  6  0.000000 -1.235720 -0.730859
  6  0.000000  0.000000 -1.403175
  6  0.000000  1.235720 -0.730859
  6  0.000000  2.472946 -1.401035
  6  0.000000  3.701660 -0.724530
  6  0.000000  4.955970 -1.398199
  6  0.000000  6.147384 -0.708400
  6  0.000000  6.147384  0.708400
  1  0.000000  4.955320  2.485535
  1  0.000000  2.474622  2.488397
  1  0.000000  0.000000  2.490424
  1  0.000000 -2.474622  2.488397
  1  0.000000 -4.955320  2.485535
  1  0.000000 -7.089621  1.247974
  1  0.000000 -7.089621 -1.247974
  1  0.000000 -4.955320 -2.485535
  1  0.000000 -2.474622 -2.488397
  1  0.000000  0.000000 -2.490424
  1  0.000000  2.474622 -2.488397
  1  0.000000  4.955320 -2.485535
  1  0.000000  7.089621 -1.247974
  1  0.000000  7.089621  1.247974
  SCF Done:  E(UB3LYP) =  -847.041529253     A.U. after    1 cycles             
  
          23          40 "  -847.041529253"
After scan for Atom:   Atom  AN      X      Y      Z        X      Y      Z        X      Y      Z   
After scan for Atom:   Atom  AN      X      Y      Z        X      Y      Z        X      Y      Z   
After scan for Atom:   Atom  AN      X      Y      Z        X      Y      Z        X      Y      Z   
After scan for Atom:   Atom  AN      X      Y      Z        X      Y      Z        X      Y      Z   
After scan for Atom:   Atom  AN      X      Y      Z        X      Y      Z        X      Y      Z   
After scan for Atom:   Atom  AN      X      Y      Z        X      Y      Z        X      Y      Z   
After scan for Atom:   Atom  AN      X      Y      Z        X      Y      Z        X      Y      Z   
After scan for Atom:   Atom  AN      X      Y      Z        X      Y      Z        X      Y      Z   
After scan for Atom:   Atom  AN      X      Y      Z        X      Y      Z        X      Y      Z   
After scan for Atom:   Atom  AN      X      Y      Z        X      Y      Z        X      Y      Z   
After scan for Atom:   Atom  AN      X      Y      Z        X      Y      Z        X      Y      Z   
After scan for Atom:   Atom  AN      X      Y      Z        X      Y      Z        X      Y      Z   
After scan for Atom:   Atom  AN      X      Y      Z        X      Y      Z        X      Y      Z   
After scan for Atom:   Atom  AN      X      Y      Z        X      Y      Z        X      Y      Z   
After scan for Atom:   Atom  AN      X      Y      Z        X      Y      Z        X      Y      Z   
After scan for Atom:   Atom  AN      X      Y      Z        X      Y      Z        X      Y      Z   
After scan for Atom:   Atom  AN      X      Y      Z        X      Y      Z        X      Y      Z   
After scan for Atom:   Atom  AN      X      Y      Z        X      Y      Z        X      Y      Z   
After scan for Atom:   Atom  AN      X      Y      Z        X      Y      Z        X      Y      Z   
After scan for Atom:   Atom  AN      X      Y      Z        X      Y      Z        X      Y      Z   
After scan for Atom:   Atom  AN      X      Y      Z        X      Y      Z        X      Y      Z   
After scan for Atom:   Atom  AN      X      Y      Z        X      Y      Z        X      Y      Z   
After scan for Atom:   Atom  AN      X      Y      Z        X      Y      Z        X      Y      Z   
After scan for Atom:   Atom  AN      X      Y      Z        X      Y      Z        X      Y      Z   
After scan for Atom:   Atom  AN      X      Y      Z        X      Y      Z        X      Y      Z   
After scan for Atom:   Atom  AN      X      Y      Z        X      Y      Z        X      Y      Z   
After scan for Atom:   Atom  AN      X      Y      Z        X      Y      Z        X      Y      Z   
After scan for Atom:   Atom  AN      X      Y      Z        X      Y      Z        X      Y      Z   
After scan for Atom:   Atom  AN      X      Y      Z        X      Y      Z        X      Y      Z   
After scan for Atom:   Atom  AN      X      Y      Z        X      Y      Z        X      Y      Z   
After scan for Atom:   Atom  AN      X      Y      Z        X      Y      Z        X      Y      Z   
After scan for Atom:   Atom  AN      X      Y      Z        X      Y      Z        X      Y      Z   
After scan for Atom:   Atom  AN      X      Y      Z        X      Y      Z        X      Y      Z   
After scan for Atom:   Atom  AN      X      Y      Z        X      Y      Z        X      Y      Z   
 g94    frequencies=
     0.0    0.0    0.0    0.0    0.0    0.0   37.5   68.5  103.1  118.4
   148.6  193.5  236.0  239.6  262.8  311.2  326.7  354.3  360.0  454.4
   459.3  463.9  468.8  470.0  487.7  513.2  554.7  564.5  584.6  616.1
   637.0  638.6  711.4  718.9  724.3  726.2  732.4  748.3  751.7  752.3
   756.2  777.1  783.6  795.4  809.5  825.6  827.8  833.2  848.0  853.4
   858.4  887.5  909.9  910.2  915.6  930.9  935.5  935.5 1031.9 1033.2
  1126.7 1139.7 1161.6 1169.6 1176.6 1184.2 1195.0 1208.2 1243.1 1246.0
  1283.6 1286.1 1292.6 1305.5 1311.9 1351.3 1380.1 1392.6 1397.9 1406.2
  1410.2 1414.4 1464.5 1467.7 1496.0 1522.3 1526.8 1534.0 1553.3 1559.1
  1564.0 1600.6 1616.6 1633.9 3122.5 3122.8 3124.5 3124.7 3126.4 3127.7
  3128.7 3131.3 3131.8 3135.6 3144.9 3145.0 3161.8 3162.3
 g94    symmetries=
                                                B3     AU     B1     B1
      B2     B3     B3     AU     AG     B1     B2     B3     B1     B3
      B3     B1     B3     B1     B2     B3     AU     B2     B1     AG
      B2     AG     AU     B3     B3     B1     B2     B2     AU     AG
      B2     B3     B2     AG     AU     B1     B2     B1     B3     AU
      B2     B2     B1     B3     B1     B3     B2     AU     B2     AG
      B1     B3     B2     AG     B3     B2     B1     AG     B3     B2
      B1     B3     B3     B1     AG     B1     B2     AG     B2     B2
      AG     B3     B1     B2     AG     B2     B3     AG     B3     B2
      AG     B1     B1     B3     B1     B3     AG     B1     B2     B3
      AG     B1     B2     AG     B3     B1     B2     AG
 atomic masses:
 12.0000 12.0000 12.0000 12.0000 12.0000 12.0000 12.0000 12.0000 12.0000 12.0000
 12.0000 12.0000 12.0000 12.0000 12.0000 12.0000 12.0000 12.0000 12.0000 12.0000
 12.0000 12.0000  1.0078  1.0078  1.0078  1.0078  1.0078  1.0078  1.0078  1.0078
  1.0078  1.0078  1.0078  1.0078  1.0078  1.0078
 looking for force constants in 
 ./Benzene_Conj_4_C-1S0.fchk                                                    
  
 Cartesian Force Constants                  R   N=        5886                  
  
 n3=         108        5886
 g94-fc frequencies=
    -2.9   -2.5   -0.0   -0.0    0.0    4.4   37.5   68.5  103.1  118.4
   148.6  193.5  236.0  239.6  262.8  311.2  326.7  354.3  360.0  454.4
   459.3  463.9  468.8  470.0  487.7  513.3  554.7  564.5  584.6  616.1
   637.0  638.7  711.4  719.0  724.3  726.2  732.5  748.3  751.7  752.3
   756.2  777.2  783.6  795.4  809.6  825.6  827.8  833.2  848.0  853.4
   858.4  887.5  909.9  910.2  915.6  930.9  935.5  935.6 1031.9 1033.2
  1126.7 1139.7 1161.6 1169.6 1176.6 1184.2 1195.0 1208.2 1243.1 1246.1
  1283.6 1286.2 1292.7 1305.6 1311.9 1351.4 1380.2 1392.6 1397.9 1406.2
  1410.3 1414.5 1464.6 1467.7 1496.0 1522.4 1526.8 1534.0 1553.4 1559.1
  1564.1 1600.6 1616.7 1633.9 3122.6 3122.9 3124.6 3124.8 3126.4 3127.8
  3128.8 3131.3 3131.9 3135.7 3145.0 3145.1 3161.9 3162.4
 at 99999: n3=         108
 symm operator            1 :  T  nop=           1
 symm operator            2 :  T  nop=           2
 symm operator            3 :  T  nop=           3
 symm operator            4 :  T  nop=           4
 symm operator            5 :  T  nop=           5
 symm operator            6 :  T  nop=           6
 symm operator            7 :  T  nop=           7
 The point group of the molecule is D2H
 enforcing symm op           1  jsymt=          -1          -1           1
 enforcing symm op           2  jsymt=          -1           1          -1
 enforcing symm op           3  jsymt=           1          -1          -1
 enforcing symm op           4  jsymt=          -1          -1          -1
 enforcing symm op           5  jsymt=           1           1          -1
 enforcing symm op           6  jsymt=           1          -1           1
 enforcing symm op           7  jsymt=          -1           1           1
 cartesian coord symmetries:
 Ag :   18 Au :    8 B1g:    8 B1u:   18 B2g:   10 B2u:   18 B3g:   18 B3u:   10
 Symmetry rotation matrix:
   1.00000   0.00000   0.00000
   0.00000   1.00000   0.00000
   0.00000   0.00000   1.00000

 Projecting out zero-frequency components
 generating redundant internal coords
         300        3600          36
 search for int coords
   1 str   2   1   1.424
   2 str   3   2   1.403
   3 str   4   3   1.407
   4 str   5   4   1.407
   5 str   6   5   1.407
   6 str   7   6   1.407
   7 str   8   7   1.403
   8 str   9   8   1.424
   9 str  10   9   1.377
  10 str  11  10   1.417
  11 str  12  11   1.377
  12 str  13   8   1.449
  13 str  13  12   1.424
  14 str  14  13   1.403
  15 str  15   6   1.462
  16 str  15  14   1.407
  17 str  16  15   1.407
  18 str  17   4   1.462
  19 str  17  16   1.407
  20 str  18  17   1.407
  21 str  19   2   1.449
  22 str  19  18   1.403
  23 str  20  19   1.424
  24 str  21  20   1.377
  25 str  22   1   1.377
  26 str  22  21   1.417
  27 str  23   1   1.087
  28 str  24   3   1.087
  29 str  25   5   1.087
  30 str  26   7   1.087
  31 str  27   9   1.087
  32 str  28  10   1.086
  33 str  29  11   1.086
  34 str  30  12   1.087
  35 str  31  14   1.087
  36 str  32  16   1.087
  37 str  33  18   1.087
  38 str  34  20   1.087
  39 str  35  21   1.086
  40 str  36  22   1.086
 nber stretches=          40
  41 ben   1   2   3
  42 prop tor   1   2   3   4
  43 prop tor   1   2   3  24
  44 ben   1   2  19
  45 prop tor   1   2  19  18
  46 prop tor   1   2  19  20
  47 ben   1  22  21
  48 ben   1  22  36
  49 ben   2   1  22
  50 prop tor   2   1  22  21
  51 prop tor   2   1  22  36
  52 ben   2   1  23
  53 ben   2   3   4
  54 prop tor   2   3   4   5
  55 prop tor   2   3   4  17
  56 ben   2   3  24
  57 ben   2  19  18
  58 ben   2  19  20
  59 prop tor   2  19  20  21
  60 prop tor   2  19  20  34
  61 ben   3   2  19
  62 prop tor   3   2  19  18
  63 prop tor   3   2  19  20
  64 ben   3   4   5
  65 prop tor   3   4   5   6
  66 prop tor   3   4   5  25
  67 ben   3   4  17
  68 prop tor   3   4  17  16
  69 prop tor   3   4  17  18
  70 ben   4   3  24
  71 ben   4   5   6
  72 prop tor   4   5   6   7
  73 prop tor   4   5   6  15
  74 ben   4   5  25
  75 ben   4  17  16
  76 ben   4  17  18
  77 prop tor   4  17  18  19
  78 prop tor   4  17  18  33
  79 ben   5   4  17
  80 prop tor   5   4  17  16
  81 prop tor   5   4  17  18
  82 ben   5   6   7
  83 prop tor   5   6   7   8
  84 prop tor   5   6   7  26
  85 ben   5   6  15
  86 prop tor   5   6  15  14
  87 prop tor   5   6  15  16
  88 ben   6   5  25
  89 ben   6   7   8
  90 prop tor   6   7   8   9
  91 prop tor   6   7   8  13
  92 ben   6   7  26
  93 ben   6  15  14
  94 ben   6  15  16
  95 prop tor   6  15  16  17
  96 prop tor   6  15  16  32
  97 ben   7   6  15
  98 prop tor   7   6  15  14
  99 prop tor   7   6  15  16
 100 ben   7   8   9
 101 prop tor   7   8   9  10
 102 prop tor   7   8   9  27
 103 ben   7   8  13
 104 prop tor   7   8  13  12
 105 prop tor   7   8  13  14
 106 ben   8   7  26
 107 ben   8   9  10
 108 prop tor   8   9  10  11
 109 prop tor   8   9  10  28
 110 ben   8   9  27
 111 ben   8  13  12
 112 ben   8  13  14
 113 prop tor   8  13  14  15
 114 prop tor   8  13  14  31
 115 ben   9   8  13
 116 prop tor   9   8  13  12
 117 prop tor   9   8  13  14
 118 ben   9  10  11
 119 prop tor   9  10  11  12
 120 prop tor   9  10  11  29
 121 ben   9  10  28
 122 ben  10   9  27
 123 ben  10  11  12
 124 prop tor  10  11  12  13
 125 prop tor  10  11  12  30
 126 ben  10  11  29
 127 ben  11  10  28
 128 ben  11  12  13
 129 prop tor  11  12  13   8
 130 prop tor  11  12  13  14
 131 ben  11  12  30
 132 ben  12  11  29
 133 ben  12  13  14
 134 prop tor  12  13  14  15
 135 prop tor  12  13  14  31
 136 prop tor  13   8   9  10
 137 prop tor  13   8   9  27
 138 ben  13  12  30
 139 ben  13  14  15
 140 prop tor  13  14  15   6
 141 prop tor  13  14  15  16
 142 ben  13  14  31
 143 ben  14  15  16
 144 prop tor  14  15  16  17
 145 prop tor  14  15  16  32
 146 prop tor  15   6   7   8
 147 prop tor  15   6   7  26
 148 ben  15  14  31
 149 ben  15  16  17
 150 prop tor  15  16  17   4
 151 prop tor  15  16  17  18
 152 ben  15  16  32
 153 ben  16  17  18
 154 prop tor  16  17  18  19
 155 prop tor  16  17  18  33
 156 prop tor  17   4   5   6
 157 prop tor  17   4   5  25
 158 ben  17  16  32
 159 ben  17  18  19
 160 prop tor  17  18  19   2
 161 prop tor  17  18  19  20
 162 ben  17  18  33
 163 ben  18  19  20
 164 prop tor  18  19  20  21
 165 prop tor  18  19  20  34
 166 prop tor  19   2   3   4
 167 prop tor  19   2   3  24
 168 ben  19  18  33
 169 ben  19  20  21
 170 prop tor  19  20  21  22
 171 prop tor  19  20  21  35
 172 ben  19  20  34
 173 ben  20  21  22
 174 prop tor  20  21  22   1
 175 prop tor  20  21  22  36
 176 ben  20  21  35
 177 ben  21  20  34
 178 ben  21  22  36
 179 prop tor  22   1   2   3
 180 prop tor  22   1   2  19
 181 ben  22   1  23
 182 ben  22  21  35
 183 prop tor  23   1   2   3
 184 prop tor  23   1   2  19
 185 prop tor  23   1  22  21
 186 prop tor  23   1  22  36
 187 prop tor  24   3   4   5
 188 prop tor  24   3   4  17
 189 prop tor  25   5   6   7
 190 prop tor  25   5   6  15
 191 prop tor  26   7   8   9
 192 prop tor  26   7   8  13
 193 prop tor  27   9  10  11
 194 prop tor  27   9  10  28
 195 prop tor  28  10  11  12
 196 prop tor  28  10  11  29
 197 prop tor  29  11  12  13
 198 prop tor  29  11  12  30
 199 prop tor  30  12  13   8
 200 prop tor  30  12  13  14
 201 prop tor  31  14  15   6
 202 prop tor  31  14  15  16
 203 prop tor  32  16  17   4
 204 prop tor  32  16  17  18
 205 prop tor  33  18  19   2
 206 prop tor  33  18  19  20
 207 prop tor  34  20  21  22
 208 prop tor  34  20  21  35
 209 prop tor  35  21  22   1
 210 prop tor  35  21  22  36
 nber bend=              66
 nber lin bend=           0
 nber prop tor=         104
 nber impr tor=           0
 nber tot redund int=         210
 Eigenvalues of G in red int coords
    Gval -0.00000000 -0.00000000 -0.00000000 -0.00000000 -0.00000000 -0.00000000 -0.00000000 -0.00000000
    Gval -0.00000000 -0.00000000 -0.00000000 -0.00000000 -0.00000000 -0.00000000 -0.00000000 -0.00000000
    Gval -0.00000000 -0.00000000 -0.00000000 -0.00000000 -0.00000000 -0.00000000 -0.00000000 -0.00000000
    Gval -0.00000000 -0.00000000 -0.00000000 -0.00000000 -0.00000000 -0.00000000 -0.00000000 -0.00000000
    Gval -0.00000000 -0.00000000 -0.00000000 -0.00000000 -0.00000000 -0.00000000 -0.00000000 -0.00000000
    Gval -0.00000000 -0.00000000 -0.00000000 -0.00000000 -0.00000000 -0.00000000 -0.00000000 -0.00000000
    Gval -0.00000000 -0.00000000  0.00000000  0.00000000  0.00000000  0.00000000  0.00000000  0.00000000
    Gval  0.00000000  0.00000000  0.00000000  0.00000000  0.00000000  0.00000000  0.00000000  0.00000000
    Gval  0.00000000  0.00000000  0.00000000  0.00000000  0.00000000  0.00000000  0.00000000  0.00000000
    Gval  0.00000000  0.00000000  0.00000000  0.00000000  0.00000000  0.00000000  0.00000000  0.00000000
    Gval  0.00000000  0.00000000  0.00000000  0.00000000  0.00000000  0.00000000  0.00000000  0.00000000
    Gval  0.00000000  0.00000000  0.00000000  0.00000000  0.00000000  0.00000000  0.00000000  0.00000000
    Gval  0.00000000  0.00000000  0.00000000  0.00000000  0.00000000  0.00000000  0.00000000  0.00000000
    Gval  0.00000000  0.00000000  0.00000000  0.00000000  0.00000189  0.00000408  0.00000611  0.00000994
    Gval  0.00001567  0.00002685  0.00002815  0.00003162  0.00003272  0.00004086  0.00004362  0.00004485
    Gval  0.00004594  0.00005016  0.00005320  0.00005714  0.00006847  0.00006945  0.00007617  0.00007704
    Gval  0.00008350  0.00009872  0.00010273  0.00010975  0.00011229  0.00011682  0.00012678  0.00013752
    Gval  0.00014074  0.00014898  0.00016334  0.00016405  0.00019765  0.00021441  0.00025703  0.00026084
    Gval  0.00027639  0.00030209  0.00033303  0.00033755  0.00034477  0.00038371  0.00038649  0.00040290
    Gval  0.00040820  0.00041305  0.00041352  0.00043969  0.00047166  0.00048518  0.00059312  0.00059312
    Gval  0.00059685  0.00059687  0.00060805  0.00061144  0.00061895  0.00061993  0.00062862  0.00063485
    Gval  0.00064115  0.00065213  0.00065664  0.00065770  0.00073094  0.00073945  0.00081183  0.00082120
    Gval  0.00090226  0.00096922  0.00104748  0.00104759  0.00110286  0.00110816  0.00110891  0.00111396
    Gval  0.00111483  0.00111920  0.00112281  0.00112459  0.00115517  0.00115517  0.00116698  0.00116698
    Gval  0.00158792  0.00176855  0.00176957  0.00179954  0.00192926  0.00200056  0.00255414  0.00257173
    Gval  0.00275493  0.00284076  0.00302157  0.00311481  0.00329498  0.00333772  0.00353253  0.00355582
    Gval  0.00399825  0.00399858
  1.888345788038276E-006  1.888345788038276E-006
  4.081140217247713E-006  1.888345788038276E-006
  6.114061635784476E-006  1.888345788038276E-006
  9.943686734063431E-006  1.888345788038276E-006
  1.566809103079452E-005  1.888345788038276E-006
  2.684979697448668E-005  1.888345788038276E-006
  2.815093472390564E-005  1.888345788038276E-006
  3.162020242296444E-005  1.888345788038276E-006
  3.271612726568149E-005  1.888345788038276E-006
  4.085996838251480E-005  1.888345788038276E-006
  4.362454482609758E-005  1.888345788038276E-006
  4.484979788737357E-005  1.888345788038276E-006
  4.594421557077854E-005  1.888345788038276E-006
  5.015728354496456E-005  1.888345788038276E-006
  5.320455914510137E-005  1.888345788038276E-006
  5.713570697833299E-005  1.888345788038276E-006
  6.846722271474524E-005  1.888345788038276E-006
  6.945079886530478E-005  1.888345788038276E-006
  7.616991720683432E-005  1.888345788038276E-006
  7.704311197966149E-005  1.888345788038276E-006
  8.350412195697428E-005  1.888345788038276E-006
  9.872005849308072E-005  1.888345788038276E-006
  1.027305565935727E-004  1.888345788038276E-006
  1.097488757953582E-004  1.888345788038276E-006
  1.122855132854038E-004  1.888345788038276E-006
  1.168223393664196E-004  1.888345788038276E-006
  1.267792748241118E-004  1.888345788038276E-006
  1.375188564923537E-004  1.888345788038276E-006
  1.407370642007171E-004  1.888345788038276E-006
  1.489815529256885E-004  1.888345788038276E-006
  1.633353627546701E-004  1.888345788038276E-006
  1.640519139407106E-004  1.888345788038276E-006
  1.976473672572891E-004  1.888345788038276E-006
  2.144070258167813E-004  1.888345788038276E-006
  2.570294248751648E-004  1.888345788038276E-006
  2.608426322495791E-004  1.888345788038276E-006
  2.763890689401214E-004  1.888345788038276E-006
  3.020938024316190E-004  1.888345788038276E-006
  3.330310252442444E-004  1.888345788038276E-006
  3.375463459017671E-004  1.888345788038276E-006
  3.447711773057157E-004  1.888345788038276E-006
  3.837145434514981E-004  1.888345788038276E-006
  3.864881574522015E-004  1.888345788038276E-006
  4.028958103143868E-004  1.888345788038276E-006
  4.082034910416963E-004  1.888345788038276E-006
  4.130472557261788E-004  1.888345788038276E-006
  4.135154472760286E-004  1.888345788038276E-006
  4.396870435239851E-004  1.888345788038276E-006
  4.716646080472862E-004  1.888345788038276E-006
  4.851832134407280E-004  1.888345788038276E-006
  5.931168310872258E-004  1.888345788038276E-006
  5.931190113613944E-004  1.888345788038276E-006
  5.968549785614469E-004  1.888345788038276E-006
  5.968661664614208E-004  1.888345788038276E-006
  6.080482479935903E-004  1.888345788038276E-006
  6.114380208287797E-004  1.888345788038276E-006
  6.189496257951770E-004  1.888345788038276E-006
  6.199312333908924E-004  1.888345788038276E-006
  6.286156458828341E-004  1.888345788038276E-006
  6.348546759557368E-004  1.888345788038276E-006
  6.411508344020468E-004  1.888345788038276E-006
  6.521327448388860E-004  1.888345788038276E-006
  6.566413784041696E-004  1.888345788038276E-006
  6.577030395078389E-004  1.888345788038276E-006
  7.309431940138384E-004  1.888345788038276E-006
  7.394456892722117E-004  1.888345788038276E-006
  8.118286088468350E-004  1.888345788038276E-006
  8.212001345258694E-004  1.888345788038276E-006
  9.022569675862272E-004  1.888345788038276E-006
  9.692233827504742E-004  1.888345788038276E-006
  1.047481788096342E-003  1.888345788038276E-006
  1.047594855455893E-003  1.888345788038276E-006
  1.102862411931115E-003  1.888345788038276E-006
  1.108159057458772E-003  1.888345788038276E-006
  1.108905042071974E-003  1.888345788038276E-006
  1.113963589989814E-003  1.888345788038276E-006
  1.114827188032024E-003  1.888345788038276E-006
  1.119195795664370E-003  1.888345788038276E-006
  1.122812523806493E-003  1.888345788038276E-006
  1.124593124804451E-003  1.888345788038276E-006
  1.155165263076347E-003  1.888345788038276E-006
  1.155173496420649E-003  1.888345788038276E-006
  1.166983920814251E-003  1.888345788038276E-006
  1.166983921281150E-003  1.888345788038276E-006
  1.587920921727580E-003  1.888345788038276E-006
  1.768549932449424E-003  1.888345788038276E-006
  1.769570929652585E-003  1.888345788038276E-006
  1.799544925175100E-003  1.888345788038276E-006
  1.929263176258826E-003  1.888345788038276E-006
  2.000556642152516E-003  1.888345788038276E-006
  2.554141142769100E-003  1.888345788038276E-006
  2.571728661960943E-003  1.888345788038276E-006
  2.754934090012782E-003  1.888345788038276E-006
  2.840764951301637E-003  1.888345788038276E-006
  3.021574858597335E-003  1.888345788038276E-006
  3.114811685980939E-003  1.888345788038276E-006
  3.294984740737953E-003  1.888345788038276E-006
  3.337715513909229E-003  1.888345788038276E-006
  3.532531920818940E-003  1.888345788038276E-006
  3.555821125402809E-003  1.888345788038276E-006
  3.998250049266251E-003  1.888345788038276E-006
  3.998577565082615E-003  1.888345788038276E-006
 cut=1d-8, nber non-redundant internal coords=         102
 Check on Eigenvals of non-red overlap matrix:
  0.00000189  0.00000408  0.00000611  0.00000994  0.00001567  0.00002685  0.00002815  0.00003162
  0.00003272  0.00004086  0.00004362  0.00004485  0.00004594  0.00005016  0.00005320  0.00005714
  0.00006847  0.00006945  0.00007617  0.00007704  0.00008350  0.00009872  0.00010273  0.00010975
  0.00011229  0.00011682  0.00012678  0.00013752  0.00014074  0.00014898  0.00016334  0.00016405
  0.00019765  0.00021441  0.00025703  0.00026084  0.00027639  0.00030209  0.00033303  0.00033755
  0.00034477  0.00038371  0.00038649  0.00040290  0.00040820  0.00041305  0.00041352  0.00043969
  0.00047166  0.00048518  0.00059312  0.00059312  0.00059685  0.00059687  0.00060805  0.00061144
  0.00061895  0.00061993  0.00062862  0.00063485  0.00064115  0.00065213  0.00065664  0.00065770
  0.00073094  0.00073945  0.00081183  0.00082120  0.00090226  0.00096922  0.00104748  0.00104759
  0.00110286  0.00110816  0.00110891  0.00111396  0.00111483  0.00111920  0.00112281  0.00112459
  0.00115517  0.00115517  0.00116698  0.00116698  0.00158792  0.00176855  0.00176957  0.00179954
  0.00192926  0.00200056  0.00255414  0.00257173  0.00275493  0.00284076  0.00302157  0.00311481
  0.00329498  0.00333772  0.00353253  0.00355582  0.00399825  0.00399858
 Checking for correct frequencies
 recalc frequencies=
    -0.0   -0.0   -0.0   -0.0   -0.0   -0.0   37.5   68.5  103.1  118.4
   148.6  193.5  236.0  239.6  262.8  311.2  326.7  354.3  360.0  454.4
   459.3  463.9  468.8  470.0  487.7  513.3  554.7  564.5  584.6  616.1
   637.0  638.7  711.4  719.0  724.3  726.2  732.5  748.3  751.7  752.3
   756.2  777.2  783.6  795.4  809.6  825.6  827.8  833.2  848.0  853.4
   858.4  887.5  909.9  910.2  915.6  930.9  935.5  935.6 1031.9 1033.2
  1126.7 1139.7 1161.6 1169.6 1176.6 1184.2 1195.0 1208.2 1243.1 1246.1
  1283.6 1286.2 1292.7 1305.6 1311.9 1351.4 1380.2 1392.6 1397.9 1406.2
  1410.3 1414.5 1464.6 1467.7 1496.0 1522.4 1526.8 1534.0 1553.4 1559.1
  1564.1 1600.6 1616.7 1633.9 3122.6 3122.9 3124.6 3124.8 3126.4 3127.8
  3128.8 3131.3 3131.9 3135.7 3145.0 3145.1 3161.9 3162.4
 recalc symmetries=
     B3g    B2u    B1u    B2g    B3u    B1g    B3u    Au     B1g    B1u
     B2g    B3u    B3g    Au     Ag     B1g    B2g    B3u    B1u    B3g
     B3u    B1g    B3u    B1g    B2u    B3g    Au     B2g    B1u    Ag 
     B2u    Ag     Au     B3u    B3g    B1g    B2g    B2u    Au     Ag 
     B2g    B3u    B2g    Ag     Au     B1g    B2g    B1u    B3u    Au 
     B2g    B2u    B1g    B3u    B1u    B3g    B2g    Au     B2u    Ag 
     B1u    B3g    B2u    Ag     B3g    B2u    B1u    Ag     B3g    B2u
     B1u    B3g    B3g    B1u    Ag     B1u    B2u    Ag     B2u    B2u
     Ag     B3g    B1u    B2u    Ag     B2u    B3g    Ag     B3g    B2u
     Ag     B1u    B1u    B3g    B1u    B3g    Ag     B1u    B2u    B3g
     Ag     B1u    B2u    Ag     B3g    B1u    B2u    Ag 
 recalc freqs check OK
 Zero-point lengths:
 10.0000 10.0000 10.0000 10.0000 10.0000 10.0000 40.4835 29.9491 24.4171 22.7799
 20.3342 17.8199 16.1390 16.0151 15.2939 14.0531 13.7159 13.1701 13.0668 11.6299
 11.5682 11.5103 11.4498 11.4348 11.2253 10.9428 10.5260 10.4343 10.2532  9.9878
  9.8226  9.8098  9.2946  9.2458  9.2115  9.1996  9.1602  9.0628  9.0420  9.0385
  9.0151  8.8928  8.8560  8.7900  8.7130  8.6280  8.6164  8.5884  8.5132  8.4864
  8.4613  8.3215  8.2186  8.2172  8.1928  8.1252  8.1052  8.1051  7.7174  7.7125
  7.3858  7.3434  7.2740  7.2488  7.2274  7.2041  7.1716  7.1322  7.0314  7.0231
  6.9195  6.9127  6.8953  6.8612  6.8444  6.7439  6.6731  6.6432  6.6306  6.6111
  6.6015  6.5917  6.4780  6.4711  6.4095  6.3538  6.3445  6.3297  6.2901  6.2785
  6.2685  6.1966  6.1658  6.1331  4.4365  4.4363  4.4351  4.4349  4.4337  4.4328
  4.4321  4.4303  4.4299  4.4272  4.4206  4.4206  4.4088  4.4085
 highest evec of mol 2
  0.0000  0.0060 -0.0589
  0.0000  0.0023  0.0003
  0.0000  0.0000 -0.0086
  0.0000 -0.0001  0.0001
  0.0000  0.0000 -0.0052
  0.0000  0.0001  0.0001
  0.0000 -0.0000 -0.0086
  0.0000 -0.0023  0.0003
  0.0000 -0.0060 -0.0589
  0.0000  0.1176 -0.0683
  0.0000  0.1176  0.0683
  0.0000 -0.0060  0.0589
  0.0000 -0.0023 -0.0003
  0.0000 -0.0000  0.0086
  0.0000  0.0001 -0.0001
  0.0000  0.0000  0.0052
  0.0000 -0.0001 -0.0001
  0.0000  0.0000  0.0086
  0.0000  0.0023 -0.0003
  0.0000  0.0060  0.0589
  0.0000 -0.1176  0.0683
  0.0000 -0.1176 -0.0683
  0.0000 -0.0020  0.1845
  0.0000 -0.0006  0.0288
  0.0000  0.0000  0.0169
  0.0000  0.0006  0.0288
  0.0000  0.0020  0.1845
  0.0000 -0.3804  0.2194
  0.0000 -0.3804 -0.2194
  0.0000  0.0020 -0.1845
  0.0000  0.0006 -0.0288
  0.0000  0.0000 -0.0169
  0.0000 -0.0006 -0.0288
  0.0000 -0.0020 -0.1845
  0.0000  0.3804 -0.2194
  0.0000  0.3804  0.2194
 Enter nber and list of atoms to keep of mol #2
 keep list:          36           1           2           3           4
           5           6           7           8           9          10
          11          12          13          14          15          16
          17          18          19          20          21          22
          23          24          25          26          27          28
          29          30          31          32          33          34
          35          36
 reordering atoms
           1  -4.95597000000000     
           2  -3.70166000000000     
           3  -2.47294600000000     
           4  -1.23572000000000     
           5  2.153159805333637E-016
           6   1.23572000000000     
           7   2.47294600000000     
           8   3.70166000000000     
           9   4.95597000000000     
          10   6.14738400000000     
          11   6.14738400000000     
          12   4.95597000000000     
          13   3.70166000000000     
          14   2.47294600000000     
          15   1.23572000000000     
          16  2.153159805333637E-016
          17  -1.23572000000000     
          18  -2.47294600000000     
          19  -3.70166000000000     
          20  -4.95597000000000     
          21  -6.14738400000000     
          22  -6.14738400000000     
          23  -4.95532000000000     
          24  -2.47462200000000     
          25  2.153159805333637E-016
          26   2.47462200000000     
          27   4.95532000000000     
          28   7.08962100000000     
          29   7.08962100000000     
          30   4.95532000000000     
          31   2.47462200000000     
          32  2.153159805333637E-016
          33  -2.47462200000000     
          34  -4.95532000000000     
          35  -7.08962100000000     
          36  -7.08962100000000     
           1           1
           2           2
           3           3
           4           4
           5           5
           6           6
           7           7
           8           8
           9           9
          10          10
          11          11
          12          12
          13          13
          14          14
          15          15
          16          16
          17          17
          18          18
          19          19
          20          20
          21          21
          22          22
          23          23
          24          24
          25          25
          26          26
          27          27
          28          28
          29          29
          30          30
          31          31
          32          32
          33          33
          34          34
          35          35
          36          36
 initial cartes coords mol 1
   6   0.00000   1.40845   4.93531
   6   0.00000   0.72684   3.67279
   6   0.00000   1.40625   2.46431
   6   0.00000   0.72762   1.22455
   6   0.00000   1.40675   0.00000
   6   0.00000   0.72762  -1.22455
   6   0.00000   1.40625  -2.46431
   6   0.00000   0.72684  -3.67279
   6   0.00000   1.40845  -4.93531
   6   0.00000   0.71589  -6.10776
   6   0.00000  -0.71589  -6.10776
   6   0.00000  -1.40845  -4.93531
   6   0.00000  -0.72684  -3.67279
   6   0.00000  -1.40625  -2.46431
   6   0.00000  -0.72762  -1.22455
   6   0.00000  -1.40675   0.00000
   6   0.00000  -0.72762   1.22455
   6   0.00000  -1.40625   2.46431
   6   0.00000  -0.72684   3.67279
   6   0.00000  -1.40845   4.93531
   6   0.00000  -0.71589   6.10776
   6   0.00000   0.71589   6.10776
   1   0.00000   2.49375   4.93528
   1   0.00000   2.49188   2.46493
   1   0.00000   2.49232   0.00000
   1   0.00000   2.49188  -2.46493
   1   0.00000   2.49375  -4.93528
   1   0.00000   1.24543  -7.05367
   1   0.00000  -1.24543  -7.05367
   1   0.00000  -2.49375  -4.93528
   1   0.00000  -2.49188  -2.46493
   1   0.00000  -2.49232   0.00000
   1   0.00000  -2.49188   2.46493
   1   0.00000  -2.49375   4.93528
   1   0.00000  -1.24543   7.05367
   1   0.00000   1.24543   7.05367
 initial cartes coords mol 2
   6   0.00000   1.39820  -4.95597
   6   0.00000   0.72453  -3.70166
   6   0.00000   1.40104  -2.47295
   6   0.00000   0.73086  -1.23572
   6   0.00000   1.40318   0.00000
   6   0.00000   0.73086   1.23572
   6   0.00000   1.40104   2.47295
   6   0.00000   0.72453   3.70166
   6   0.00000   1.39820   4.95597
   6   0.00000   0.70840   6.14738
   6   0.00000  -0.70840   6.14738
   6   0.00000  -1.39820   4.95597
   6   0.00000  -0.72453   3.70166
   6   0.00000  -1.40104   2.47295
   6   0.00000  -0.73086   1.23572
   6   0.00000  -1.40318   0.00000
   6   0.00000  -0.73086  -1.23572
   6   0.00000  -1.40104  -2.47295
   6   0.00000  -0.72453  -3.70166
   6   0.00000  -1.39820  -4.95597
   6   0.00000  -0.70840  -6.14738
   6   0.00000   0.70840  -6.14738
   1   0.00000   2.48554  -4.95532
   1   0.00000   2.48840  -2.47462
   1   0.00000   2.49042   0.00000
   1   0.00000   2.48840   2.47462
   1   0.00000   2.48554   4.95532
   1   0.00000   1.24797   7.08962
   1   0.00000  -1.24797   7.08962
   1   0.00000  -2.48554   4.95532
   1   0.00000  -2.48840   2.47462
   1   0.00000  -2.49042   0.00000
   1   0.00000  -2.48840  -2.47462
   1   0.00000  -2.48554  -4.95532
   1   0.00000  -1.24797  -7.08962
   1   0.00000   1.24797  -7.08962
 loop 1 0
 mod cartes coords mol 2
   6   0.00000   1.39820  -4.95597
   6   0.00000   0.72453  -3.70166
   6   0.00000   1.40104  -2.47295
   6   0.00000   0.73086  -1.23572
   6   0.00000   1.40318   0.00000
   6   0.00000   0.73086   1.23572
   6   0.00000   1.40104   2.47295
   6   0.00000   0.72453   3.70166
   6   0.00000   1.39820   4.95597
   6   0.00000   0.70840   6.14738
   6   0.00000  -0.70840   6.14738
   6   0.00000  -1.39820   4.95597
   6   0.00000  -0.72453   3.70166
   6   0.00000  -1.40104   2.47295
   6   0.00000  -0.73086   1.23572
   6   0.00000  -1.40318   0.00000
   6   0.00000  -0.73086  -1.23572
   6   0.00000  -1.40104  -2.47295
   6   0.00000  -0.72453  -3.70166
   6   0.00000  -1.39820  -4.95597
   6   0.00000  -0.70840  -6.14738
   6   0.00000   0.70840  -6.14738
   1   0.00000   2.48554  -4.95532
   1   0.00000   2.48840  -2.47462
   1   0.00000   2.49042   0.00000
   1   0.00000   2.48840   2.47462
   1   0.00000   2.48554   4.95532
   1   0.00000   1.24797   7.08962
   1   0.00000  -1.24797   7.08962
   1   0.00000  -2.48554   4.95532
   1   0.00000  -2.48840   2.47462
   1   0.00000  -2.49042   0.00000
   1   0.00000  -2.48840  -2.47462
   1   0.00000  -2.48554  -4.95532
   1   0.00000  -1.24797  -7.08962
   1   0.00000   1.24797  -7.08962
 read in order, maxerr= 14.14 for atom  28
 loop 1 1
 mod cartes coords mol 2
   6   0.00000   1.39820  -4.95597
   6   0.00000   0.72453  -3.70166
   6   0.00000   1.40104  -2.47295
   6   0.00000   0.73086  -1.23572
   6   0.00000   1.40318   0.00000
   6   0.00000   0.73086   1.23572
   6   0.00000   1.40104   2.47295
   6   0.00000   0.72453   3.70166
   6   0.00000   1.39820   4.95597
   6   0.00000   0.70840   6.14738
   6   0.00000  -0.70840   6.14738
   6   0.00000  -1.39820   4.95597
   6   0.00000  -0.72453   3.70166
   6   0.00000  -1.40104   2.47295
   6   0.00000  -0.73086   1.23572
   6   0.00000  -1.40318   0.00000
   6   0.00000  -0.73086  -1.23572
   6   0.00000  -1.40104  -2.47295
   6   0.00000  -0.72453  -3.70166
   6   0.00000  -1.39820  -4.95597
   6   0.00000  -0.70840  -6.14738
   6   0.00000   0.70840  -6.14738
   1   0.00000   2.48554  -4.95532
   1   0.00000   2.48840  -2.47462
   1   0.00000   2.49042   0.00000
   1   0.00000   2.48840   2.47462
   1   0.00000   2.48554   4.95532
   1   0.00000   1.24797   7.08962
   1   0.00000  -1.24797   7.08962
   1   0.00000  -2.48554   4.95532
   1   0.00000  -2.48840   2.47462
   1   0.00000  -2.49042   0.00000
   1   0.00000  -2.48840  -2.47462
   1   0.00000  -2.48554  -4.95532
   1   0.00000  -1.24797  -7.08962
   1   0.00000   1.24797  -7.08962
 read in order, maxerr= 14.14 for atom  28
 loop 1 2
 mod cartes coords mol 2
   6   0.00000  -1.39820  -4.95597
   6   0.00000  -0.72453  -3.70166
   6   0.00000  -1.40104  -2.47295
   6   0.00000  -0.73086  -1.23572
   6   0.00000  -1.40318   0.00000
   6   0.00000  -0.73086   1.23572
   6   0.00000  -1.40104   2.47295
   6   0.00000  -0.72453   3.70166
   6   0.00000  -1.39820   4.95597
   6   0.00000  -0.70840   6.14738
   6   0.00000   0.70840   6.14738
   6   0.00000   1.39820   4.95597
   6   0.00000   0.72453   3.70166
   6   0.00000   1.40104   2.47295
   6   0.00000   0.73086   1.23572
   6   0.00000   1.40318   0.00000
   6   0.00000   0.73086  -1.23572
   6   0.00000   1.40104  -2.47295
   6   0.00000   0.72453  -3.70166
   6   0.00000   1.39820  -4.95597
   6   0.00000   0.70840  -6.14738
   6   0.00000  -0.70840  -6.14738
   1   0.00000  -2.48554  -4.95532
   1   0.00000  -2.48840  -2.47462
   1   0.00000  -2.49042   0.00000
   1   0.00000  -2.48840   2.47462
   1   0.00000  -2.48554   4.95532
   1   0.00000  -1.24797   7.08962
   1   0.00000   1.24797   7.08962
   1   0.00000   2.48554   4.95532
   1   0.00000   2.48840   2.47462
   1   0.00000   2.49042   0.00000
   1   0.00000   2.48840  -2.47462
   1   0.00000   2.48554  -4.95532
   1   0.00000   1.24797  -7.08962
   1   0.00000  -1.24797  -7.08962
 read in order, maxerr= 14.36 for atom  28
 loop 1 3
 mod cartes coords mol 2
   6   0.00000  -1.39820  -4.95597
   6   0.00000  -0.72453  -3.70166
   6   0.00000  -1.40104  -2.47295
   6   0.00000  -0.73086  -1.23572
   6   0.00000  -1.40318   0.00000
   6   0.00000  -0.73086   1.23572
   6   0.00000  -1.40104   2.47295
   6   0.00000  -0.72453   3.70166
   6   0.00000  -1.39820   4.95597
   6   0.00000  -0.70840   6.14738
   6   0.00000   0.70840   6.14738
   6   0.00000   1.39820   4.95597
   6   0.00000   0.72453   3.70166
   6   0.00000   1.40104   2.47295
   6   0.00000   0.73086   1.23572
   6   0.00000   1.40318   0.00000
   6   0.00000   0.73086  -1.23572
   6   0.00000   1.40104  -2.47295
   6   0.00000   0.72453  -3.70166
   6   0.00000   1.39820  -4.95597
   6   0.00000   0.70840  -6.14738
   6   0.00000  -0.70840  -6.14738
   1   0.00000  -2.48554  -4.95532
   1   0.00000  -2.48840  -2.47462
   1   0.00000  -2.49042   0.00000
   1   0.00000  -2.48840   2.47462
   1   0.00000  -2.48554   4.95532
   1   0.00000  -1.24797   7.08962
   1   0.00000   1.24797   7.08962
   1   0.00000   2.48554   4.95532
   1   0.00000   2.48840   2.47462
   1   0.00000   2.49042   0.00000
   1   0.00000   2.48840  -2.47462
   1   0.00000   2.48554  -4.95532
   1   0.00000   1.24797  -7.08962
   1   0.00000  -1.24797  -7.08962
 read in order, maxerr= 14.36 for atom  28
 loop 1 4
 mod cartes coords mol 2
   6   0.00000   1.39820   4.95597
   6   0.00000   0.72453   3.70166
   6   0.00000   1.40104   2.47295
   6   0.00000   0.73086   1.23572
   6   0.00000   1.40318  -0.00000
   6   0.00000   0.73086  -1.23572
   6   0.00000   1.40104  -2.47295
   6   0.00000   0.72453  -3.70166
   6   0.00000   1.39820  -4.95597
   6   0.00000   0.70840  -6.14738
   6   0.00000  -0.70840  -6.14738
   6   0.00000  -1.39820  -4.95597
   6   0.00000  -0.72453  -3.70166
   6   0.00000  -1.40104  -2.47295
   6   0.00000  -0.73086  -1.23572
   6   0.00000  -1.40318  -0.00000
   6   0.00000  -0.73086   1.23572
   6   0.00000  -1.40104   2.47295
   6   0.00000  -0.72453   3.70166
   6   0.00000  -1.39820   4.95597
   6   0.00000  -0.70840   6.14738
   6   0.00000   0.70840   6.14738
   1   0.00000   2.48554   4.95532
   1   0.00000   2.48840   2.47462
   1   0.00000   2.49042  -0.00000
   1   0.00000   2.48840  -2.47462
   1   0.00000   2.48554  -4.95532
   1   0.00000   1.24797  -7.08962
   1   0.00000  -1.24797  -7.08962
   1   0.00000  -2.48554  -4.95532
   1   0.00000  -2.48840  -2.47462
   1   0.00000  -2.49042  -0.00000
   1   0.00000  -2.48840   2.47462
   1   0.00000  -2.48554   4.95532
   1   0.00000  -1.24797   7.08962
   1   0.00000   1.24797   7.08962
 read in order, maxerr=  0.04 for atom  10
 final axis swaps:           1           1          -1
 final xyz swap pattern=           1
 reorder list:
   1   2   3   4   5   6   7   8   9  10  11  12  13  14  15  16  17  18  19  20
  21  22  23  24  25  26  27  28  29  30  31  32  33  34  35  36
 axis signs=           1           1          -1
  6     0.000000  1.398199  4.955970     0.000000  1.408448  4.935313
  6     0.000000  0.724530  3.701660     0.000000  0.726839  3.672792
  6     0.000000  1.401035  2.472946     0.000000  1.406247  2.464310
  6     0.000000  0.730859  1.235720     0.000000  0.727625  1.224548
  6     0.000000  1.403175 -0.000000     0.000000  1.406748  0.000000
  6     0.000000  0.730859 -1.235720     0.000000  0.727625 -1.224548
  6     0.000000  1.401035 -2.472946     0.000000  1.406247 -2.464310
  6     0.000000  0.724530 -3.701660     0.000000  0.726839 -3.672792
  6     0.000000  1.398199 -4.955970     0.000000  1.408448 -4.935313
  6     0.000000  0.708400 -6.147384     0.000000  0.715894 -6.107765
  6     0.000000 -0.708400 -6.147384     0.000000 -0.715894 -6.107765
  6     0.000000 -1.398199 -4.955970     0.000000 -1.408448 -4.935313
  6     0.000000 -0.724530 -3.701660     0.000000 -0.726839 -3.672792
  6     0.000000 -1.401035 -2.472946     0.000000 -1.406247 -2.464310
  6     0.000000 -0.730859 -1.235720     0.000000 -0.727625 -1.224548
  6     0.000000 -1.403175 -0.000000     0.000000 -1.406748  0.000000
  6     0.000000 -0.730859  1.235720     0.000000 -0.727625  1.224548
  6     0.000000 -1.401035  2.472946     0.000000 -1.406247  2.464310
  6     0.000000 -0.724530  3.701660     0.000000 -0.726839  3.672792
  6     0.000000 -1.398199  4.955970     0.000000 -1.408448  4.935313
  6     0.000000 -0.708400  6.147384     0.000000 -0.715894  6.107765
  6     0.000000  0.708400  6.147384     0.000000  0.715894  6.107765
  1     0.000000  2.485535  4.955320     0.000000  2.493748  4.935281
  1     0.000000  2.488397  2.474622     0.000000  2.491878  2.464929
  1     0.000000  2.490424 -0.000000     0.000000  2.492321  0.000000
  1     0.000000  2.488397 -2.474622     0.000000  2.491878 -2.464929
  1     0.000000  2.485535 -4.955320     0.000000  2.493748 -4.935281
  1     0.000000  1.247974 -7.089621     0.000000  1.245430 -7.053673
  1     0.000000 -1.247974 -7.089621     0.000000 -1.245430 -7.053673
  1     0.000000 -2.485535 -4.955320     0.000000 -2.493748 -4.935281
  1     0.000000 -2.488397 -2.474622     0.000000 -2.491878 -2.464929
  1     0.000000 -2.490424 -0.000000     0.000000 -2.492321  0.000000
  1     0.000000 -2.488397  2.474622     0.000000 -2.491878  2.464929
  1     0.000000 -2.485535  4.955320     0.000000 -2.493748  4.935281
  1     0.000000 -1.247974  7.089621     0.000000 -1.245430  7.053673
  1     0.000000  1.247974  7.089621     0.000000  1.245430  7.053673
 generating redundant internal coords
         300        3600          36
 Adding extra bonds for z output only
           6           6           6           6           6           6
           6           6           6           6           6           6
           6           6           6           6           6           6
           6           6           6           6           1           1
           1           1           1           1           1           1
           1           1           1           1           1           1
 search for int coords
   1 str   2   1   1.424
[...]
  51 B2g   915. -0.9552    91.2    99.6  51 B2g   858.
  52 B3u   921. -0.9963    99.3    99.5  49 B3u   848.
  53 B1u   922. -0.9984    99.7    99.8  55 B1u   916.
  54 B3g   936. -0.9987    99.7    99.7  56 B3g   931.
  55 B1g   973.  0.9937    98.7    99.1  53 B1g   910.
  56 B3u   973.  0.9936    98.7    99.1  54 B3u   910.
  57 Au    995. -0.9924    98.5    99.7  58 Au    936.
  58 B2g   995. -0.9924    98.5    99.7  57 B2g   936.
  59 B2u  1016.  0.9933    98.7   100.2  59 B2u  1032.
  60 Ag   1019. -0.9967    99.3   100.2  60 Ag   1033.
  61 B2u  1134.  0.7057    49.8   100.2  63 B2u  1162.
                 0.6650    44.2          66 B2u  1184.
  62 B1u  1144. -0.9944    98.9    99.6  61 B1u  1127.
  63 B3g  1158. -0.9953    99.1    99.6  62 B3g  1140.
  64 Ag   1185.  0.9972    99.4    99.6  64 Ag   1170.
  65 B2u  1188. -0.6815    46.4    99.6  63 B2u  1162.
                 0.7242    52.5          66 B2u  1184.
  66 B3g  1200. -0.9895    97.9    99.9  65 B3g  1177.
  67 Ag   1207. -0.9960    99.2    99.9  68 Ag   1208.
  68 B1u  1210.  0.9910    98.2    99.8  67 B1u  1195.
  69 B3g  1242. -0.9866    97.3    99.8  69 B3g  1243.
  70 B2u  1251.  0.9836    96.7    99.9  70 B2u  1246.
  71 B1u  1294. -0.9884    97.7    99.6  71 B1u  1284.
  72 B3g  1295.  0.9660    93.3    99.6  72 B3g  1286.
  73 B3g  1312.  0.9662    93.4    99.6  73 B3g  1293.
  74 B1u  1319.  0.9906    98.1    99.5  74 B1u  1306.
  75 Ag   1334. -0.9593    92.0   100.0  75 Ag   1312.
  76 B2u  1359. -0.7930    62.9    99.8  79 B2u  1398.
                -0.5501    30.3          80 B2u  1406.
  77 B1u  1376. -0.9832    96.7    99.6  76 B1u  1351.
  78 Ag   1410. -0.3281    10.8    99.7  78 Ag   1393.
                -0.9119    83.2          81 Ag   1410.
  79 B2u  1416. -0.4700    22.1    99.8  77 B2u  1380.
                -0.4801    23.0          79 B2u  1398.
                 0.7256    52.7          80 B2u  1406.
  80 B3g  1419.  0.9958    99.2    99.6  82 B3g  1414.
  81 B2u  1427.  0.8312    69.1    99.5  77 B2u  1380.
                 0.3847    14.8          80 B2u  1406.
  82 Ag   1434.  0.8913    79.4    99.5  78 Ag   1393.
                -0.3506    12.3          81 Ag   1410.
  83 B2u  1478. -0.9168    84.1    99.5  84 B2u  1468.
  84 B1u  1478.  0.9825    96.5   100.0  83 B1u  1465.
  85 Ag   1493.  0.9639    92.9    99.4  85 Ag   1496.
  86 B2u  1542. -0.9149    83.7    99.7  86 B2u  1522.
  87 Ag   1557. -0.9574    91.7    99.8  88 Ag   1534.
  88 Ag   1577.  0.9406    88.5    99.6  91 Ag   1564.
  89 B2u  1579. -0.9325    86.9    99.7  90 B2u  1559.
  90 B3g  1594.  0.9952    99.0   100.3  89 B3g  1553.
  91 B3g  1633. -0.9776    95.6   100.1  87 B3g  1527.
  92 B1u  1642. -0.7535    56.8   100.3  92 B1u  1601.
                 0.6440    41.5          93 B1u  1617.
  93 B3g  1673. -0.9834    96.7   100.5  94 B3g  1634.
  94 B1u  1674.  0.6482    42.0   100.4  92 B1u  1601.
                 0.7588    57.6          93 B1u  1617.
  95 B1u  3154.  0.9137    83.5   100.0  95 B1u  3122.
                 0.4000    16.0          98 B1u  3125.
  96 B3g  3155. -0.9612    92.4   100.0  96 B3g  3123.
  97 Ag   3156. -0.9951    99.0   100.0  97 Ag   3125.
  98 B1u  3156. -0.3973    15.8   100.0  95 B1u  3122.
                 0.9156    83.8          98 B1u  3125.
  99 B2u  3157.  0.9727    94.6   100.0  99 B2u  3126.
 100 B3g  3158. -0.9604    92.2   100.0 100 B3g  3128.
 101 Ag   3159.  0.9899    98.0   100.0 101 Ag   3129.
 102 B1u  3160.  0.9956    99.1   100.0 102 B1u  3131.
 103 B2u  3161.  0.9724    94.6   100.0 103 B2u  3132.
 104 Ag   3163. -0.9903    98.1   100.0 104 Ag   3136.
 105 B3g  3175.  0.9978    99.6   100.0 105 B3g  3145.
 106 B1u  3175.  0.9973    99.5   100.0 106 B1u  3145.
 107 B2u  3188.  0.9997    99.9   100.0 107 B2u  3162.
 108 Ag   3188.  0.9995    99.9   100.0 108 Ag   3162.
 nber times 1st assigned=           1           0
 nber times 1st assigned=           2           0
 nber times 1st assigned=           3           0
 nber times 1st assigned=           4           0
 nber times 1st assigned=           5           0
 nber times 1st assigned=           6           0
 nber times 1st assigned=           7           0
 nber times 1st assigned=           8           0
 nber times 1st assigned=           9           0
 nber times 1st assigned=          10           0
 nber times 1st assigned=          11           0
 nber times 1st assigned=          12           0
 nber times 1st assigned=          13           0
 nber times 1st assigned=          14           0
 nber times 1st assigned=          15           0
 nber times 1st assigned=          16           0
 nber times 1st assigned=          17           0
 nber times 1st assigned=          18           0
 nber times 1st assigned=          19           0
 nber times 1st assigned=          20           0
 nber times 1st assigned=          21           0
 nber times 1st assigned=          22           0
 nber times 1st assigned=          23           0
 nber times 1st assigned=          24           0
 nber times 1st assigned=          25           0
 nber times 1st assigned=          26           0
 nber times 1st assigned=          27           0
 nber times 1st assigned=          28           0
 nber times 1st assigned=          29           0
 nber times 1st assigned=          30           0
 nber times 1st assigned=          31           0
 nber times 1st assigned=          32           0
 nber times 1st assigned=          33           0
 nber times 1st assigned=          34           0
 nber times 1st assigned=          35           0
 nber times 1st assigned=          36           0
 nber times 1st assigned=          37           0
 nber times 1st assigned=          38           0
 nber times 1st assigned=          39           0
 nber times 1st assigned=          40           0
 nber times 1st assigned=          41           0
 nber times 1st assigned=          42           0
 nber times 1st assigned=          43           0
 nber times 1st assigned=          44           0
 nber times 1st assigned=          45           0
 nber times 1st assigned=          46           0
 nber times 1st assigned=          47           0
 nber times 1st assigned=          48           0
 nber times 1st assigned=          49           0
 nber times 1st assigned=          50           0
 nber times 1st assigned=          51           0
 nber times 1st assigned=          52           0
 nber times 1st assigned=          53           0
 nber times 1st assigned=          54           0
 nber times 1st assigned=          55           0
 nber times 1st assigned=          56           0
 nber times 1st assigned=          57           0
 nber times 1st assigned=          58           0
 nber times 1st assigned=          59           0
 nber times 1st assigned=          60           0
 nber times 1st assigned=          61           0
 nber times 1st assigned=          62           0
 nber times 1st assigned=          63           0
 nber times 1st assigned=          64           0
 nber times 1st assigned=          65           0
 nber times 1st assigned=          66           0
 nber times 1st assigned=          67           0
 nber times 1st assigned=          68           0
 nber times 1st assigned=          69           0
 nber times 1st assigned=          70           0
 nber times 1st assigned=          71           0
 nber times 1st assigned=          72           0
 nber times 1st assigned=          73           0
 nber times 1st assigned=          74           0
 nber times 1st assigned=          75           0
 nber times 1st assigned=          76           0
 nber times 1st assigned=          77           0
 nber times 1st assigned=          78           0
 nber times 1st assigned=          79           0
 nber times 1st assigned=          80           0
 nber times 1st assigned=          81           0
 nber times 1st assigned=          82           0
 nber times 1st assigned=          83           0
 nber times 1st assigned=          84           0
 nber times 1st assigned=          85           0
 nber times 1st assigned=          86           0
 nber times 1st assigned=          87           0
 nber times 1st assigned=          88           0
 nber times 1st assigned=          89           0
 nber times 1st assigned=          90           0
 nber times 1st assigned=          91           0
 nber times 1st assigned=          92           0
 nber times 1st assigned=          93           0
 nber times 1st assigned=          94           0
 nber times 1st assigned=          95           0
 nber times 1st assigned=          96           0
 nber times 1st assigned=          97           0
 nber times 1st assigned=          98           0
 nber times 1st assigned=          99           0
 nber times 1st assigned=         100           0
 nber times 1st assigned=         101           0
 nber times 1st assigned=         102           0
 nber times 1st assigned=         103           0
 nber times 1st assigned=         104           0
 nber times 1st assigned=         105           0
 nber times 1st assigned=         106           0
 nber times 1st assigned=         107           0
 nber times 1st assigned=         108           0
 modes represented=   101.848479626015     
 p1=
   -0.   -0.    0.    0.   -0.    0.   -0.   -0.    0.   -0.    0.    0.    0.   -0.   16.    0.    0.    0.   -0.   -0.
    0.   -0.    0.    0.   -0.    0.   -0.    0.    0.    3.   -0.   -0.    0.   -0.   -0.   -0.    0.    0.   -1.    0.
   -0.   -1.    0.    0.   -0.   -0.    0.   -0.   -0.    0.   -0.    0.    0.   -0.    0.    0.    0.   -0.    0.   -1.
   -0.   -0.    0.   -2.   -0.   -0.    2.    0.   -0.   -0.    0.   -0.    0.   -0.    0.    0.   -0.   -3.    0.    0.
    0.   -2.    0.   -0.    1.   -0.   -1.   -1.    0.   -0.    0.   -0.   -0.   -0.   -0.    0.   -0.    0.    0.    0.
   -0.   -0.   -0.   -0.   -0.    0.    0.    0.
 p2=
    0.    0.   -0.   -0.   -0.    0.   -0.   -0.    0.    0.    0.    0.    0.   -0.  -16.    0.   -0.    0.   -0.   -0.
    0.   -0.    0.   -0.    0.    0.   -0.    0.   -0.   -3.    0.   -1.    0.   -0.   -0.    0.    0.    0.   -0.    1.
    0.   -0.    0.    1.    0.    0.   -0.   -0.   -0.   -0.   -0.   -0.   -0.   -0.   -0.    0.   -0.    0.   -0.   -0.
   -0.   -0.    0.    2.   -0.    0.    0.    2.    0.    0.   -0.   -0.    0.   -0.    1.    0.    0.    1.    0.    0.
   -4.    0.    0.    0.   -0.   -0.    0.   -1.   -0.    0.    1.   -0.   -0.    0.   -0.   -0.    0.    0.   -0.    0.
    0.    0.    0.   -0.   -0.    0.    0.   -0.

 Displacement: in terms of nc of 1 THEN of nc of 2

   1 B3g freq=    -0. Q= -0.000 lam=    -0.0 B3g freq=    -0. Q= -0.000 lam=    -0.0
   2 B2g freq=    -0. Q= -0.000 lam=    -0.0 B2u freq=    -0. Q= -0.000 lam=    -0.0
   3 B1g freq=    -0. Q=  0.000 lam=    -0.0 B1u freq=    -0. Q=  0.000 lam=    -0.0
   4 B3u freq=    -0. Q=  0.000 lam=    -0.0 B2g freq=    -0. Q=  0.000 lam=    -0.0
   5 B2u freq=     0. Q= -0.000 lam=     0.0 B3u freq=    -0. Q= -0.000 lam=    -0.0
   6 B1u freq=     0. Q=  0.000 lam=     0.0 B1g freq=    -0. Q=  0.000 lam=    -0.0
   7 B3u freq=    36. Q= -0.000 lam=     0.0 B3u freq=    37. Q= -0.000 lam=     0.0
   8 Au  freq=    71. Q= -0.000 lam=     0.0 Au  freq=    69. Q= -0.000 lam=     0.0
   9 B1g freq=   101. Q=  0.000 lam=     0.0 B1g freq=   103. Q=  0.000 lam=     0.0
  10 B1u freq=   119. Q= -0.000 lam=     0.0 B1u freq=   118. Q= -0.000 lam=     0.0
  11 B2g freq=   149. Q=  0.000 lam=     0.0 B2g freq=   149. Q=  0.000 lam=     0.0
  12 B3u freq=   192. Q=  0.000 lam=     0.0 B3u freq=   194. Q=  0.000 lam=     0.0
  13 B3g freq=   238. Q=  0.000 lam=     0.0 B3g freq=   236. Q=  0.000 lam=     0.0
  14 Au  freq=   240. Q= -0.000 lam=     0.0 Au  freq=   240. Q= -0.000 lam=     0.0
  15 Ag  freq=   264. Q=  1.058 lam=   147.6 Ag  freq=   263. Q=  1.056 lam=   146.6
  16 B1g freq=   293. Q=  0.000 lam=     0.0 B1g freq=   311. Q=  0.000 lam=     0.0
  17 B2g freq=   349. Q=  0.000 lam=     0.0 B2g freq=   327. Q=  0.000 lam=     0.0
  18 B1u freq=   362. Q=  0.000 lam=     0.0 B3u freq=   354. Q=  0.000 lam=     0.0
  19 B3u freq=   379. Q= -0.000 lam=     0.0 B1u freq=   360. Q= -0.000 lam=     0.0
  20 B3g freq=   454. Q= -0.000 lam=     0.0 B3g freq=   454. Q= -0.000 lam=     0.0
  21 B3u freq=   469. Q=  0.000 lam=     0.0 B3u freq=   459. Q=  0.000 lam=     0.0
  22 B1g freq=   471. Q= -0.000 lam=     0.0 B1g freq=   464. Q= -0.000 lam=     0.0
  23 B3u freq=   477. Q=  0.000 lam=     0.0 B3u freq=   469. Q=  0.000 lam=     0.0
  24 B1g freq=   478. Q=  0.000 lam=     0.0 B1g freq=   470. Q=  0.000 lam=     0.0
  25 B2u freq=   491. Q= -0.000 lam=     0.0 B2u freq=   488. Q= -0.000 lam=     0.0
  26 B3g freq=   513. Q=  0.000 lam=     0.0 B3g freq=   513. Q=  0.000 lam=     0.0
  27 Au  freq=   526. Q= -0.000 lam=     0.0 Au  freq=   555. Q= -0.000 lam=     0.0
  28 B2g freq=   554. Q=  0.000 lam=     0.0 B2g freq=   564. Q=  0.000 lam=     0.0
  29 B1u freq=   579. Q=  0.000 lam=     0.0 B1u freq=   585. Q=  0.000 lam=     0.0
  30 Ag  freq=   616. Q=  0.304 lam=    28.4 Ag  freq=   616. Q=  0.298 lam=    27.4
  31 B2u freq=   639. Q= -0.000 lam=     0.0 B2u freq=   637. Q= -0.000 lam=     0.0
  32 Ag  freq=   647. Q= -0.036 lam=     0.4 Ag  freq=   639. Q= -0.054 lam=     0.9
  33 Au  freq=   716. Q=  0.000 lam=     0.0 Au  freq=   711. Q=  0.000 lam=     0.0
  34 B3g freq=   725. Q= -0.000 lam=     0.0 B3u freq=   719. Q= -0.000 lam=     0.0
  35 B2u freq=   744. Q= -0.000 lam=     0.0 B3g freq=   724. Q= -0.000 lam=     0.0
  36 B3u freq=   746. Q= -0.000 lam=     0.0 B1g freq=   726. Q= -0.000 lam=     0.0
  37 B1g freq=   752. Q=  0.000 lam=     0.0 B2g freq=   732. Q=  0.000 lam=     0.0
  38 B2g freq=   752. Q=  0.000 lam=     0.0 B2u freq=   748. Q=  0.000 lam=     0.0
  39 Ag  freq=   762. Q= -0.166 lam=    10.4 Au  freq=   752. Q= -0.000 lam=     0.0
  40 Au  freq=   771. Q=  0.000 lam=     0.0 Ag  freq=   752. Q=  0.155 lam=     9.0
  41 B2g freq=   774. Q= -0.000 lam=     0.0 B2g freq=   756. Q= -0.000 lam=     0.0
  42 Ag  freq=   795. Q= -0.120 lam=     5.7 B3u freq=   777. Q= -0.000 lam=     0.0
  43 B1u freq=   837. Q=  0.000 lam=     0.0 B2g freq=   784. Q=  0.000 lam=     0.0
  44 B3u freq=   840. Q=  0.000 lam=     0.0 Ag  freq=   795. Q=  0.120 lam=     5.8
  45 B2g freq=   840. Q= -0.000 lam=     0.0 Au  freq=   810. Q= -0.000 lam=     0.0
  46 Au  freq=   847. Q= -0.000 lam=     0.0 B1g freq=   826. Q= -0.000 lam=     0.0
  47 B2g freq=   874. Q=  0.000 lam=     0.0 B2g freq=   828. Q=  0.000 lam=     0.0
  48 B1g freq=   887. Q= -0.000 lam=     0.0 B1u freq=   833. Q= -0.000 lam=     0.0
  49 B2u freq=   889. Q= -0.000 lam=     0.0 B3u freq=   848. Q= -0.000 lam=     0.0
  50 Au  freq=   900. Q=  0.000 lam=     0.0 Au  freq=   853. Q=  0.000 lam=     0.0
  51 B2g freq=   915. Q= -0.000 lam=     0.0 B2g freq=   858. Q= -0.000 lam=     0.0
  52 B3u freq=   921. Q=  0.000 lam=     0.0 B2u freq=   888. Q=  0.000 lam=     0.0
  53 B1u freq=   922. Q=  0.000 lam=     0.0 B1g freq=   910. Q=  0.000 lam=     0.0
  54 B3g freq=   936. Q= -0.000 lam=     0.0 B3u freq=   910. Q= -0.000 lam=     0.0
  55 B1g freq=   973. Q=  0.000 lam=     0.0 B1u freq=   916. Q=  0.000 lam=     0.0
  56 B3u freq=   973. Q=  0.000 lam=     0.0 B3g freq=   931. Q=  0.000 lam=     0.0
  57 Au  freq=   995. Q=  0.000 lam=     0.0 B2g freq=   936. Q=  0.000 lam=     0.0
  58 B2g freq=   995. Q= -0.000 lam=     0.0 Au  freq=   936. Q= -0.000 lam=     0.0
  59 B2u freq=  1016. Q=  0.000 lam=     0.0 B2u freq=  1032. Q=  0.000 lam=     0.0
  60 Ag  freq=  1019. Q= -0.072 lam=     2.6 Ag  freq=  1033. Q= -0.042 lam=     0.9
  61 B2u freq=  1134. Q= -0.000 lam=     0.0 B1u freq=  1127. Q= -0.000 lam=     0.0
  62 B1u freq=  1144. Q= -0.000 lam=     0.0 B3g freq=  1140. Q= -0.000 lam=     0.0
  63 B3g freq=  1158. Q=  0.000 lam=     0.0 B2u freq=  1162. Q=  0.000 lam=     0.0
  64 Ag  freq=  1185. Q= -0.210 lam=    26.1 Ag  freq=  1170. Q= -0.212 lam=    26.3
  65 B2u freq=  1188. Q= -0.000 lam=     0.0 B3g freq=  1177. Q= -0.000 lam=     0.0
  66 B3g freq=  1200. Q= -0.000 lam=     0.0 B2u freq=  1184. Q= -0.000 lam=     0.0
  67 Ag  freq=  1207. Q=  0.342 lam=    70.6 B1u freq=  1195. Q=  0.000 lam=     0.0
  68 B1u freq=  1210. Q=  0.000 lam=     0.0 Ag  freq=  1208. Q=  0.314 lam=    59.6
  69 B3g freq=  1242. Q= -0.000 lam=     0.0 B3g freq=  1243. Q= -0.000 lam=     0.0
  70 B2u freq=  1251. Q= -0.000 lam=     0.0 B2u freq=  1246. Q= -0.000 lam=     0.0
  71 B1u freq=  1294. Q=  0.000 lam=     0.0 B1u freq=  1284. Q=  0.000 lam=     0.0
  72 B3g freq=  1295. Q= -0.000 lam=     0.0 B3g freq=  1286. Q= -0.000 lam=     0.0
  73 B3g freq=  1312. Q=  0.000 lam=     0.0 B3g freq=  1293. Q=  0.000 lam=     0.0
  74 B1u freq=  1319. Q= -0.000 lam=     0.0 B1u freq=  1306. Q= -0.000 lam=     0.0
  75 Ag  freq=  1334. Q=  0.046 lam=     1.4 Ag  freq=  1312. Q=  0.105 lam=     7.2
  76 B2u freq=  1359. Q=  0.000 lam=     0.0 B1u freq=  1351. Q=  0.000 lam=     0.0
  77 B1u freq=  1376. Q= -0.000 lam=     0.0 B2u freq=  1380. Q= -0.000 lam=     0.0
  78 Ag  freq=  1410. Q= -0.469 lam=   155.4 Ag  freq=  1393. Q= -0.115 lam=     9.2
  79 B2u freq=  1416. Q=  0.000 lam=     0.0 B2u freq=  1398. Q=  0.000 lam=     0.0
  80 B3g freq=  1419. Q=  0.000 lam=     0.0 B2u freq=  1406. Q=  0.000 lam=     0.0
  81 B2u freq=  1427. Q=  0.000 lam=     0.0 Ag  freq=  1410. Q=  0.540 lam=   205.5
  82 Ag  freq=  1434. Q= -0.271 lam=    52.5 B3g freq=  1414. Q= -0.000 lam=     0.0
  83 B2u freq=  1478. Q=  0.000 lam=     0.0 B1u freq=  1465. Q=  0.000 lam=     0.0
  84 B1u freq=  1478. Q= -0.000 lam=     0.0 B2u freq=  1468. Q= -0.000 lam=     0.0
  85 Ag  freq=  1493. Q=  0.094 lam=     6.7 Ag  freq=  1496. Q=  0.031 lam=     0.7
  86 B2u freq=  1542. Q= -0.000 lam=     0.0 B2u freq=  1522. Q= -0.000 lam=     0.0
  87 Ag  freq=  1557. Q= -0.183 lam=    26.1 B3g freq=  1527. Q= -0.000 lam=     0.0
  88 Ag  freq=  1577. Q= -0.124 lam=    12.2 Ag  freq=  1534. Q= -0.213 lam=    34.7
  89 B2u freq=  1579. Q=  0.000 lam=     0.0 B3g freq=  1553. Q=  0.000 lam=     0.0
  90 B3g freq=  1594. Q= -0.000 lam=     0.0 B2u freq=  1559. Q= -0.000 lam=     0.0
  91 B3g freq=  1633. Q=  0.000 lam=     0.0 Ag  freq=  1564. Q=  0.105 lam=     8.6
  92 B1u freq=  1642. Q= -0.000 lam=     0.0 B1u freq=  1601. Q= -0.000 lam=     0.0
  93 B3g freq=  1673. Q= -0.000 lam=     0.0 B1u freq=  1617. Q= -0.000 lam=     0.0
  94 B1u freq=  1674. Q= -0.000 lam=     0.0 B3g freq=  1634. Q= -0.000 lam=     0.0
  95 B1u freq=  3154. Q= -0.000 lam=     0.0 B1u freq=  3122. Q= -0.000 lam=     0.0
  96 B3g freq=  3155. Q=  0.000 lam=     0.0 B3g freq=  3123. Q=  0.000 lam=     0.0
  97 Ag  freq=  3156. Q= -0.002 lam=     0.0 Ag  freq=  3125. Q= -0.000 lam=     0.0
  98 B1u freq=  3156. Q=  0.000 lam=     0.0 B1u freq=  3125. Q=  0.000 lam=     0.0
  99 B2u freq=  3157. Q=  0.000 lam=     0.0 B2u freq=  3126. Q=  0.000 lam=     0.0
 100 B3g freq=  3158. Q=  0.000 lam=     0.0 B3g freq=  3128. Q=  0.000 lam=     0.0
 101 Ag  freq=  3159. Q= -0.006 lam=     0.1 Ag  freq=  3129. Q= -0.011 lam=     0.2
 102 B1u freq=  3160. Q= -0.000 lam=     0.0 B1u freq=  3131. Q= -0.000 lam=     0.0
 103 B2u freq=  3161. Q= -0.000 lam=     0.0 B2u freq=  3132. Q= -0.000 lam=     0.0
 104 Ag  freq=  3163. Q= -0.038 lam=     2.2 Ag  freq=  3136. Q= -0.035 lam=     1.9
 105 B3g freq=  3175. Q= -0.000 lam=     0.0 B3g freq=  3145. Q= -0.000 lam=     0.0
 106 B1u freq=  3175. Q=  0.000 lam=     0.0 B1u freq=  3145. Q=  0.000 lam=     0.0
 107 B2u freq=  3188. Q=  0.000 lam=     0.0 B2u freq=  3162. Q=  0.000 lam=     0.0
 108 Ag  freq=  3188. Q=  0.040 lam=     2.6 Ag  freq=  3162. Q=  0.044 lam=     3.1

 total reorg energy (cm**-1, kcal/mol)=      551.      548.      1.58      1.57
 Nber of molecules processed=           2
