 Enter ifcurve (0=recti, 1=orth curvi, 2=apprx curvi, -1 = skip
 And atom ordering flag, 0= never changes, 1= use the first order thenceforth,
  2= deduce it (does read on fail), 3= always read it
 Reading file: 
 ./Common_Moeties_15_C0S0.log                                                   
                                          
  Entering Gaussian System, Link 0=g16                                          
  
 Gaussian format, type: g94, g98, g03= F F F
  #P Geom=AllCheck Guess=TCheck SCRF=Check GenChk RB3LYP/6-311G(d,p) Fre    
 energy type= B3LYP   
 Original G94 input coords:
  6 -0.522332  0.798670  0.000000
  6  0.708130  1.457324  0.000000
  6  1.862020  0.684957  0.000000
  6  1.795507 -0.718015  0.000000
  6  0.573741 -1.371833  0.000000
  6 -0.603415 -0.612720  0.000000
  7 -1.889029 -1.132880  0.000000
  6 -2.761882 -0.187397  0.000000
 16 -2.142193  1.467346  0.000000
  1  0.765594  2.539021  0.000000
  1  2.828985  1.174678  0.000000
  1  2.713186 -1.294559  0.000000
  1  0.503767 -2.452649  0.000000
  1 -3.832079 -0.351944  0.000000
 nber atoms=          14
 Original standard coords:
  6  0.000000 -0.578178  0.000000
  6  1.202675 -1.286299  0.000000
  6  2.387004 -0.561469  0.000000
  6  2.377568  0.843047  0.000000
  6  1.183386  1.545982  0.000000
  6 -0.023651  0.835340  0.000000
  7 -1.287062  1.407323  0.000000
  6 -2.197622  0.498098  0.000000
 16 -1.645700 -1.180464  0.000000
  1  1.216127 -2.369438  0.000000
  1  3.333265 -1.090087  0.000000
  1  3.317922  1.381816  0.000000
  1  1.157398  2.628749  0.000000
  1 -3.260246  0.706006  0.000000
  SCF Done:  E(RB3LYP) =  -722.801366172     A.U. after    1 cycles             
  
          23          40 "  -722.801366172"
After scan for Atom:   Atom  AN      X      Y      Z        X      Y      Z        X      Y      Z   
After scan for Atom:   Atom  AN      X      Y      Z        X      Y      Z        X      Y      Z   
After scan for Atom:   Atom  AN      X      Y      Z        X      Y      Z        X      Y      Z   
After scan for Atom:   Atom  AN      X      Y      Z        X      Y      Z        X      Y      Z   
After scan for Atom:   Atom  AN      X      Y      Z        X      Y      Z        X      Y      Z   
After scan for Atom:   Atom  AN      X      Y      Z        X      Y      Z        X      Y      Z   
After scan for Atom:   Atom  AN      X      Y      Z        X      Y      Z        X      Y      Z   
After scan for Atom:   Atom  AN      X      Y      Z        X      Y      Z        X      Y      Z   
After scan for Atom:   Atom  AN      X      Y      Z        X      Y      Z        X      Y      Z   
After scan for Atom:   Atom  AN      X      Y      Z        X      Y      Z        X      Y      Z   
After scan for Atom:   Atom  AN      X      Y      Z        X      Y      Z        X      Y      Z   
After scan for Atom:   Atom  AN      X      Y      Z        X      Y      Z        X      Y      Z   
 g94    frequencies=
     0.0    0.0    0.0    0.0    0.0    0.0  194.9  211.6  356.6  430.6
   493.9  508.2  538.1  599.7  661.0  714.6  740.4  773.5  797.1  828.5
   873.4  881.0  958.2  995.8 1038.0 1073.0 1142.5 1182.5 1222.5 1292.6
  1321.6 1344.5 1459.3 1489.1 1530.8 1596.8 1637.5 3169.0 3180.9 3191.3
  3198.8 3203.5
 g94    symmetries=
                                                A"     A"     A'     A"
      A"     A'     A'     A"     A'     A'     A"     A"     A'     A"
      A"     A'     A"     A"     A'     A'     A'     A'     A'     A'
      A'     A'     A'     A'     A'     A'     A'     A'     A'     A'
      A'     A'
 atomic masses:
 12.0000 12.0000 12.0000 12.0000 12.0000 12.0000 14.0031 12.0000 31.9721  1.0078
  1.0078  1.0078  1.0078  1.0078
 looking for force constants in 
 ./Common_Moeties_15_C0S0.fchk                                                  
  
 Cartesian Force Constants                  R   N=         903                  
  
 n3=          42         903
 g94-fc frequencies=
    -2.9   -0.0    0.0    0.0    3.9    5.2  195.0  211.6  356.6  430.6
   493.9  508.3  538.1  599.7  661.0  714.7  740.4  773.5  797.1  828.5
   873.4  881.0  958.2  995.8 1038.0 1073.1 1142.5 1182.5 1222.6 1292.6
  1321.6 1344.6 1459.3 1489.1 1530.8 1596.9 1637.6 3169.1 3181.0 3191.4
  3198.8 3203.6
 at 99999: n3=          42
 symm operator            1 :  F  nop=           0
 symm operator            2 :  F  nop=           0
 symm operator            3 :  F  nop=           0
 symm operator            4 :  F  nop=           0
 symm operator            5 :  T  nop=           1
 symm operator            6 :  F  nop=           1
 symm operator            7 :  F  nop=           1
 The point group of the molecule is  CS
 enforcing symm op           5  jsymt=           1           1          -1
 cartesian coord symmetries:
 A' :   28 A" :   14
 Symmetry rotation matrix:
   1.00000   0.00000   0.00000
   0.00000   1.00000   0.00000
   0.00000   0.00000   1.00000

 Projecting out zero-frequency components
 generating redundant internal coords
         300        3600          14
 search for int coords
   1 str   2   1   1.396
   2 str   3   2   1.389
   3 str   4   3   1.405
   4 str   5   4   1.386
   5 str   6   1   1.414
   6 str   6   5   1.401
   7 str   7   6   1.387
   8 str   8   7   1.287
   9 str   9   1   1.752
  10 str   9   8   1.767
  11 str  10   2   1.083
  12 str  11   3   1.084
  13 str  12   4   1.084
  14 str  13   5   1.083
  15 str  14   8   1.083
 nber stretches=          15
  16 ben   1   2   3
  17 prop tor   1   2   3   4
  18 prop tor   1   2   3  11
  19 ben   1   2  10
  20 ben   1   6   5
  21 ben   1   6   7
  22 prop tor   1   6   7   8
  23 ben   1   9   8
  24 ben   2   1   6
  25 prop tor   2   1   6   5
  26 prop tor   2   1   6   7
  27 ben   2   1   9
  28 prop tor   2   1   9   8
  29 ben   2   3   4
  30 prop tor   2   3   4   5
  31 prop tor   2   3   4  12
  32 ben   2   3  11
  33 ben   3   2  10
  34 ben   3   4   5
  35 prop tor   3   4   5   6
  36 prop tor   3   4   5  13
  37 ben   3   4  12
  38 ben   4   3  11
  39 ben   4   5   6
  40 prop tor   4   5   6   1
  41 prop tor   4   5   6   7
  42 ben   4   5  13
  43 ben   5   4  12
  44 ben   5   6   7
  45 prop tor   5   6   7   8
  46 prop tor   6   1   2   3
  47 prop tor   6   1   2  10
  48 ben   6   1   9
  49 prop tor   6   1   9   8
  50 ben   6   5  13
  51 ben   6   7   8
  52 prop tor   6   7   8   9
  53 prop tor   6   7   8  14
  54 ben   7   8   9
  55 prop tor   7   8   9   1
  56 ben   7   8  14
  57 prop tor   9   1   2   3
  58 prop tor   9   1   2  10
  59 prop tor   9   1   6   5
  60 prop tor   9   1   6   7
  61 ben   9   8  14
  62 prop tor  10   2   3   4
  63 prop tor  10   2   3  11
  64 prop tor  11   3   4   5
  65 prop tor  11   3   4  12
  66 prop tor  12   4   5   6
  67 prop tor  12   4   5  13
  68 prop tor  13   5   6   1
  69 prop tor  13   5   6   7
  70 prop tor  14   8   9   1
 nber bend=              23
 nber lin bend=           0
 nber prop tor=          32
 nber impr tor=           0
 nber tot redund int=          70
 Eigenvalues of G in red int coords
    Gval -0.00000000 -0.00000000 -0.00000000 -0.00000000 -0.00000000 -0.00000000 -0.00000000 -0.00000000
    Gval -0.00000000 -0.00000000 -0.00000000 -0.00000000 -0.00000000 -0.00000000 -0.00000000 -0.00000000
    Gval -0.00000000  0.00000000  0.00000000  0.00000000  0.00000000  0.00000000  0.00000000  0.00000000
    Gval  0.00000000  0.00000000  0.00000000  0.00000000  0.00000000  0.00000000  0.00000000  0.00000000
    Gval  0.00000000  0.00000000  0.00001782  0.00002592  0.00003490  0.00004396  0.00005626  0.00007286
    Gval  0.00008182  0.00010744  0.00011315  0.00012155  0.00015230  0.00016300  0.00018864  0.00023359
    Gval  0.00031579  0.00036656  0.00039919  0.00044731  0.00059315  0.00059750  0.00060645  0.00061844
    Gval  0.00064131  0.00065503  0.00084480  0.00105438  0.00111081  0.00112266  0.00116337  0.00117166
    Gval  0.00150376  0.00163234  0.00180841  0.00270144  0.00357210  0.00402245
  1.782330497747653E-005  1.782330497747653E-005
  2.591723513624234E-005  1.782330497747653E-005
  3.490296006006251E-005  1.782330497747653E-005
  4.395858085823929E-005  1.782330497747653E-005
  5.625847457490076E-005  1.782330497747653E-005
  7.285582723304726E-005  1.782330497747653E-005
  8.182195253534296E-005  1.782330497747653E-005
  1.074446346798167E-004  1.782330497747653E-005
  1.131471213467846E-004  1.782330497747653E-005
  1.215488249784139E-004  1.782330497747653E-005
  1.522965099864126E-004  1.782330497747653E-005
  1.629990821307046E-004  1.782330497747653E-005
  1.886417476454461E-004  1.782330497747653E-005
  2.335893662564715E-004  1.782330497747653E-005
  3.157898030561013E-004  1.782330497747653E-005
  3.665622037466423E-004  1.782330497747653E-005
  3.991890753919890E-004  1.782330497747653E-005
  4.473100364355633E-004  1.782330497747653E-005
  5.931519491095799E-004  1.782330497747653E-005
  5.974955776226376E-004  1.782330497747653E-005
  6.064497107877317E-004  1.782330497747653E-005
  6.184381520269048E-004  1.782330497747653E-005
  6.413087652689935E-004  1.782330497747653E-005
  6.550306571694191E-004  1.782330497747653E-005
  8.448025414782219E-004  1.782330497747653E-005
  1.054379950429432E-003  1.782330497747653E-005
  1.110808671854811E-003  1.782330497747653E-005
  1.122657868609791E-003  1.782330497747653E-005
  1.163367274036576E-003  1.782330497747653E-005
  1.171661684142993E-003  1.782330497747653E-005
  1.503755353607589E-003  1.782330497747653E-005
  1.632336232030451E-003  1.782330497747653E-005
  1.808408699574225E-003  1.782330497747653E-005
  2.701442200228361E-003  1.782330497747653E-005
  3.572099187857406E-003  1.782330497747653E-005
  4.022454519373763E-003  1.782330497747653E-005
 cut=1d-8, nber non-redundant internal coords=          36
 Check on Eigenvals of non-red overlap matrix:
  0.00001782  0.00002592  0.00003490  0.00004396  0.00005626  0.00007286  0.00008182  0.00010744
  0.00011315  0.00012155  0.00015230  0.00016300  0.00018864  0.00023359  0.00031579  0.00036656
  0.00039919  0.00044731  0.00059315  0.00059750  0.00060645  0.00061844  0.00064131  0.00065503
  0.00084480  0.00105438  0.00111081  0.00112266  0.00116337  0.00117166  0.00150376  0.00163234
  0.00180841  0.00270144  0.00357210  0.00402245
 Checking for correct frequencies
 recalc frequencies=
    -0.0   -0.0   -0.0   -0.0   -0.0   -0.0  195.0  211.6  356.6  430.6
   493.9  508.3  538.1  599.7  661.0  714.7  740.4  773.5  797.1  828.5
   873.4  881.0  958.2  995.8 1038.0 1073.1 1142.5 1182.5 1222.6 1292.6
  1321.6 1344.6 1459.3 1489.1 1530.8 1596.9 1637.6 3169.1 3181.0 3191.4
  3198.8 3203.6
 recalc symmetries=
     A'     A'     A"     A'     A"     A"     A"     A"     A'     A" 
     A"     A'     A'     A"     A'     A'     A"     A"     A'     A" 
     A"     A'     A"     A"     A'     A'     A'     A'     A'     A' 
     A'     A'     A'     A'     A'     A'     A'     A'     A'     A' 
     A'     A' 
 recalc freqs check OK
 Zero-point lengths:
 10.0000 10.0000 10.0000 10.0000 10.0000 10.0000 17.7553 17.0430 13.1281 11.9466
 11.1551 10.9964 10.6873 10.1233  9.6427  9.2736  9.1108  8.9139  8.7808  8.6127
  8.3885  8.3524  8.0089  7.8562  7.6949  7.5680  7.3344  7.2093  7.0902  6.8953
  6.8194  6.7609  6.4897  6.4244  6.3362  6.2039  6.1263  4.4038  4.3956  4.3884
  4.3833  4.3800
 highest evec of mol 1
 -0.0050  0.0008  0.0000
  0.0006 -0.0110  0.0000
  0.0050 -0.0035  0.0000
  0.0068  0.0046  0.0000
  0.0011  0.0150  0.0000
 -0.0079  0.0011  0.0000
 -0.0065 -0.0087  0.0000
  0.2890 -0.0468  0.0000
 -0.0001  0.0009  0.0000
 -0.0004  0.0339  0.0000
 -0.0167  0.0092  0.0000
 -0.0219 -0.0125  0.0000
  0.0008 -0.0480  0.0000
 -0.9360  0.1821  0.0000
 generating redundant internal coords
         300        3600          14
 Adding extra bonds for z output only
           6           6           6           6           6           6
           7           6          16           1           1           1
           1           1
 search for int coords
   1 str   2   1   1.396
   2 str   3   2   1.389
   3 str   4   3   1.405
   4 str   5   4   1.386
   5 str   6   1   1.414
   6 str   6   5   1.401
   7 str   7   6   1.387
   8 str   8   7   1.287
   9 str   9   1   1.752
  10 str   9   8   1.767
  11 str  10   2   1.083
  12 str  11   3   1.084
  13 str  12   4   1.084
  14 str  13   5   1.083
  15 str  14   8   1.083
 nber stretches=          15
  16 ben   1   2   3
  17 prop tor   1   2   3   4
  18 prop tor   1   2   3  11
  19 ben   1   2  10
  20 ben   1   6   5
  21 ben   1   6   7
  22 prop tor   1   6   7   8
  23 ben   1   9   8
  24 ben   2   1   6
  25 prop tor   2   1   6   5
  26 prop tor   2   1   6   7
  27 ben   2   1   9
  28 prop tor   2   1   9   8
  29 ben   2   3   4
  30 prop tor   2   3   4   5
  31 prop tor   2   3   4  12
  32 ben   2   3  11
  33 ben   3   2  10
  34 ben   3   4   5
  35 prop tor   3   4   5   6
  36 prop tor   3   4   5  13
  37 ben   3   4  12
  38 ben   4   3  11
  39 ben   4   5   6
  40 prop tor   4   5   6   1
  41 prop tor   4   5   6   7
  42 ben   4   5  13
  43 ben   5   4  12
  44 ben   5   6   7
  45 prop tor   5   6   7   8
  46 prop tor   6   1   2   3
  47 prop tor   6   1   2  10
  48 ben   6   1   9
  49 prop tor   6   1   9   8
  50 ben   6   5  13
  51 ben   6   7   8
  52 prop tor   6   7   8   9
  53 prop tor   6   7   8  14
  54 ben   7   8   9
  55 prop tor   7   8   9   1
  56 ben   7   8  14
  57 prop tor   9   1   2   3
  58 prop tor   9   1   2  10
  59 prop tor   9   1   6   5
  60 prop tor   9   1   6   7
  61 ben   9   8  14
  62 prop tor  10   2   3   4
  63 prop tor  10   2   3  11
  64 prop tor  11   3   4   5
  65 prop tor  11   3   4  12
  66 prop tor  12   4   5   6
  67 prop tor  12   4   5  13
  68 prop tor  13   5   6   1
  69 prop tor  13   5   6   7
  70 prop tor  14   8   9   1
 nber bend=              23
 nber lin bend=           0
 nber prop tor=          32
 nber impr tor=           0
 nber tot redund int=          70
 Reading file: 
 ./Common_Moeties_15_C1S0.log                                                   
                                          
  Entering Gaussian System, Link 0=g16                                          
  
 Gaussian format, type: g94, g98, g03= F F F
  #P Geom=AllCheck Guess=TCheck SCRF=Check GenChk UB3LYP/6-311G(d,p) Fre    
 energy type= B3LYP   
 Original G94 input coords:
  6 -0.539068  0.812390  0.000000
  6  0.676403  1.459025  0.000000
  6  1.871185  0.659560  0.000000
  6  1.819573 -0.725006  0.000000
  6  0.583041 -1.379986  0.000000
  6 -0.615210 -0.604444  0.000000
  7 -1.859391 -1.124387  0.000000
  6 -2.760937 -0.155567  0.000000
 16 -2.172665  1.461973  0.000000
  1  0.757267  2.539572  0.000000
  1  2.827806  1.168235  0.000000
  1  2.735384 -1.301742  0.000000
  1  0.503445 -2.460893  0.000000
  1 -3.826833 -0.348728  0.000000
 nber atoms=          14
 Original standard coords:
  6  0.000000 -0.590895  0.000000
  6  1.202144 -1.261982  0.000000
  6  2.412851 -0.486846  0.000000
  6  2.389255  0.898480  0.000000
  6  1.166224  1.578337  0.000000
  6 -0.047469  0.827190  0.000000
  7 -1.280879  1.372191  0.000000
  6 -2.201836  0.421804  0.000000
 16 -1.646402 -1.207303  0.000000
  1  1.261135 -2.343944  0.000000
  1  3.358988 -1.014766  0.000000
  1  3.316543  1.456574  0.000000
  1  1.108506  2.660632  0.000000
  1 -3.263607  0.636485  0.000000
  SCF Done:  E(UB3LYP) =  -722.487946624     A.U. after    1 cycles             
  
          23          40 "  -722.487946624"
After scan for Atom:   Atom  AN      X      Y      Z        X      Y      Z        X      Y      Z   
After scan for Atom:   Atom  AN      X      Y      Z        X      Y      Z        X      Y      Z   
After scan for Atom:   Atom  AN      X      Y      Z        X      Y      Z        X      Y      Z   
After scan for Atom:   Atom  AN      X      Y      Z        X      Y      Z        X      Y      Z   
After scan for Atom:   Atom  AN      X      Y      Z        X      Y      Z        X      Y      Z   
After scan for Atom:   Atom  AN      X      Y      Z        X      Y      Z        X      Y      Z   
After scan for Atom:   Atom  AN      X      Y      Z        X      Y      Z        X      Y      Z   
After scan for Atom:   Atom  AN      X      Y      Z        X      Y      Z        X      Y      Z   
After scan for Atom:   Atom  AN      X      Y      Z        X      Y      Z        X      Y      Z   
After scan for Atom:   Atom  AN      X      Y      Z        X      Y      Z        X      Y      Z   
After scan for Atom:   Atom  AN      X      Y      Z        X      Y      Z        X      Y      Z   
After scan for Atom:   Atom  AN      X      Y      Z        X      Y      Z        X      Y      Z   
 g94    frequencies=
     0.0    0.0    0.0    0.0    0.0    0.0  184.7  195.2  327.5  360.9
   430.1  452.6  497.7  501.7  650.0  688.0  712.2  784.5  813.2  855.3
   867.3  891.5  980.5 1015.6 1017.5 1041.6 1074.2 1161.4 1222.9 1260.4
  1299.3 1371.3 1405.0 1437.3 1456.8 1519.2 1575.5 3196.4 3203.5 3206.7
  3216.9 3218.5
 g94    symmetries=
                                                A"     A"     A'     A"
      A'     A"     A"     A'     A'     A"     A'     A"     A'     A"
      A'     A"     A"     A"     A'     A'     A'     A'     A'     A'
      A'     A'     A'     A'     A'     A'     A'     A'     A'     A'
      A'     A'
 atomic masses:
 12.0000 12.0000 12.0000 12.0000 12.0000 12.0000 14.0031 12.0000 31.9721  1.0078
  1.0078  1.0078  1.0078  1.0078
 looking for force constants in 
 ./Common_Moeties_15_C1S0.fchk                                                  
  
 Cartesian Force Constants                  R   N=         903                  
  
 n3=          42         903
 g94-fc frequencies=
    -7.5   -5.6   -4.1   -0.0   -0.0    0.0  184.7  195.2  327.5  360.9
   430.1  452.6  497.7  501.8  650.0  688.0  712.3  784.5  813.3  855.4
   867.3  891.6  980.5 1015.7 1017.5 1041.6 1074.3 1161.4 1223.0 1260.5
  1299.3 1371.3 1405.0 1437.4 1456.8 1519.2 1575.5 3196.5 3203.5 3206.7
  3217.0 3218.6
 at 99999: n3=          42
 symm operator            1 :  F  nop=           0
 symm operator            2 :  F  nop=           0
 symm operator            3 :  F  nop=           0
 symm operator            4 :  F  nop=           0
 symm operator            5 :  T  nop=           1
 symm operator            6 :  F  nop=           1
 symm operator            7 :  F  nop=           1
 The point group of the molecule is  CS
 enforcing symm op           5  jsymt=           1           1          -1
 cartesian coord symmetries:
 A' :   28 A" :   14
 Symmetry rotation matrix:
   1.00000   0.00000   0.00000
   0.00000   1.00000   0.00000
   0.00000   0.00000   1.00000

 Projecting out zero-frequency components
 generating redundant internal coords
         300        3600          14
 search for int coords
   1 str   2   1   1.377
   2 str   3   2   1.438
   3 str   4   3   1.386
   4 str   5   4   1.399
   5 str   6   1   1.419
   6 str   6   5   1.427
   7 str   7   6   1.348
   8 str   8   7   1.323
   9 str   9   1   1.758
  10 str   9   8   1.721
  11 str  10   2   1.084
  12 str  11   3   1.083
  13 str  12   4   1.082
  14 str  13   5   1.084
  15 str  14   8   1.083
 nber stretches=          15
  16 ben   1   2   3
  17 prop tor   1   2   3   4
  18 prop tor   1   2   3  11
  19 ben   1   2  10
  20 ben   1   6   5
  21 ben   1   6   7
  22 prop tor   1   6   7   8
  23 ben   1   9   8
  24 ben   2   1   6
  25 prop tor   2   1   6   5
  26 prop tor   2   1   6   7
  27 ben   2   1   9
  28 prop tor   2   1   9   8
  29 ben   2   3   4
  30 prop tor   2   3   4   5
  31 prop tor   2   3   4  12
  32 ben   2   3  11
  33 ben   3   2  10
  34 ben   3   4   5
  35 prop tor   3   4   5   6
  36 prop tor   3   4   5  13
  37 ben   3   4  12
  38 ben   4   3  11
  39 ben   4   5   6
  40 prop tor   4   5   6   1
  41 prop tor   4   5   6   7
  42 ben   4   5  13
  43 ben   5   4  12
  44 ben   5   6   7
  45 prop tor   5   6   7   8
  46 prop tor   6   1   2   3
  47 prop tor   6   1   2  10
  48 ben   6   1   9
  49 prop tor   6   1   9   8
  50 ben   6   5  13
  51 ben   6   7   8
  52 prop tor   6   7   8   9
  53 prop tor   6   7   8  14
  54 ben   7   8   9
  55 prop tor   7   8   9   1
  56 ben   7   8  14
  57 prop tor   9   1   2   3
  58 prop tor   9   1   2  10
  59 prop tor   9   1   6   5
  60 prop tor   9   1   6   7
  61 ben   9   8  14
  62 prop tor  10   2   3   4
  63 prop tor  10   2   3  11
  64 prop tor  11   3   4   5
  65 prop tor  11   3   4  12
  66 prop tor  12   4   5   6
  67 prop tor  12   4   5  13
  68 prop tor  13   5   6   1
  69 prop tor  13   5   6   7
  70 prop tor  14   8   9   1
 nber bend=              23
 nber lin bend=           0
 nber prop tor=          32
 nber impr tor=           0
 nber tot redund int=          70
 Eigenvalues of G in red int coords
    Gval -0.00000000 -0.00000000 -0.00000000 -0.00000000 -0.00000000 -0.00000000 -0.00000000 -0.00000000
    Gval -0.00000000 -0.00000000 -0.00000000 -0.00000000 -0.00000000 -0.00000000 -0.00000000 -0.00000000
    Gval -0.00000000 -0.00000000  0.00000000  0.00000000  0.00000000  0.00000000  0.00000000  0.00000000
    Gval  0.00000000  0.00000000  0.00000000  0.00000000  0.00000000  0.00000000  0.00000000  0.00000000
    Gval  0.00000000  0.00000000  0.00001786  0.00002590  0.00003519  0.00004408  0.00005625  0.00007300
    Gval  0.00008152  0.00010779  0.00011449  0.00012045  0.00015158  0.00016034  0.00018735  0.00023441
    Gval  0.00031385  0.00036574  0.00039879  0.00044062  0.00059317  0.00059743  0.00060636  0.00061773
    Gval  0.00064037  0.00065313  0.00084284  0.00105462  0.00110706  0.00112298  0.00115728  0.00117309
    Gval  0.00149400  0.00163231  0.00181116  0.00271628  0.00354917  0.00402806
  1.786371948661035E-005  1.786371948661035E-005
  2.589609849444733E-005  1.786371948661035E-005
  3.518594483805329E-005  1.786371948661035E-005
  4.408496955765246E-005  1.786371948661035E-005
  5.624550611425393E-005  1.786371948661035E-005
  7.300157673311500E-005  1.786371948661035E-005
  8.151958860057701E-005  1.786371948661035E-005
  1.077941712450435E-004  1.786371948661035E-005
  1.144864191761283E-004  1.786371948661035E-005
  1.204524400392292E-004  1.786371948661035E-005
  1.515774028161321E-004  1.786371948661035E-005
  1.603433796035173E-004  1.786371948661035E-005
  1.873511926560868E-004  1.786371948661035E-005
  2.344103590935009E-004  1.786371948661035E-005
  3.138521814367815E-004  1.786371948661035E-005
  3.657400737285225E-004  1.786371948661035E-005
  3.987913611463604E-004  1.786371948661035E-005
  4.406164474779652E-004  1.786371948661035E-005
  5.931696255386663E-004  1.786371948661035E-005
  5.974261342736838E-004  1.786371948661035E-005
  6.063607775246655E-004  1.786371948661035E-005
  6.177265290744733E-004  1.786371948661035E-005
  6.403739361751979E-004  1.786371948661035E-005
  6.531268927557799E-004  1.786371948661035E-005
  8.428389589374414E-004  1.786371948661035E-005
  1.054622401258066E-003  1.786371948661035E-005
  1.107063574460149E-003  1.786371948661035E-005
  1.122984293563150E-003  1.786371948661035E-005
  1.157275678764859E-003  1.786371948661035E-005
  1.173089720162830E-003  1.786371948661035E-005
  1.493999391641081E-003  1.786371948661035E-005
  1.632311592744150E-003  1.786371948661035E-005
  1.811161130381332E-003  1.786371948661035E-005
  2.716279416159764E-003  1.786371948661035E-005
  3.549166568380885E-003  1.786371948661035E-005
  4.028058601031671E-003  1.786371948661035E-005
 cut=1d-8, nber non-redundant internal coords=          36
 Check on Eigenvals of non-red overlap matrix:
  0.00001786  0.00002590  0.00003519  0.00004408  0.00005625  0.00007300  0.00008152  0.00010779
  0.00011449  0.00012045  0.00015158  0.00016034  0.00018735  0.00023441  0.00031385  0.00036574
  0.00039879  0.00044062  0.00059317  0.00059743  0.00060636  0.00061773  0.00064037  0.00065313
  0.00084284  0.00105462  0.00110706  0.00112298  0.00115728  0.00117309  0.00149400  0.00163231
  0.00181116  0.00271628  0.00354917  0.00402806
 Checking for correct frequencies
 recalc frequencies=
    -0.0   -0.0   -0.0   -0.0   -0.0    0.0  184.7  195.2  327.5  360.9
   430.1  452.6  497.7  501.8  650.0  688.0  712.3  784.5  813.3  855.4
   867.3  891.6  980.5 1015.7 1017.5 1041.6 1074.3 1161.4 1223.0 1260.5
  1299.3 1371.3 1405.0 1437.4 1456.8 1519.2 1575.5 3196.5 3203.5 3206.7
  3217.0 3218.6
 recalc symmetries=
     A'     A'     A"     A"     A"     A'     A"     A"     A'     A" 
     A'     A"     A"     A'     A'     A"     A'     A"     A'     A" 
     A'     A"     A"     A"     A'     A'     A'     A'     A'     A' 
     A'     A'     A'     A'     A'     A'     A'     A'     A'     A' 
     A'     A' 
 recalc freqs check OK
 Zero-point lengths:
 10.0000 10.0000 10.0000 10.0000 10.0000 10.0000 18.2434 17.7448 13.6998 13.0503
 11.9537 11.6524 11.1128 11.0675  9.7239  9.4514  9.2891  8.8510  8.6932  8.4766
  8.4179  8.3027  7.9172  7.7789  7.7720  7.6815  7.5638  7.2744  7.0890  6.9828
  6.8777  6.6946  6.6138  6.5390  6.4953  6.3604  6.2458  4.3849  4.3801  4.3779
  4.3709  4.3698
 highest evec of mol 2
 -0.0060  0.0030  0.0000
  0.0027 -0.0090  0.0000
  0.0007 -0.0007  0.0000
  0.0003 -0.0011  0.0000
 -0.0015  0.0041  0.0000
 -0.0050 -0.0001  0.0000
 -0.0074 -0.0063  0.0000
  0.2905 -0.0525  0.0000
 -0.0009  0.0022  0.0000
 -0.0013  0.0256  0.0000
 -0.0045  0.0022  0.0000
  0.0013  0.0008  0.0000
  0.0006 -0.0124  0.0000
 -0.9359  0.1891  0.0000
 Enter nber and list of atoms to keep of mol #2
 keep list:          14           1           2           3           4
           5           6           7           8           9          10
          11          12          13          14
 reordering atoms
           1 -2.090048604268754E-002
           2   1.03233227194336     
           3   2.36796538515751     
           4   2.60725198384692     
           5   1.53517200677838     
           6  0.201151778170410     
           7 -0.906668212282664     
           8  -1.99100076991733     
           9  -1.75426638299834     
          10  0.885273117719410     
          11   3.19695105407207     
          12   3.62347948758145     
          13   1.68354419462408     
          14  -2.99287058212481     
           1           1
           2           2
           3           3
           4           4
           5           5
           6           6
           7           7
           8           8
           9           9
          10          10
          11          11
          12          12
          13          13
          14          14
 initial cartes coords mol 1
   6   0.00000  -0.56606   0.00092
   6   0.00000  -1.45151   1.07974
   6   0.00000  -0.91838   2.36184
   6   0.00000   0.47072   2.56954
   6   0.00000   1.34974   1.49831
   6   0.00000   0.83413   0.19597
   7   0.00000   1.59446  -0.96389
   6   0.00000   0.83685  -2.00401
  16   0.00000  -0.90683  -1.71807
   1   0.00000  -2.52372   0.92567
   1   0.00000  -1.58686   3.21506
   1   0.00000   0.85773   3.58185
   1   0.00000   2.42352   1.63994
   1   0.00000   1.20645  -3.02174
 initial cartes coords mol 2
   6   0.00000  -0.57620  -0.02090
   6   0.00000  -1.46288   1.03233
   6   0.00000  -0.93116   2.36797
   6   0.00000   0.43355   2.60725
   6   0.00000   1.33280   1.53517
   6   0.00000   0.82520   0.20115
   7   0.00000   1.59400  -0.90667
   6   0.00000   0.83531  -1.99100
  16   0.00000  -0.86952  -1.75427
   1   0.00000  -2.53642   0.88527
   1   0.00000  -1.62876   3.19695
   1   0.00000   0.80586   3.62348
   1   0.00000   2.40643   1.68354
   1   0.00000   1.24726  -2.99287
 loop 1 0
 mod cartes coords mol 2
   6   0.00000  -0.57620  -0.02090
   6   0.00000  -1.46288   1.03233
   6   0.00000  -0.93116   2.36797
   6   0.00000   0.43355   2.60725
   6   0.00000   1.33280   1.53517
   6   0.00000   0.82520   0.20115
   7   0.00000   1.59400  -0.90667
   6   0.00000   0.83531  -1.99100
  16   0.00000  -0.86952  -1.75427
   1   0.00000  -2.53642   0.88527
   1   0.00000  -1.62876   3.19695
   1   0.00000   0.80586   3.62348
   1   0.00000   2.40643   1.68354
   1   0.00000   1.24726  -2.99287
 read in order, maxerr=  0.07 for atom  12
 final axis swaps:           1           1           1
 final xyz swap pattern=           1
 reorder list:
   1   2   3   4   5   6   7   8   9  10  11  12  13  14
 axis signs=           1           1           1
  6     0.000000 -0.576197 -0.020900     0.000000 -0.566063  0.000924
  6     0.000000 -1.462881  1.032332     0.000000 -1.451511  1.079741
  6     0.000000 -0.931156  2.367965     0.000000 -0.918382  2.361843
  6     0.000000  0.433552  2.607252     0.000000  0.470725  2.569539
  6     0.000000  1.332804  1.535172     0.000000  1.349737  1.498312
  6     0.000000  0.825199  0.201152     0.000000  0.834134  0.195966
  7     0.000000  1.594004 -0.906668     0.000000  1.594463 -0.963892
  6     0.000000  0.835308 -1.991001     0.000000  0.836852 -2.004005
 16     0.000000 -0.869524 -1.754266     0.000000 -0.906831 -1.718074
  1     0.000000 -2.536424  0.885273     0.000000 -2.523720  0.925670
  1     0.000000 -1.628764  3.196951     0.000000 -1.586862  3.215061
  1     0.000000  0.805860  3.623479     0.000000  0.857725  3.581847
  1     0.000000  2.406433  1.683544     0.000000  2.423516  1.639939
  1     0.000000  1.247258 -2.992871     0.000000  1.206454 -3.021743
 generating redundant internal coords
         300        3600          14
 Adding extra bonds for z output only
           6           6           6           6           6           6
           7           6          16           1           1           1
           1           1
 search for int coords
   1 str   2   1   1.377
   2 str   3   2   1.438
   3 str   4   3   1.386
   4 str   5   4   1.399
   5 str   6   1   1.419
   6 str   6   5   1.427
   7 str   7   6   1.348
   8 str   8   7   1.323
   9 str   9   1   1.758
  10 str   9   8   1.721
  11 str  10   2   1.084
  12 str  11   3   1.083
  13 str  12   4   1.082
  14 str  13   5   1.084
  15 str  14   8   1.083
 nber stretches=          15
  16 ben   1   2   3
  17 prop tor   1   2   3   4
  18 prop tor   1   2   3  11
  19 ben   1   2  10
  20 ben   1   6   5
  21 ben   1   6   7
  22 prop tor   1   6   7   8
  23 ben   1   9   8
  24 ben   2   1   6
  25 prop tor   2   1   6   5
  26 prop tor   2   1   6   7
  27 ben   2   1   9
  28 prop tor   2   1   9   8
  29 ben   2   3   4
  30 prop tor   2   3   4   5
  31 prop tor   2   3   4  12
  32 ben   2   3  11
  33 ben   3   2  10
  34 ben   3   4   5
  35 prop tor   3   4   5   6
  36 prop tor   3   4   5  13
  37 ben   3   4  12
  38 ben   4   3  11
  39 ben   4   5   6
  40 prop tor   4   5   6   1
  41 prop tor   4   5   6   7
  42 ben   4   5  13
  43 ben   5   4  12
  44 ben   5   6   7
  45 prop tor   5   6   7   8
  46 prop tor   6   1   2   3
  47 prop tor   6   1   2  10
  48 ben   6   1   9
  49 prop tor   6   1   9   8
  50 ben   6   5  13
  51 ben   6   7   8
  52 prop tor   6   7   8   9
  53 prop tor   6   7   8  14
  54 ben   7   8   9
  55 prop tor   7   8   9   1
  56 ben   7   8  14
  57 prop tor   9   1   2   3
  58 prop tor   9   1   2  10
  59 prop tor   9   1   6   5
  60 prop tor   9   1   6   7
  61 ben   9   8  14
  62 prop tor  10   2   3   4
  63 prop tor  10   2   3  11
  64 prop tor  11   3   4   5
  65 prop tor  11   3   4  12
  66 prop tor  12   4   5   6
  67 prop tor  12   4   5  13
  68 prop tor  13   5   6   1
  69 prop tor  13   5   6   7
  70 prop tor  14   8   9   1
 nber bend=              23
 nber lin bend=           0
 nber prop tor=          32
 nber impr tor=           0
 nber tot redund int=          70
 generating redundant internal coords
         300        3600          14
 search for int coords
   1 str   2   1   1.396
   2 str   3   2   1.389
   3 str   4   3   1.405
   4 str   5   4   1.386
   5 str   6   1   1.414
   6 str   6   5   1.401
   7 str   7   6   1.387
   8 str   8   7   1.287
   9 str   9   1   1.752
  10 str   9   8   1.767
  11 str  10   2   1.083
  12 str  11   3   1.084
  13 str  12   4   1.084
  14 str  13   5   1.083
  15 str  14   8   1.083
 nber stretches=          15
  16 ben   1   2   3
  17 prop tor   1   2   3   4
  18 prop tor   1   2   3  11
  19 ben   1   2  10
  20 ben   1   6   5
  21 ben   1   6   7
  22 prop tor   1   6   7   8
  23 ben   1   9   8
  24 ben   2   1   6
  25 prop tor   2   1   6   5
  26 prop tor   2   1   6   7
  27 ben   2   1   9
  28 prop tor   2   1   9   8
  29 ben   2   3   4
  30 prop tor   2   3   4   5
  31 prop tor   2   3   4  12
  32 ben   2   3  11
  33 ben   3   2  10
  34 ben   3   4   5
  35 prop tor   3   4   5   6
  36 prop tor   3   4   5  13
  37 ben   3   4  12
  38 ben   4   3  11
  39 ben   4   5   6
  40 prop tor   4   5   6   1
  41 prop tor   4   5   6   7
  42 ben   4   5  13
  43 ben   5   4  12
  44 ben   5   6   7
  45 prop tor   5   6   7   8
  46 prop tor   6   1   2   3
  47 prop tor   6   1   2  10
  48 ben   6   1   9
  49 prop tor   6   1   9   8
  50 ben   6   5  13
  51 ben   6   7   8
  52 prop tor   6   7   8   9
  53 prop tor   6   7   8  14
  54 ben   7   8   9
  55 prop tor   7   8   9   1
  56 ben   7   8  14
  57 prop tor   9   1   2   3
  58 prop tor   9   1   2  10
  59 prop tor   9   1   6   5
  60 prop tor   9   1   6   7
  61 ben   9   8  14
  62 prop tor  10   2   3   4
  63 prop tor  10   2   3  11
  64 prop tor  11   3   4   5
  65 prop tor  11   3   4  12
  66 prop tor  12   4   5   6
  67 prop tor  12   4   5  13
  68 prop tor  13   5   6   1
  69 prop tor  13   5   6   7
  70 prop tor  14   8   9   1
 nber bend=              23
 nber lin bend=           0
 nber prop tor=          32
 nber impr tor=           0
 nber tot redund int=          70
 Eigenvalues of G in red int coords
    Gval -0.00000000 -0.00000000 -0.00000000 -0.00000000 -0.00000000 -0.00000000 -0.00000000 -0.00000000
    Gval -0.00000000 -0.00000000 -0.00000000 -0.00000000 -0.00000000 -0.00000000  0.00000000  0.00000000
    Gval  0.00000000  0.00000000  0.00000000  0.00000000  0.00000000  0.00000000  0.00000000  0.00000000
    Gval  0.00000000  0.00000000  0.00000000  0.00000000  0.00000000  0.00000000  0.00000000  0.00000000
    Gval  0.00000000  0.00000000  0.00001782  0.00002592  0.00003490  0.00004396  0.00005626  0.00007286
    Gval  0.00008182  0.00010744  0.00011315  0.00012155  0.00015230  0.00016300  0.00018864  0.00023359
    Gval  0.00031579  0.00036656  0.00039919  0.00044731  0.00059315  0.00059750  0.00060645  0.00061844
    Gval  0.00064131  0.00065503  0.00084480  0.00105438  0.00111081  0.00112266  0.00116337  0.00117166
    Gval  0.00150376  0.00163234  0.00180841  0.00270144  0.00357210  0.00402245
  1.782330497747637E-005  1.782330497747637E-005
  2.591723513624242E-005  1.782330497747637E-005
  3.490296006006247E-005  1.782330497747637E-005
  4.395858085823930E-005  1.782330497747637E-005
  5.625847457490076E-005  1.782330497747637E-005
  7.285582723304731E-005  1.782330497747637E-005
  8.182195253534299E-005  1.782330497747637E-005
  1.074446346798168E-004  1.782330497747637E-005
  1.131471213467851E-004  1.782330497747637E-005
  1.215488249784140E-004  1.782330497747637E-005
  1.522965099864124E-004  1.782330497747637E-005
  1.629990821307047E-004  1.782330497747637E-005
  1.886417476454460E-004  1.782330497747637E-005
  2.335893662564720E-004  1.782330497747637E-005
  3.157898030561010E-004  1.782330497747637E-005
  3.665622037466420E-004  1.782330497747637E-005
  3.991890753919892E-004  1.782330497747637E-005
  4.473100364355628E-004  1.782330497747637E-005
  5.931519491095794E-004  1.782330497747637E-005
  5.974955776226374E-004  1.782330497747637E-005
  6.064497107877304E-004  1.782330497747637E-005
  6.184381520269046E-004  1.782330497747637E-005
  6.413087652689936E-004  1.782330497747637E-005
  6.550306571694185E-004  1.782330497747637E-005
  8.448025414782241E-004  1.782330497747637E-005
  1.054379950429432E-003  1.782330497747637E-005
  1.110808671854812E-003  1.782330497747637E-005
  1.122657868609789E-003  1.782330497747637E-005
  1.163367274036575E-003  1.782330497747637E-005
  1.171661684142991E-003  1.782330497747637E-005
  1.503755353607591E-003  1.782330497747637E-005
  1.632336232030454E-003  1.782330497747637E-005
  1.808408699574228E-003  1.782330497747637E-005
  2.701442200228347E-003  1.782330497747637E-005
  3.572099187857405E-003  1.782330497747637E-005
  4.022454519373760E-003  1.782330497747637E-005
 cut=1d-8, nber non-redundant internal coords=          36
 Check on Eigenvals of non-red overlap matrix:
  0.00001782  0.00002592  0.00003490  0.00004396  0.00005626  0.00007286  0.00008182  0.00010744
  0.00011315  0.00012155  0.00015230  0.00016300  0.00018864  0.00023359  0.00031579  0.00036656
  0.00039919  0.00044731  0.00059315  0.00059750  0.00060645  0.00061844  0.00064131  0.00065503
  0.00084480  0.00105438  0.00111081  0.00112266  0.00116337  0.00117166  0.00150376  0.00163234
  0.00180841  0.00270144  0.00357210  0.00402245
 generating redundant internal coords
         300        3600          14
 search for int coords
   1 str   2   1   1.377
   2 str   3   2   1.438
   3 str   4   3   1.386
   4 str   5   4   1.399
   5 str   6   1   1.419
   6 str   6   5   1.427
   7 str   7   6   1.348
   8 str   8   7   1.323
   9 str   9   1   1.758
  10 str   9   8   1.721
  11 str  10   2   1.084
  12 str  11   3   1.083
  13 str  12   4   1.082
  14 str  13   5   1.084
  15 str  14   8   1.083
 nber stretches=          15
  16 ben   1   2   3
  17 prop tor   1   2   3   4
  18 prop tor   1   2   3  11
  19 ben   1   2  10
  20 ben   1   6   5
  21 ben   1   6   7
  22 prop tor   1   6   7   8
  23 ben   1   9   8
  24 ben   2   1   6
  25 prop tor   2   1   6   5
  26 prop tor   2   1   6   7
  27 ben   2   1   9
  28 prop tor   2   1   9   8
  29 ben   2   3   4
  30 prop tor   2   3   4   5
  31 prop tor   2   3   4  12
  32 ben   2   3  11
  33 ben   3   2  10
  34 ben   3   4   5
  35 prop tor   3   4   5   6
  36 prop tor   3   4   5  13
  37 ben   3   4  12
  38 ben   4   3  11
  39 ben   4   5   6
  40 prop tor   4   5   6   1
  41 prop tor   4   5   6   7
  42 ben   4   5  13
  43 ben   5   4  12
  44 ben   5   6   7
  45 prop tor   5   6   7   8
  46 prop tor   6   1   2   3
  47 prop tor   6   1   2  10
  48 ben   6   1   9
  49 prop tor   6   1   9   8
  50 ben   6   5  13
  51 ben   6   7   8
  52 prop tor   6   7   8   9
  53 prop tor   6   7   8  14
  54 ben   7   8   9
  55 prop tor   7   8   9   1
  56 ben   7   8  14
  57 prop tor   9   1   2   3
  58 prop tor   9   1   2  10
  59 prop tor   9   1   6   5
  60 prop tor   9   1   6   7
  61 ben   9   8  14
  62 prop tor  10   2   3   4
  63 prop tor  10   2   3  11
  64 prop tor  11   3   4   5
  65 prop tor  11   3   4  12
  66 prop tor  12   4   5   6
  67 prop tor  12   4   5  13
  68 prop tor  13   5   6   1
  69 prop tor  13   5   6   7
  70 prop tor  14   8   9   1
 nber bend=              23
 nber lin bend=           0
 nber prop tor=          32
 nber impr tor=           0
 nber tot redund int=          70
 Eigenvalues of G in red int coords
    Gval -0.00000000 -0.00000000 -0.00000000 -0.00000000 -0.00000000 -0.00000000 -0.00000000 -0.00000000
    Gval -0.00000000 -0.00000000 -0.00000000 -0.00000000 -0.00000000 -0.00000000 -0.00000000 -0.00000000
    Gval  0.00000000  0.00000000  0.00000000  0.00000000  0.00000000  0.00000000  0.00000000  0.00000000
    Gval  0.00000000  0.00000000  0.00000000  0.00000000  0.00000000  0.00000000  0.00000000  0.00000000
    Gval  0.00000000  0.00000000  0.00001786  0.00002590  0.00003519  0.00004408  0.00005625  0.00007300
    Gval  0.00008152  0.00010779  0.00011449  0.00012045  0.00015158  0.00016034  0.00018735  0.00023441
    Gval  0.00031385  0.00036574  0.00039879  0.00044062  0.00059317  0.00059743  0.00060636  0.00061773
    Gval  0.00064037  0.00065313  0.00084284  0.00105462  0.00110706  0.00112298  0.00115728  0.00117309
    Gval  0.00149400  0.00163231  0.00181116  0.00271628  0.00354917  0.00402806
  1.786371948661021E-005  1.786371948661021E-005
  2.589609849444750E-005  1.786371948661021E-005
  3.518594483805336E-005  1.786371948661021E-005
  4.408496955765248E-005  1.786371948661021E-005
  5.624550611425404E-005  1.786371948661021E-005
  7.300157673311506E-005  1.786371948661021E-005
  8.151958860057704E-005  1.786371948661021E-005
  1.077941712450436E-004  1.786371948661021E-005
  1.144864191761292E-004  1.786371948661021E-005
  1.204524400392293E-004  1.786371948661021E-005
  1.515774028161322E-004  1.786371948661021E-005
  1.603433796035168E-004  1.786371948661021E-005
  1.873511926560863E-004  1.786371948661021E-005
  2.344103590935007E-004  1.786371948661021E-005
  3.138521814367819E-004  1.786371948661021E-005
  3.657400737285227E-004  1.786371948661021E-005
  3.987913611463607E-004  1.786371948661021E-005
  4.406164474779656E-004  1.786371948661021E-005
  5.931696255386668E-004  1.786371948661021E-005
  5.974261342736838E-004  1.786371948661021E-005
  6.063607775246654E-004  1.786371948661021E-005
  6.177265290744728E-004  1.786371948661021E-005
  6.403739361751978E-004  1.786371948661021E-005
  6.531268927557800E-004  1.786371948661021E-005
  8.428389589374414E-004  1.786371948661021E-005
  1.054622401258065E-003  1.786371948661021E-005
  1.107063574460147E-003  1.786371948661021E-005
  1.122984293563150E-003  1.786371948661021E-005
  1.157275678764857E-003  1.786371948661021E-005
  1.173089720162829E-003  1.786371948661021E-005
  1.493999391641079E-003  1.786371948661021E-005
  1.632311592744149E-003  1.786371948661021E-005
  1.811161130381337E-003  1.786371948661021E-005
  2.716279416159765E-003  1.786371948661021E-005
  3.549166568380883E-003  1.786371948661021E-005
  4.028058601031675E-003  1.786371948661021E-005
 cut=1d-8, nber non-redundant internal coords=          36
 Check on Eigenvals of non-red overlap matrix:
  0.00001786  0.00002590  0.00003519  0.00004408  0.00005625  0.00007300  0.00008152  0.00010779
  0.00011449  0.00012045  0.00015158  0.00016034  0.00018735  0.00023441  0.00031385  0.00036574
  0.00039879  0.00044062  0.00059317  0.00059743  0.00060636  0.00061773  0.00064037  0.00065313
  0.00084284  0.00105462  0.00110706  0.00112298  0.00115728  0.00117309  0.00149400  0.00163231
  0.00181116  0.00271628  0.00354917  0.00402806
 d1=
  -5.3  -3.7  -5.7   5.3  -4.2   0.3  -2.7  -4.7   0.0   1.0  -1.6  -0.0   2.0  -1.4   0.9   0.3  -0.9  -0.0   0.1  -0.2
  -0.1   0.1  -0.0  -0.2  -0.0  -0.8   1.1   0.7   0.0   0.1   0.0  -0.0   0.0   0.0  -0.0  -0.0
 d2=
  -5.2   3.7  -5.7   5.3  -4.2   0.1  -2.7  -4.6  -0.0  -1.0  -1.6  -0.0  -1.9  -1.5  -1.0   0.2   0.9  -0.0  -0.1  -0.2
   0.1  -0.1  -0.0   0.2   0.0  -0.8  -1.1  -0.8  -0.1  -0.1  -0.0   0.0  -0.0  -0.0   0.0   0.0
 curvilinear- renormalizn of Dush matrix done
  mol 1 sym            1  -> mol 2 sym            1
  mol 1 sym            2  -> mol 2 sym            2

 Dushinsky matrix, ncs 2 in terms of ncs 1

   mode   freq    coeff     %      %tot     of    at

   1 A'     -0.  0.0000     0.0     0.0  13 A'    538.
   2 A'     -0.  0.0000     0.0     0.0   9 A'    357.
   3 A"     -0. -0.0000     0.0     0.0   8 A"    212.
   4 A"     -0. -0.0000     0.0     0.0   7 A"    195.
   5 A"     -0.  0.0000     0.0     0.0   7 A"    195.
   6 A'      0. -0.0000     0.0     0.0  15 A'    661.
   7 A"    185. -0.9927    98.6   102.5   8 A"    212.
   8 A"    195.  0.9942    98.8    98.2   7 A"    195.
   9 A'    327. -0.9284    86.2   100.5   9 A'    357.
  10 A"    361. -0.9373    87.9    99.3  10 A"    431.
  11 A'    430.  0.3693    13.6   100.7   9 A'    357.
                 0.8097    65.6          13 A'    538.
  12 A"    453. -0.9580    91.8    98.7  11 A"    494.
  13 A"    498.  0.8855    78.4    99.1  14 A"    600.
                -0.3397    11.5          17 A"    740.
  14 A'    502. -0.9735    94.8    98.7  12 A'    508.
  15 A'    650.  0.3894    15.2   100.7  13 A'    538.
                 0.7845    61.5          15 A'    661.
                -0.4541    20.6          16 A'    715.
  16 A"    688. -0.3656    13.4   101.0  14 A"    600.
                -0.8790    77.3          17 A"    740.
  17 A'    712.  0.4810    23.1   100.4  15 A'    661.
                 0.8560    73.3          16 A'    715.
  18 A"    785.  0.9657    93.3    99.9  18 A"    773.
  19 A'    813. -0.9735    94.8    99.5  19 A'    797.
  20 A"    855.  0.8870    78.7    99.1  20 A"    829.
                -0.3322    11.0          21 A"    873.
  21 A'    867. -0.9420    88.7    98.4  22 A'    881.
  22 A"    892. -0.3341    11.2   100.0  20 A"    829.
                -0.8800    77.4          21 A"    873.
  23 A"    980.  0.9921    98.4    98.9  23 A"    958.
  24 A"   1016.  0.9605    92.3   100.7  24 A"    996.
  25 A'   1017. -0.9134    83.4    99.6  25 A'   1038.
  26 A'   1042.  0.8747    76.5    99.4  26 A'   1073.
                -0.3500    12.3          27 A'   1142.
  27 A'   1074.  0.4564    20.8   100.2  26 A'   1073.
                 0.7252    52.6          27 A'   1142.
  28 A'   1161.  0.7071    50.0   100.3  28 A'   1182.
  29 A'   1223. -0.6240    38.9   100.4  28 A'   1182.
                -0.5485    30.1          29 A'   1223.
                 0.3167    10.0          35 A'   1531.
  30 A'   1260. -0.6175    38.1   100.0  29 A'   1223.
                 0.5483    30.1          30 A'   1293.
  31 A'   1299. -0.3759    14.1    99.8  29 A'   1223.
                -0.7472    55.8          30 A'   1293.
                -0.4309    18.6          35 A'   1531.
  32 A'   1371. -0.9200    84.6    99.4  31 A'   1322.
  33 A'   1405.  0.7477    55.9   100.1  32 A'   1345.
                 0.3629    13.2          35 A'   1531.
  34 A'   1437. -0.3691    13.6   100.3  32 A'   1345.
                 0.5807    33.7          33 A'   1459.
                 0.3672    13.5          34 A'   1489.
                 0.5138    26.4          35 A'   1531.
  35 A'   1457. -0.7761    60.2   100.6  34 A'   1489.
                 0.4776    22.8          37 A'   1638.
  36 A'   1519.  0.5412    29.3    99.3  33 A'   1459.
                -0.3525    12.4          34 A'   1489.
                -0.6326    40.0          37 A'   1638.
  37 A'   1575.  0.8768    76.9    99.6  36 A'   1597.
                -0.4090    16.7          37 A'   1638.
  38 A'   3196.  0.9085    82.5   100.0  38 A'   3169.
                -0.3508    12.3          39 A'   3181.
  39 A'   3203.  0.8128    66.1   100.0  39 A'   3181.
                 0.4697    22.1          41 A'   3199.
  40 A'   3207. -0.9400    88.4   100.0  40 A'   3191.
  41 A'   3217.  0.4541    20.6   100.0  39 A'   3181.
                -0.8410    70.7          41 A'   3199.
  42 A'   3219.  0.9987    99.7   100.0  42 A'   3204.
 nber times 1st assigned=           1           0
 nber times 1st assigned=           2           0
 nber times 1st assigned=           3           0
 nber times 1st assigned=           4           0
 nber times 1st assigned=           5           0
 nber times 1st assigned=           6           0
 nber times 1st assigned=           7           2
 nber times 1st assigned=          10           0
 nber times 1st assigned=          11           0
 nber times 1st assigned=          12           0
 nber times 1st assigned=          14           0
 nber times 1st assigned=          16           0
 nber times 1st assigned=          17           0
 nber times 1st assigned=          18           0
 nber times 1st assigned=          19           0
 nber times 1st assigned=          20           0
 nber times 1st assigned=          21           0
 nber times 1st assigned=          22           0
 nber times 1st assigned=          23           0
 nber times 1st assigned=          24           0
 nber times 1st assigned=          25           0
 nber times 1st assigned=          26           0
 nber times 1st assigned=          27           0
 nber times 1st assigned=          28           0
 nber times 1st assigned=          29           0
 nber times 1st assigned=          30           0
 nber times 1st assigned=          31           0
 nber times 1st assigned=          32           0
 nber times 1st assigned=          33           0
 nber times 1st assigned=          34           0
 nber times 1st assigned=          35           0
 nber times 1st assigned=          36           0
 nber times 1st assigned=          37           0
 nber times 1st assigned=          38           0
 nber times 1st assigned=          39           0
 nber times 1st assigned=          40           0
 nber times 1st assigned=          41           0
 nber times 1st assigned=          42           0
 Dushinsky matrix written to .out file
 modes represented=   35.9550633476849     

 Dushinsky matrix, ncs 1 in terms of ncs 2

   mode   freq    coeff     %      %tot     of    at

   7 A"    195.  0.9942    98.8    98.8   8 A"    195.
   8 A"    212. -0.9927    98.6   102.0   7 A"    185.
   9 A'    357. -0.9284    86.2   100.7   9 A'    327.
                 0.3693    13.6          11 A'    430.
  10 A"    431. -0.9373    87.9    98.5  10 A"    361.
  11 A"    494. -0.9580    91.8    98.9  12 A"    453.
  12 A'    508. -0.9735    94.8    99.4  14 A'    502.
  13 A'    538.  0.8097    65.6   100.0  11 A'    430.
                 0.3894    15.2          15 A'    650.
  14 A"    600.  0.8855    78.4    99.9  13 A"    498.
                -0.3656    13.4          16 A"    688.
  15 A'    661.  0.7845    61.5   101.5  15 A'    650.
                 0.4810    23.1          17 A'    712.
  16 A'    715. -0.4541    20.6    99.5  15 A'    650.
                 0.8560    73.3          17 A'    712.
  17 A"    740. -0.3397    11.5   100.5  13 A"    498.
                -0.8790    77.3          16 A"    688.
  18 A"    773.  0.9657    93.3    99.9  18 A"    785.
  19 A'    797. -0.9735    94.8    99.9  19 A'    813.
  20 A"    829.  0.8870    78.7    99.5  20 A"    855.
                -0.3341    11.2          22 A"    892.
  21 A"    873. -0.3322    11.0   100.2  20 A"    855.
                -0.8800    77.4          22 A"    892.
  22 A'    881. -0.9420    88.7    98.2  21 A'    867.
  23 A"    958.  0.9921    98.4    98.9  23 A"    980.
  24 A"    996.  0.9605    92.3   100.2  24 A"   1016.
  25 A'   1038. -0.9134    83.4    99.7  25 A'   1017.
  26 A'   1073.  0.8747    76.5    99.6  26 A'   1042.
                 0.4564    20.8          27 A'   1074.
  27 A'   1142. -0.3500    12.3    99.8  26 A'   1042.
                 0.7252    52.6          27 A'   1074.
  28 A'   1182.  0.7071    50.0   100.1  28 A'   1161.
                -0.6240    38.9          29 A'   1223.
  29 A'   1223. -0.5485    30.1    99.9  29 A'   1223.
                -0.6175    38.1          30 A'   1260.
                -0.3759    14.1          31 A'   1299.
  30 A'   1293.  0.5483    30.1    99.8  30 A'   1260.
                -0.7472    55.8          31 A'   1299.
  31 A'   1322. -0.9200    84.6    99.3  32 A'   1371.
  32 A'   1345.  0.7477    55.9   100.3  33 A'   1405.
                -0.3691    13.6          34 A'   1437.
  33 A'   1459.  0.5807    33.7    99.6  34 A'   1437.
                 0.5412    29.3          36 A'   1519.
  34 A'   1489.  0.3672    13.5   100.2  34 A'   1437.
                -0.7761    60.2          35 A'   1457.
                -0.3525    12.4          36 A'   1519.
  35 A'   1531.  0.3167    10.0   100.9  29 A'   1223.
                -0.4309    18.6          31 A'   1299.
                 0.3629    13.2          33 A'   1405.
                 0.5138    26.4          34 A'   1437.
  36 A'   1597.  0.8768    76.9    99.6  37 A'   1575.
  37 A'   1638.  0.4776    22.8   100.1  35 A'   1457.
                -0.6326    40.0          36 A'   1519.
                -0.4090    16.7          37 A'   1575.
  38 A'   3169.  0.9085    82.5   100.0  38 A'   3196.
  39 A'   3181. -0.3508    12.3   100.0  38 A'   3196.
                 0.8128    66.1          39 A'   3203.
                 0.4541    20.6          41 A'   3217.
  40 A'   3191. -0.9400    88.4   100.0  40 A'   3207.
  41 A'   3199.  0.4697    22.1   100.0  39 A'   3203.
                -0.8410    70.7          41 A'   3217.
  42 A'   3204.  0.9987    99.7   100.0  42 A'   3219.
 nber times 1st assigned=           1           0
 nber times 1st assigned=           2           0
 nber times 1st assigned=           3           0
 nber times 1st assigned=           4           0
 nber times 1st assigned=           5           0
 nber times 1st assigned=           6           0
 nber times 1st assigned=           7           0
 nber times 1st assigned=           8           0
 nber times 1st assigned=           9           0
 nber times 1st assigned=          10           0
 nber times 1st assigned=          11           0
 nber times 1st assigned=          12           0
 nber times 1st assigned=          13           0
 nber times 1st assigned=          14           0
 nber times 1st assigned=          15           0
 nber times 1st assigned=          16           0
 nber times 1st assigned=          17           0
 nber times 1st assigned=          18           0
 nber times 1st assigned=          19           0
 nber times 1st assigned=          20           0
 nber times 1st assigned=          21           0
 nber times 1st assigned=          22           0
 nber times 1st assigned=          23           0
 nber times 1st assigned=          24           0
 nber times 1st assigned=          25           0
 nber times 1st assigned=          26           0
 nber times 1st assigned=          27           0
 nber times 1st assigned=          28           0
 nber times 1st assigned=          29           0
 nber times 1st assigned=          30           0
 nber times 1st assigned=          31           0
 nber times 1st assigned=          32           0
 nber times 1st assigned=          33           0
 nber times 1st assigned=          34           0
 nber times 1st assigned=          35           0
 nber times 1st assigned=          36           0
 nber times 1st assigned=          37           0
 nber times 1st assigned=          38           0
 nber times 1st assigned=          39           0
 nber times 1st assigned=          40           0
 nber times 1st assigned=          41           0
 nber times 1st assigned=          42           0
 modes represented=   35.9550633476849     
 p1=
   -0.   -0.    0.    0.   -0.    0.   -0.   -0.   -6.    0.    0.    4.    2.   -0.   -6.   -3.    0.   -0.   -2.   -0.
    0.   -1.    0.   -0.   -2.   -1.   -2.    2.   -2.    1.    2.   -2.    0.    1.   -5.   -3.    2.   -0.   -0.    0.
    0.    0.
 p2=
   -0.    0.   -0.   -0.    0.   -0.   -0.    0.   -8.    0.   -2.    0.    0.    4.    2.    0.    5.    0.   -3.    0.
   -1.    0.   -0.    0.   -3.    1.    1.   -2.    0.   -2.   -1.    3.    2.    2.    2.    1.    3.   -0.    0.    0.
    0.   -0.

 Displacement: in terms of nc of 1 THEN of nc of 2

   1 A'  freq=    -0. Q= -0.000 lam=    -0.0 A'  freq=    -0. Q= -0.000 lam=    -0.0
   2 A'  freq=    -0. Q= -0.000 lam=    -0.0 A'  freq=    -0. Q= -0.000 lam=    -0.0
   3 A"  freq=    -0. Q=  0.000 lam=    -0.0 A"  freq=    -0. Q=  0.000 lam=    -0.0
   4 A'  freq=    -0. Q=  0.000 lam=    -0.0 A"  freq=    -0. Q=  0.000 lam=    -0.0
   5 A"  freq=    -0. Q= -0.000 lam=    -0.0 A"  freq=    -0. Q= -0.000 lam=    -0.0
   6 A"  freq=    -0. Q=  0.000 lam=    -0.0 A'  freq=     0. Q=  0.000 lam=     0.0
   7 A"  freq=   195. Q= -0.000 lam=     0.0 A"  freq=   185. Q= -0.000 lam=     0.0
   8 A"  freq=   212. Q= -0.000 lam=     0.0 A"  freq=   195. Q= -0.000 lam=     0.0
   9 A'  freq=   357. Q= -0.456 lam=    37.0 A'  freq=   327. Q= -0.553 lam=    50.1
  10 A"  freq=   431. Q=  0.000 lam=     0.0 A"  freq=   361. Q=  0.000 lam=     0.0
  11 A"  freq=   494. Q=  0.000 lam=     0.0 A'  freq=   430. Q=  0.206 lam=     9.1
  12 A'  freq=   508. Q=  0.362 lam=    33.3 A"  freq=   453. Q=  0.000 lam=     0.0
  13 A'  freq=   538. Q=  0.211 lam=    12.0 A"  freq=   498. Q=  0.000 lam=     0.0
  14 A"  freq=   600. Q= -0.000 lam=     0.0 A'  freq=   502. Q= -0.328 lam=    26.9
  15 A'  freq=   661. Q= -0.602 lam=   119.8 A'  freq=   650. Q= -0.196 lam=    12.5
  16 A'  freq=   715. Q= -0.312 lam=    34.8 A"  freq=   688. Q= -0.000 lam=     0.0
  17 A"  freq=   740. Q=  0.000 lam=     0.0 A'  freq=   712. Q=  0.490 lam=    85.6
  18 A"  freq=   773. Q= -0.000 lam=     0.0 A"  freq=   785. Q= -0.000 lam=     0.0
  19 A'  freq=   797. Q= -0.265 lam=    27.9 A'  freq=   813. Q= -0.318 lam=    41.0
  20 A"  freq=   829. Q= -0.000 lam=     0.0 A"  freq=   855. Q= -0.000 lam=     0.0
  21 A"  freq=   873. Q=  0.000 lam=     0.0 A'  freq=   867. Q=  0.170 lam=    12.5
  22 A'  freq=   881. Q= -0.168 lam=    12.4 A"  freq=   892. Q= -0.000 lam=     0.0
  23 A"  freq=   958. Q=  0.000 lam=     0.0 A"  freq=   980. Q=  0.000 lam=     0.0
  24 A"  freq=   996. Q= -0.000 lam=     0.0 A"  freq=  1016. Q= -0.000 lam=     0.0
  25 A'  freq=  1038. Q= -0.219 lam=    24.9 A'  freq=  1017. Q= -0.400 lam=    81.4
  26 A'  freq=  1073. Q= -0.123 lam=     8.1 A'  freq=  1042. Q= -0.163 lam=    13.8
  27 A'  freq=  1142. Q= -0.288 lam=    47.5 A'  freq=  1074. Q= -0.116 lam=     7.3
  28 A'  freq=  1182. Q=  0.239 lam=    33.7 A'  freq=  1161. Q=  0.234 lam=    31.7
  29 A'  freq=  1223. Q= -0.345 lam=    72.7 A'  freq=  1223. Q= -0.019 lam=     0.2
  30 A'  freq=  1293. Q=  0.109 lam=     7.7 A'  freq=  1260. Q=  0.272 lam=    46.6
  31 A'  freq=  1322. Q=  0.272 lam=    48.9 A'  freq=  1299. Q=  0.194 lam=    24.5
  32 A'  freq=  1345. Q= -0.230 lam=    35.4 A'  freq=  1371. Q= -0.460 lam=   144.8
  33 A'  freq=  1459. Q=  0.007 lam=     0.0 A'  freq=  1405. Q=  0.315 lam=    69.5
  34 A'  freq=  1489. Q=  0.099 lam=     7.3 A'  freq=  1437. Q=  0.264 lam=    50.0
  35 A'  freq=  1531. Q= -0.714 lam=   390.0 A'  freq=  1457. Q= -0.285 lam=    59.2
  36 A'  freq=  1597. Q= -0.473 lam=   178.8 A'  freq=  1519. Q= -0.221 lam=    37.0
  37 A'  freq=  1638. Q=  0.334 lam=    91.5 A'  freq=  1575. Q=  0.504 lam=   200.3
  38 A'  freq=  3169. Q= -0.003 lam=     0.0 A'  freq=  3196. Q= -0.001 lam=     0.0
  39 A'  freq=  3181. Q= -0.011 lam=     0.2 A'  freq=  3203. Q= -0.002 lam=     0.0
  40 A'  freq=  3191. Q=  0.013 lam=     0.3 A'  freq=  3207. Q=  0.003 lam=     0.0
  41 A'  freq=  3199. Q=  0.021 lam=     0.7 A'  freq=  3217. Q=  0.021 lam=     0.7
  42 A'  freq=  3204. Q=  0.000 lam=     0.0 A'  freq=  3219. Q=  0.000 lam=     0.0

 total reorg energy (cm**-1, kcal/mol)=     1225.     1005.      3.50      2.87
 Nber of molecules processed=           2
