 Enter ifcurve (0=recti, 1=orth curvi, 2=apprx curvi, -1 = skip
 And atom ordering flag, 0= never changes, 1= use the first order thenceforth,
  2= deduce it (does read on fail), 3= always read it
 Reading file: 
 ./PDI_7_C0S1.log                                                               
                                          
  Entering Gaussian System, Link 0=g16                                          
  
 Gaussian format, type: g94, g98, g03= F F F
  #P Geom=AllCheck Guess=TCheck SCRF=Check GenChk RB3LYP TD(FC,Read)/6-3    
 energy type= TD      
 Original G94 input coords:
  6  0.839993  0.254012 -0.134456
  6  2.301496 -0.169923  0.049511
  6  3.231774  0.373307 -1.040934
  7  2.804580  0.147180  1.418438
  6  3.169899 -0.948031  2.231344
  8  3.074120 -2.097612  1.820833
  6  3.665475 -0.640768  3.580868
  6  4.040050 -1.686691  4.424886
  6  4.509894 -1.432123  5.699771
  6  4.630522 -0.116518  6.200896
  6  5.120051  0.163025  7.533116
  6  5.508355 -0.871609  8.421508
  6  5.971814 -0.600236  9.684180
  6  6.081350  0.724849 10.144321
  6  6.572817  0.947646 11.480699
  8  6.887802  0.079516 12.278736
  7  6.658273  2.343030 11.899296
  6  7.129649  2.612313 13.184832
  6  6.516280  3.609140 13.992495
  6  6.981908  3.868039 15.254459
  6  8.088287  3.158287 15.804892
  6  8.576009  3.435659 17.139824
  6  8.304109  4.674985 17.778156
  6  8.778436  4.939253 19.048477
  6  9.523970  3.974419 19.734797
  6  9.798575  2.741928 19.132052
  6  9.342378  2.477386 17.855177
  6  8.693413  2.163348 14.983539
  6  8.235327  1.896236 13.720567
  6  6.280646  3.474003 11.057962
  8  6.420829  4.602504 11.501295
  6  5.798176  3.140137  9.741535
  6  5.422486  4.188053  8.881124
  6  4.957330  3.928980  7.616475
  6  4.838317  2.604626  7.124211
  6  4.348484  2.324980  5.791993
  6  3.957024  3.348054  4.899633
  6  3.490589  3.068030  3.628688
  6  3.389537  1.750957  3.180634
  6  2.888996  1.489276  1.822104
  8  2.556854  2.395385  1.066821
  6  3.767831  0.692311  4.034334
  6  4.253322  0.969388  5.354295
  6  5.217039  1.519687  7.975832
  6  5.704259  1.797968  9.301809
  1  0.474034 -0.126583 -1.092606
  1  0.733455  1.337904 -0.123600
  1  0.214669 -0.171616  0.654848
  1  2.343596 -1.256506  0.017402
  1  3.224591  1.462152 -1.066823
  1  2.903447 -0.004589 -2.013673
  1  4.256528  0.029293 -0.877481
  1  3.952541 -2.699988  4.054023
  1  4.788425 -2.273940  6.317728
  1  5.440821 -1.903299  8.108725
  1  6.262435 -1.400827 10.352277
  1  5.660656  4.140302 13.611404
  1  6.452581  4.590023 15.860784
  1  7.750479  5.440252 17.251688
  1  8.575973  5.896879 19.511432
  1  9.888720  4.181746 20.733355
  1 10.366005  1.991728 19.668324
  1  9.542060  1.510983 17.413043
  1  9.572859  1.640882 15.333771
  1  8.728583  1.158805 13.110366
  1  5.509900  5.204687  9.242480
  1  4.679323  4.763359  6.989342
  1  4.017834  4.383450  5.203608
  1  3.194102  3.861580  2.954558
 nber atoms=          69
  Total Energy, E(TD-HF/TD-DFT) =  -1911.54216125                               
  
          32          49 "  -1911.54216125"
After scan for Atom:   Atom  AN      X      Y      Z        X      Y      Z        X      Y      Z   
After scan for Atom:   Atom  AN      X      Y      Z        X      Y      Z        X      Y      Z   
After scan for Atom:   Atom  AN      X      Y      Z        X      Y      Z        X      Y      Z   
After scan for Atom:   Atom  AN      X      Y      Z        X      Y      Z        X      Y      Z   
After scan for Atom:   Atom  AN      X      Y      Z        X      Y      Z        X      Y      Z   
After scan for Atom:   Atom  AN      X      Y      Z        X      Y      Z        X      Y      Z   
After scan for Atom:   Atom  AN      X      Y      Z        X      Y      Z        X      Y      Z   
After scan for Atom:   Atom  AN      X      Y      Z        X      Y      Z        X      Y      Z   
After scan for Atom:   Atom  AN      X      Y      Z        X      Y      Z        X      Y      Z   
After scan for Atom:   Atom  AN      X      Y      Z        X      Y      Z        X      Y      Z   
After scan for Atom:   Atom  AN      X      Y      Z        X      Y      Z        X      Y      Z   
After scan for Atom:   Atom  AN      X      Y      Z        X      Y      Z        X      Y      Z   
After scan for Atom:   Atom  AN      X      Y      Z        X      Y      Z        X      Y      Z   
After scan for Atom:   Atom  AN      X      Y      Z        X      Y      Z        X      Y      Z   
After scan for Atom:   Atom  AN      X      Y      Z        X      Y      Z        X      Y      Z   
After scan for Atom:   Atom  AN      X      Y      Z        X      Y      Z        X      Y      Z   
After scan for Atom:   Atom  AN      X      Y      Z        X      Y      Z        X      Y      Z   
After scan for Atom:   Atom  AN      X      Y      Z        X      Y      Z        X      Y      Z   
After scan for Atom:   Atom  AN      X      Y      Z        X      Y      Z        X      Y      Z   
After scan for Atom:   Atom  AN      X      Y      Z        X      Y      Z        X      Y      Z   
After scan for Atom:   Atom  AN      X      Y      Z        X      Y      Z        X      Y      Z   
After scan for Atom:   Atom  AN      X      Y      Z        X      Y      Z        X      Y      Z   
After scan for Atom:   Atom  AN      X      Y      Z        X      Y      Z        X      Y      Z   
After scan for Atom:   Atom  AN      X      Y      Z        X      Y      Z        X      Y      Z   
After scan for Atom:   Atom  AN      X      Y      Z        X      Y      Z        X      Y      Z   
After scan for Atom:   Atom  AN      X      Y      Z        X      Y      Z        X      Y      Z   
After scan for Atom:   Atom  AN      X      Y      Z        X      Y      Z        X      Y      Z   
After scan for Atom:   Atom  AN      X      Y      Z        X      Y      Z        X      Y      Z   
After scan for Atom:   Atom  AN      X      Y      Z        X      Y      Z        X      Y      Z   
After scan for Atom:   Atom  AN      X      Y      Z        X      Y      Z        X      Y      Z   
After scan for Atom:   Atom  AN      X      Y      Z        X      Y      Z        X      Y      Z   
After scan for Atom:   Atom  AN      X      Y      Z        X      Y      Z        X      Y      Z   
After scan for Atom:   Atom  AN      X      Y      Z        X      Y      Z        X      Y      Z   
After scan for Atom:   Atom  AN      X      Y      Z        X      Y      Z        X      Y      Z   
After scan for Atom:   Atom  AN      X      Y      Z        X      Y      Z        X      Y      Z   
After scan for Atom:   Atom  AN      X      Y      Z        X      Y      Z        X      Y      Z   
After scan for Atom:   Atom  AN      X      Y      Z        X      Y      Z        X      Y      Z   
After scan for Atom:   Atom  AN      X      Y      Z        X      Y      Z        X      Y      Z   
After scan for Atom:   Atom  AN      X      Y      Z        X      Y      Z        X      Y      Z   
After scan for Atom:   Atom  AN      X      Y      Z        X      Y      Z        X      Y      Z   
After scan for Atom:   Atom  AN      X      Y      Z        X      Y      Z        X      Y      Z   
After scan for Atom:   Atom  AN      X      Y      Z        X      Y      Z        X      Y      Z   
After scan for Atom:   Atom  AN      X      Y      Z        X      Y      Z        X      Y      Z   
After scan for Atom:   Atom  AN      X      Y      Z        X      Y      Z        X      Y      Z   
After scan for Atom:   Atom  AN      X      Y      Z        X      Y      Z        X      Y      Z   
After scan for Atom:   Atom  AN      X      Y      Z        X      Y      Z        X      Y      Z   
After scan for Atom:   Atom  AN      X      Y      Z        X      Y      Z        X      Y      Z   
After scan for Atom:   Atom  AN      X      Y      Z        X      Y      Z        X      Y      Z   
After scan for Atom:   Atom  AN      X      Y      Z        X      Y      Z        X      Y      Z   
After scan for Atom:   Atom  AN      X      Y      Z        X      Y      Z        X      Y      Z   
After scan for Atom:   Atom  AN      X      Y      Z        X      Y      Z        X      Y      Z   
After scan for Atom:   Atom  AN      X      Y      Z        X      Y      Z        X      Y      Z   
After scan for Atom:   Atom  AN      X      Y      Z        X      Y      Z        X      Y      Z   
After scan for Atom:   Atom  AN      X      Y      Z        X      Y      Z        X      Y      Z   
After scan for Atom:   Atom  AN      X      Y      Z        X      Y      Z        X      Y      Z   
After scan for Atom:   Atom  AN      X      Y      Z        X      Y      Z        X      Y      Z   
After scan for Atom:   Atom  AN      X      Y      Z        X      Y      Z        X      Y      Z   
After scan for Atom:   Atom  AN      X      Y      Z        X      Y      Z        X      Y      Z   
After scan for Atom:   Atom  AN      X      Y      Z        X      Y      Z        X      Y      Z   
After scan for Atom:   Atom  AN      X      Y      Z        X      Y      Z        X      Y      Z   
After scan for Atom:   Atom  AN      X      Y      Z        X      Y      Z        X      Y      Z   
After scan for Atom:   Atom  AN      X      Y      Z        X      Y      Z        X      Y      Z   
After scan for Atom:   Atom  AN      X      Y      Z        X      Y      Z        X      Y      Z   
After scan for Atom:   Atom  AN      X      Y      Z        X      Y      Z        X      Y      Z   
After scan for Atom:   Atom  AN      X      Y      Z        X      Y      Z        X      Y      Z   
After scan for Atom:   Atom  AN      X      Y      Z        X      Y      Z        X      Y      Z   
After scan for Atom:   Atom  AN      X      Y      Z        X      Y      Z        X      Y      Z   
 g94    frequencies=
     0.0    0.0    0.0    0.0    0.0    0.0    9.5   20.7   21.2   30.1
    42.4   54.7   58.2   73.4   76.4   88.4   99.6  105.3  107.0  130.6
   144.9  168.2  169.6  179.9  195.2  210.4  212.7  230.8  234.8  236.4
   243.5  260.8  279.7  297.1  297.5  330.7  341.1  367.6  377.2  385.7
   390.4  395.3  400.8  417.0  421.9  433.6  435.5  442.7  448.2  453.4
   458.2  472.8  486.3  496.3  501.7  512.0  514.1  516.0  542.6  562.5
   579.1  582.1  591.7  607.7  623.2  624.3  628.5  632.4  660.0  667.0
   678.8  708.8  712.9  727.6  740.0  744.1  747.4  756.4  760.7  768.9
   785.6  796.8  797.6  803.1  808.8  815.8  820.4  821.7  826.8  832.6
   837.2  841.2  841.5  859.5  861.6  902.3  928.8  943.7  955.7  956.3
   971.1  971.5  974.5  980.5  981.3  983.6  984.9  988.0  996.0 1002.8
  1008.8 1010.0 1020.4 1024.7 1046.7 1068.0 1076.8 1094.2 1118.7 1144.6
  1146.6 1155.2 1164.4 1171.0 1174.6 1189.0 1189.5 1200.2 1204.9 1210.0
  1226.8 1234.7 1236.2 1247.0 1263.7 1283.1 1291.3 1294.8 1300.7 1317.4
  1330.3 1339.8 1349.9 1353.3 1359.7 1363.4 1368.4 1371.0 1384.2 1392.7
  1395.3 1397.7 1411.6 1424.9 1437.7 1457.7 1460.9 1470.8 1478.6 1483.2
  1484.0 1490.0 1496.1 1499.1 1501.2 1506.6 1523.6 1525.1 1536.1 1558.4
  1574.9 1575.9 1581.5 1591.3 1612.1 1614.0 1618.7 1632.1 1658.7 1683.6
  1705.8 1719.3 1750.0 3029.4 3034.0 3086.7 3089.8 3109.2 3131.7 3141.4
  3186.2 3192.1 3192.4 3194.4 3198.3 3198.6 3201.6 3205.9 3207.8 3208.0
  3208.3 3217.3 3218.3 3222.8 3223.0 3265.0 3265.6
 g94    symmetries=
                                                 A      A      A      A
       A      A      A      A      A      A      A      A      A      A
       A      A      A      A      A      A      A      A      A      A
       A      A      A      A      A      A      A      A      A      A
       A      A      A      A      A      A      A      A      A      A
       A      A      A      A      A      A      A      A      A      A
       A      A      A      A      A      A      A      A      A      A
       A      A      A      A      A      A      A      A      A      A
       A      A      A      A      A      A      A      A      A      A
       A      A      A      A      A      A      A      A      A      A
       A      A      A      A      A      A      A      A      A      A
       A      A      A      A      A      A      A      A      A      A
       A      A      A      A      A      A      A      A      A      A
       A      A      A      A      A      A      A      A      A      A
       A      A      A      A      A      A      A      A      A      A
       A      A      A      A      A      A      A      A      A      A
       A      A      A      A      A      A      A      A      A      A
       A      A      A      A      A      A      A      A      A      A
       A      A      A      A      A      A      A      A      A      A
       A      A      A      A      A      A      A      A      A      A
       A      A      A      A      A      A      A
 atomic masses:
 12.0000 12.0000 12.0000 14.0031 12.0000 15.9949 12.0000 12.0000 12.0000 12.0000
 12.0000 12.0000 12.0000 12.0000 12.0000 15.9949 14.0031 12.0000 12.0000 12.0000
 12.0000 12.0000 12.0000 12.0000 12.0000 12.0000 12.0000 12.0000 12.0000 12.0000
 15.9949 12.0000 12.0000 12.0000 12.0000 12.0000 12.0000 12.0000 12.0000 12.0000
 15.9949 12.0000 12.0000 12.0000 12.0000  1.0078  1.0078  1.0078  1.0078  1.0078
  1.0078  1.0078  1.0078  1.0078  1.0078  1.0078  1.0078  1.0078  1.0078  1.0078
  1.0078  1.0078  1.0078  1.0078  1.0078  1.0078  1.0078  1.0078  1.0078
 looking for force constants in 
 ./PDI_7_C0S1.fchk                                                              
  
 Cartesian Force Constants                  R   N=       21528                  
  
 n3=         207       21528
 g94-fc frequencies=
    -5.5   -1.7   -0.8   -0.0    0.0    0.0    9.5   20.7   21.2   30.1
    42.4   54.7   58.2   73.4   76.4   88.4   99.6  105.3  107.0  130.6
   144.9  168.2  169.6  179.9  195.2  210.4  212.7  230.8  234.8  236.4
   243.5  260.8  279.7  297.1  297.5  330.7  341.1  367.6  377.2  385.7
   390.4  395.3  400.9  417.0  421.9  433.6  435.5  442.7  448.2  453.4
   458.2  472.8  486.4  496.3  501.8  512.0  514.1  516.0  542.6  562.5
   579.1  582.1  591.7  607.7  623.2  624.3  628.5  632.4  660.0  667.0
   678.8  708.9  713.0  727.6  740.0  744.1  747.4  756.4  760.7  768.9
   785.6  796.9  797.7  803.1  808.8  815.8  820.4  821.8  826.8  832.6
   837.2  841.2  841.5  859.6  861.7  902.3  928.9  943.7  955.7  956.4
   971.1  971.5  974.5  980.5  981.3  983.6  984.9  988.1  996.0 1002.8
  1008.8 1010.0 1020.4 1024.7 1046.7 1068.1 1076.9 1094.2 1118.7 1144.6
  1146.6 1155.2 1164.4 1171.0 1174.6 1189.0 1189.5 1200.3 1204.9 1210.0
  1226.9 1234.7 1236.3 1247.0 1263.7 1283.1 1291.3 1294.9 1300.7 1317.4
  1330.4 1339.8 1349.9 1353.3 1359.7 1363.5 1368.4 1371.0 1384.2 1392.7
  1395.3 1397.8 1411.7 1424.9 1437.7 1457.7 1460.9 1470.8 1478.6 1483.3
  1484.1 1490.0 1496.1 1499.1 1501.3 1506.7 1523.6 1525.2 1536.2 1558.4
  1575.0 1576.0 1581.5 1591.3 1612.1 1614.1 1618.8 1632.1 1658.7 1683.6
  1705.9 1719.4 1750.1 3029.5 3034.1 3086.7 3089.9 3109.3 3131.8 3141.5
  3186.2 3192.2 3192.4 3194.5 3198.4 3198.6 3201.6 3206.0 3207.9 3208.1
  3208.4 3217.4 3218.4 3222.9 3223.0 3265.1 3265.6
 at 99999: n3=         207
 symm operator            1 :  F  nop=           0
 symm operator            2 :  F  nop=           0
 symm operator            3 :  F  nop=           0
 symm operator            4 :  F  nop=           0
 symm operator            5 :  F  nop=           0
 symm operator            6 :  F  nop=           0
 symm operator            7 :  F  nop=           0
 The point group of the molecule is  C1
 Symmetry rotation matrix:
   1.00000   0.00000   0.00000
   0.00000   1.00000   0.00000
   0.00000   0.00000   1.00000

 Projecting out zero-frequency components
 generating redundant internal coords
         300        3600          69
 search for int coords
   1 str   2   1   1.533
   2 str   3   2   1.533
   3 str   4   2   1.493
   4 str   5   4   1.412
   5 str   6   5   1.224
   6 str   7   5   1.470
   7 str   8   7   1.395
   8 str   9   8   1.382
   9 str  10   9   1.413
  10 str  11  10   1.447
  11 str  12  11   1.418
  12 str  13  12   1.372
  13 str  14  13   1.407
  14 str  15  14   1.441
  15 str  16  15   1.221
  16 str  17  15   1.459
  17 str  18  17   1.395
  18 str  19  18   1.422
  19 str  20  19   1.370
  20 str  21  20   1.425
  21 str  22  21   1.448
  22 str  23  22   1.420
  23 str  24  23   1.381
  24 str  25  24   1.399
  25 str  26  25   1.399
  26 str  27  22   1.420
  27 str  27  26   1.381
  28 str  28  21   1.425
  29 str  29  18   1.422
  30 str  29  28   1.370
  31 str  30  17   1.459
  32 str  31  30   1.221
  33 str  32  30   1.441
  34 str  33  32   1.407
  35 str  34  33   1.372
  36 str  35  34   1.418
  37 str  36  35   1.447
  38 str  37  36   1.413
  39 str  38  37   1.382
  40 str  39  38   1.395
  41 str  40   4   1.404
  42 str  40  39   1.471
  43 str  41  40   1.225
  44 str  42   7   1.412
  45 str  42  39   1.412
  46 str  43  10   1.428
  47 str  43  36   1.428
  48 str  43  42   1.433
  49 str  44  11   1.430
  50 str  44  35   1.430
  51 str  45  14   1.415
  52 str  45  32   1.415
  53 str  45  44   1.440
  54 str  46   1   1.094
  55 str  47   1   1.089
  56 str  48   1   1.093
  57 str  49   2   1.088
  58 str  50   3   1.089
  59 str  51   3   1.094
  60 str  52   3   1.093
  61 str  53   8   1.083
  62 str  54   9   1.081
  63 str  55  12   1.080
  64 str  56  13   1.082
  65 str  57  19   1.077
  66 str  58  20   1.081
  67 str  59  23   1.081
  68 str  60  24   1.083
  69 str  61  25   1.083
  70 str  62  26   1.083
  71 str  63  27   1.081
  72 str  64  28   1.081
  73 str  65  29   1.077
  74 str  66  33   1.082
  75 str  67  34   1.080
  76 str  68  37   1.081
  77 str  69  38   1.083
 nber stretches=          77
  78 ben   1   2   3
  79 prop tor   1   2   3  50
  80 prop tor   1   2   3  51
  81 prop tor   1   2   3  52
  82 ben   1   2   4
  83 prop tor   1   2   4   5
  84 prop tor   1   2   4  40
  85 ben   1   2  49
  86 ben   2   1  46
  87 ben   2   1  47
  88 ben   2   1  48
  89 ben   2   3  50
  90 ben   2   3  51
  91 ben   2   3  52
  92 ben   2   4   5
  93 prop tor   2   4   5   6
  94 prop tor   2   4   5   7
  95 ben   2   4  40
  96 prop tor   2   4  40  39
  97 prop tor   2   4  40  41
  98 ben   3   2   4
  99 prop tor   3   2   4   5
 100 prop tor   3   2   4  40
 101 ben   3   2  49
 102 prop tor   4   2   3  50
 103 prop tor   4   2   3  51
 104 prop tor   4   2   3  52
 105 ben   4   2  49
 106 ben   4   5   6
 107 ben   4   5   7
 108 prop tor   4   5   7   8
 109 prop tor   4   5   7  42
 110 ben   4  40  39
 111 ben   4  40  41
 112 ben   5   4  40
 113 prop tor   5   4  40  39
 114 prop tor   5   4  40  41
 115 ben   5   7   8
 116 prop tor   5   7   8   9
 117 prop tor   5   7   8  53
 118 ben   5   7  42
 119 prop tor   5   7  42  39
 120 prop tor   5   7  42  43
 121 ben   6   5   7
 122 prop tor   6   5   7   8
 123 prop tor   6   5   7  42
 124 ben   7   8   9
 125 prop tor   7   8   9  10
 126 prop tor   7   8   9  54
 127 ben   7   8  53
 128 ben   7  42  39
 129 ben   7  42  43
 130 prop tor   7  42  43  10
 131 prop tor   7  42  43  36
 132 ben   8   7  42
 133 prop tor   8   7  42  39
 134 prop tor   8   7  42  43
 135 ben   8   9  10
 136 prop tor   8   9  10  11
 137 prop tor   8   9  10  43
 138 ben   8   9  54
 139 ben   9   8  53
 140 ben   9  10  11
 141 prop tor   9  10  11  12
 142 prop tor   9  10  11  44
 143 ben   9  10  43
 144 prop tor   9  10  43  36
 145 prop tor   9  10  43  42
 146 ben  10   9  54
 147 ben  10  11  12
 148 prop tor  10  11  12  13
 149 prop tor  10  11  12  55
 150 ben  10  11  44
 151 prop tor  10  11  44  35
 152 prop tor  10  11  44  45
 153 ben  10  43  36
 154 ben  10  43  42
 155 ben  11  10  43
 156 prop tor  11  10  43  36
 157 prop tor  11  10  43  42
 158 ben  11  12  13
 159 prop tor  11  12  13  14
 160 prop tor  11  12  13  56
 161 ben  11  12  55
 162 ben  11  44  35
 163 ben  11  44  45
 164 prop tor  11  44  45  14
 165 prop tor  11  44  45  32
 166 ben  12  11  44
 167 prop tor  12  11  44  35
 168 prop tor  12  11  44  45
 169 ben  12  13  14
 170 prop tor  12  13  14  15
 171 prop tor  12  13  14  45
 172 ben  12  13  56
 173 ben  13  12  55
 174 ben  13  14  15
 175 prop tor  13  14  15  16
 176 prop tor  13  14  15  17
 177 ben  13  14  45
 178 prop tor  13  14  45  32
 179 prop tor  13  14  45  44
 180 ben  14  13  56
 181 ben  14  15  16
 182 ben  14  15  17
 183 prop tor  14  15  17  18
 184 prop tor  14  15  17  30
 185 ben  14  45  32
 186 ben  14  45  44
 187 ben  15  14  45
 188 prop tor  15  14  45  32
 189 prop tor  15  14  45  44
 190 ben  15  17  18
 191 prop tor  15  17  18  19
 192 prop tor  15  17  18  29
 193 ben  15  17  30
 194 prop tor  15  17  30  31
 195 prop tor  15  17  30  32
 196 ben  16  15  17
 197 prop tor  16  15  17  18
 198 prop tor  16  15  17  30
 199 ben  17  18  19
 200 prop tor  17  18  19  20
 201 prop tor  17  18  19  57
 202 ben  17  18  29
 203 prop tor  17  18  29  28
 204 prop tor  17  18  29  65
 205 ben  17  30  31
 206 ben  17  30  32
 207 prop tor  17  30  32  33
 208 prop tor  17  30  32  45
 209 ben  18  17  30
 210 prop tor  18  17  30  31
 211 prop tor  18  17  30  32
 212 ben  18  19  20
 213 prop tor  18  19  20  21
 214 prop tor  18  19  20  58
 215 ben  18  19  57
 216 ben  18  29  28
 217 ben  18  29  65
 218 ben  19  18  29
 219 prop tor  19  18  29  28
 220 prop tor  19  18  29  65
 221 ben  19  20  21
 222 prop tor  19  20  21  22
 223 prop tor  19  20  21  28
 224 ben  19  20  58
 225 ben  20  19  57
 226 ben  20  21  22
 227 prop tor  20  21  22  23
 228 prop tor  20  21  22  27
 229 ben  20  21  28
 230 prop tor  20  21  28  29
 231 prop tor  20  21  28  64
 232 ben  21  20  58
 233 ben  21  22  23
 234 prop tor  21  22  23  24
 235 prop tor  21  22  23  59
 236 ben  21  22  27
 237 prop tor  21  22  27  26
 238 prop tor  21  22  27  63
 239 ben  21  28  29
 240 prop tor  21  28  29  18
 241 prop tor  21  28  29  65
 242 ben  21  28  64
 243 ben  22  21  28
 244 prop tor  22  21  28  29
 245 prop tor  22  21  28  64
 246 ben  22  23  24
 247 prop tor  22  23  24  25
 248 prop tor  22  23  24  60
 249 ben  22  23  59
 250 ben  22  27  26
 251 ben  22  27  63
 252 ben  23  22  27
 253 prop tor  23  22  27  26
 254 prop tor  23  22  27  63
 255 ben  23  24  25
 256 prop tor  23  24  25  26
 257 prop tor  23  24  25  61
 258 ben  23  24  60
 259 ben  24  23  59
 260 ben  24  25  26
 261 prop tor  24  25  26  27
 262 prop tor  24  25  26  62
 263 ben  24  25  61
 264 ben  25  24  60
 265 ben  25  26  27
 266 prop tor  25  26  27  22
 267 prop tor  25  26  27  63
 268 ben  25  26  62
 269 ben  26  25  61
 270 ben  26  27  63
 271 prop tor  27  22  23  24
 272 prop tor  27  22  23  59
 273 ben  27  26  62
 274 prop tor  28  21  22  23
 275 prop tor  28  21  22  27
 276 ben  28  29  65
 277 prop tor  29  18  19  20
 278 prop tor  29  18  19  57
 279 ben  29  28  64
 280 prop tor  30  17  18  19
 281 prop tor  30  17  18  29
 282 ben  30  32  33
 283 prop tor  30  32  33  34
 284 prop tor  30  32  33  66
 285 ben  30  32  45
 286 prop tor  30  32  45  14
 287 prop tor  30  32  45  44
 288 ben  31  30  32
 289 prop tor  31  30  32  33
 290 prop tor  31  30  32  45
 291 ben  32  33  34
 292 prop tor  32  33  34  35
 293 prop tor  32  33  34  67
 294 ben  32  33  66
 295 ben  32  45  44
 296 ben  33  32  45
 297 prop tor  33  32  45  14
 298 prop tor  33  32  45  44
 299 ben  33  34  35
 300 prop tor  33  34  35  36
 301 prop tor  33  34  35  44
 302 ben  33  34  67
 303 ben  34  33  66
 304 ben  34  35  36
 305 prop tor  34  35  36  37
 306 prop tor  34  35  36  43
 307 ben  34  35  44
 308 prop tor  34  35  44  11
 309 prop tor  34  35  44  45
 310 ben  35  34  67
 311 ben  35  36  37
 312 prop tor  35  36  37  38
 313 prop tor  35  36  37  68
 314 ben  35  36  43
 315 prop tor  35  36  43  10
 316 prop tor  35  36  43  42
 317 ben  35  44  45
 318 prop tor  35  44  45  14
 319 prop tor  35  44  45  32
 320 ben  36  35  44
 321 prop tor  36  35  44  11
 322 prop tor  36  35  44  45
 323 ben  36  37  38
 324 prop tor  36  37  38  39
 325 prop tor  36  37  38  69
 326 ben  36  37  68
 327 ben  36  43  42
 328 ben  37  36  43
 329 prop tor  37  36  43  10
 330 prop tor  37  36  43  42
 331 ben  37  38  39
 332 prop tor  37  38  39  40
 333 prop tor  37  38  39  42
 334 ben  37  38  69
 335 ben  38  37  68
 336 ben  38  39  40
 337 prop tor  38  39  40   4
 338 prop tor  38  39  40  41
 339 ben  38  39  42
 340 prop tor  38  39  42   7
 341 prop tor  38  39  42  43
 342 ben  39  38  69
 343 ben  39  40  41
 344 ben  39  42  43
 345 prop tor  39  42  43  10
 346 prop tor  39  42  43  36
 347 prop tor  40   4   5   6
 348 prop tor  40   4   5   7
 349 ben  40  39  42
 350 prop tor  40  39  42   7
 351 prop tor  40  39  42  43
 352 prop tor  42   7   8   9
 353 prop tor  42   7   8  53
 354 prop tor  42  39  40   4
 355 prop tor  42  39  40  41
 356 prop tor  43  10  11  12
 357 prop tor  43  10  11  44
 358 prop tor  43  36  37  38
 359 prop tor  43  36  37  68
 360 prop tor  44  11  12  13
 361 prop tor  44  11  12  55
 362 prop tor  44  35  36  37
 363 prop tor  44  35  36  43
 364 prop tor  45  14  15  16
 365 prop tor  45  14  15  17
 366 prop tor  45  32  33  34
 367 prop tor  45  32  33  66
 368 prop tor  46   1   2   3
 369 prop tor  46   1   2   4
 370 prop tor  46   1   2  49
 371 ben  46   1  47
 372 ben  46   1  48
 373 prop tor  47   1   2   3
 374 prop tor  47   1   2   4
 375 prop tor  47   1   2  49
 376 ben  47   1  48
 377 prop tor  48   1   2   3
 378 prop tor  48   1   2   4
 379 prop tor  48   1   2  49
 380 prop tor  49   2   3  50
 381 prop tor  49   2   3  51
 382 prop tor  49   2   3  52
 383 prop tor  49   2   4   5
 384 prop tor  49   2   4  40
 385 ben  50   3  51
 386 ben  50   3  52
 387 ben  51   3  52
 388 prop tor  53   8   9  10
 389 prop tor  53   8   9  54
 390 prop tor  54   9  10  11
 391 prop tor  54   9  10  43
 392 prop tor  55  12  13  14
 393 prop tor  55  12  13  56
 394 prop tor  56  13  14  15
 395 prop tor  56  13  14  45
 396 prop tor  57  19  20  21
 397 prop tor  57  19  20  58
 398 prop tor  58  20  21  22
 399 prop tor  58  20  21  28
 400 prop tor  59  23  24  25
 401 prop tor  59  23  24  60
 402 prop tor  60  24  25  26
 403 prop tor  60  24  25  61
 404 prop tor  61  25  26  27
 405 prop tor  61  25  26  62
 406 prop tor  62  26  27  22
 407 prop tor  62  26  27  63
 408 prop tor  64  28  29  18
 409 prop tor  64  28  29  65
 410 prop tor  66  33  34  35
 411 prop tor  66  33  34  67
 412 prop tor  67  34  35  36
 413 prop tor  67  34  35  44
 414 prop tor  68  37  38  39
 415 prop tor  68  37  38  69
 416 prop tor  69  38  39  40
 417 prop tor  69  38  39  42
 nber bend=             132
 nber lin bend=           0
 nber prop tor=         208
 nber impr tor=           0
 nber tot redund int=         417
 Eigenvalues of G in red int coords
    Gval -0.00000000 -0.00000000 -0.00000000 -0.00000000 -0.00000000 -0.00000000 -0.00000000 -0.00000000
    Gval -0.00000000 -0.00000000 -0.00000000 -0.00000000 -0.00000000 -0.00000000 -0.00000000 -0.00000000
    Gval -0.00000000 -0.00000000 -0.00000000 -0.00000000 -0.00000000 -0.00000000 -0.00000000 -0.00000000
    Gval -0.00000000 -0.00000000 -0.00000000 -0.00000000 -0.00000000 -0.00000000 -0.00000000 -0.00000000
    Gval -0.00000000 -0.00000000 -0.00000000 -0.00000000 -0.00000000 -0.00000000 -0.00000000 -0.00000000
    Gval -0.00000000 -0.00000000 -0.00000000 -0.00000000 -0.00000000 -0.00000000 -0.00000000 -0.00000000
    Gval -0.00000000 -0.00000000 -0.00000000 -0.00000000 -0.00000000 -0.00000000 -0.00000000 -0.00000000
    Gval -0.00000000 -0.00000000 -0.00000000 -0.00000000 -0.00000000 -0.00000000 -0.00000000 -0.00000000
    Gval -0.00000000 -0.00000000 -0.00000000 -0.00000000 -0.00000000 -0.00000000 -0.00000000 -0.00000000
    Gval -0.00000000 -0.00000000 -0.00000000 -0.00000000 -0.00000000 -0.00000000 -0.00000000 -0.00000000
    Gval -0.00000000 -0.00000000 -0.00000000 -0.00000000 -0.00000000 -0.00000000 -0.00000000 -0.00000000
    Gval -0.00000000 -0.00000000 -0.00000000 -0.00000000 -0.00000000 -0.00000000 -0.00000000 -0.00000000
    Gval -0.00000000 -0.00000000 -0.00000000 -0.00000000 -0.00000000 -0.00000000 -0.00000000 -0.00000000
    Gval -0.00000000 -0.00000000 -0.00000000 -0.00000000 -0.00000000 -0.00000000 -0.00000000 -0.00000000
    Gval  0.00000000  0.00000000  0.00000000  0.00000000  0.00000000  0.00000000  0.00000000  0.00000000
    Gval  0.00000000  0.00000000  0.00000000  0.00000000  0.00000000  0.00000000  0.00000000  0.00000000
    Gval  0.00000000  0.00000000  0.00000000  0.00000000  0.00000000  0.00000000  0.00000000  0.00000000
    Gval  0.00000000  0.00000000  0.00000000  0.00000000  0.00000000  0.00000000  0.00000000  0.00000000
    Gval  0.00000000  0.00000000  0.00000000  0.00000000  0.00000000  0.00000000  0.00000000  0.00000000
    Gval  0.00000000  0.00000000  0.00000000  0.00000000  0.00000000  0.00000000  0.00000000  0.00000000
    Gval  0.00000000  0.00000000  0.00000000  0.00000000  0.00000000  0.00000000  0.00000000  0.00000000
    Gval  0.00000000  0.00000000  0.00000000  0.00000000  0.00000000  0.00000000  0.00000000  0.00000000
    Gval  0.00000000  0.00000000  0.00000000  0.00000000  0.00000000  0.00000000  0.00000000  0.00000000
    Gval  0.00000000  0.00000000  0.00000000  0.00000000  0.00000000  0.00000000  0.00000000  0.00000000
    Gval  0.00000000  0.00000000  0.00000000  0.00000000  0.00000000  0.00000000  0.00000000  0.00000000
    Gval  0.00000000  0.00000000  0.00000000  0.00000000  0.00000000  0.00000000  0.00000000  0.00000000
    Gval  0.00000000  0.00000000  0.00000000  0.00000000  0.00000000  0.00000000  0.00000000  0.00000000
    Gval  0.00000021  0.00000047  0.00000123  0.00000146  0.00000304  0.00000389  0.00000454  0.00000625
    Gval  0.00000637  0.00000867  0.00001080  0.00001147  0.00001156  0.00001494  0.00001514  0.00001599
    Gval  0.00001636  0.00001799  0.00001832  0.00001965  0.00002129  0.00002162  0.00002400  0.00002485
    Gval  0.00002543  0.00002877  0.00002996  0.00003447  0.00003628  0.00003995  0.00004380  0.00004890
    Gval  0.00004900  0.00005073  0.00005221  0.00005325  0.00005358  0.00005748  0.00005849  0.00005905
    Gval  0.00006211  0.00006499  0.00006563  0.00006832  0.00007006  0.00007291  0.00007577  0.00008146
    Gval  0.00008244  0.00008549  0.00008753  0.00008877  0.00008949  0.00009307  0.00009481  0.00009862
    Gval  0.00010569  0.00011668  0.00011803  0.00012017  0.00012243  0.00012395  0.00013112  0.00013563
    Gval  0.00013706  0.00013893  0.00014149  0.00015211  0.00015902  0.00015927  0.00016996  0.00017548
    Gval  0.00018191  0.00020240  0.00021893  0.00022369  0.00022809  0.00023131  0.00024658  0.00026114
    Gval  0.00026894  0.00028662  0.00028764  0.00028890  0.00029781  0.00029894  0.00034226  0.00035551
    Gval  0.00036302  0.00036911  0.00038106  0.00038490  0.00038585  0.00039004  0.00039195  0.00040588
    Gval  0.00041942  0.00042288  0.00043048  0.00043584  0.00044066  0.00044156  0.00045472  0.00046345
    Gval  0.00046904  0.00047211  0.00048854  0.00049464  0.00052300  0.00053345  0.00053729  0.00054348
    Gval  0.00055367  0.00055586  0.00055594  0.00057197  0.00058101  0.00059305  0.00059352  0.00059847
    Gval  0.00059865  0.00059924  0.00059958  0.00059985  0.00060022  0.00060221  0.00060428  0.00061993
    Gval  0.00062359  0.00063994  0.00064152  0.00064488  0.00064573  0.00064747  0.00064997  0.00066044
    Gval  0.00066958  0.00069315  0.00069701  0.00072963  0.00079345  0.00082017  0.00092237  0.00099142
    Gval  0.00099942  0.00104330  0.00108365  0.00109362  0.00109457  0.00109522  0.00109578  0.00111105
    Gval  0.00111361  0.00114169  0.00114623  0.00116347  0.00116437  0.00116488  0.00116625  0.00116676
    Gval  0.00116866  0.00116921  0.00117400  0.00117483  0.00118103  0.00121252  0.00125579  0.00129219
    Gval  0.00134757  0.00142772  0.00149523  0.00152027  0.00165049  0.00172382  0.00176745  0.00190297
    Gval  0.00194442  0.00227771  0.00234022  0.00234282  0.00235549  0.00249798  0.00252157  0.00254249
    Gval  0.00256744  0.00278018  0.00292482  0.00302219  0.00304258  0.00308292  0.00309193  0.00313773
    Gval  0.00365475  0.00366431  0.00366595  0.00371207  0.00371361  0.00374025  0.00375344  0.00393315
    Gval  0.00406701
  2.098297822806392E-007  2.098297822806392E-007
  4.654537402911981E-007  2.098297822806392E-007
  1.226513062289291E-006  2.098297822806392E-007
  1.456754392236782E-006  2.098297822806392E-007
  3.040132834380208E-006  2.098297822806392E-007
  3.886044975668418E-006  2.098297822806392E-007
  4.541018694331014E-006  2.098297822806392E-007
  6.245210457578453E-006  2.098297822806392E-007
  6.365833064290892E-006  2.098297822806392E-007
  8.670587212682427E-006  2.098297822806392E-007
  1.079815414291235E-005  2.098297822806392E-007
  1.147131849287615E-005  2.098297822806392E-007
  1.155693477549196E-005  2.098297822806392E-007
  1.494243596415290E-005  2.098297822806392E-007
  1.513862350564038E-005  2.098297822806392E-007
  1.598858254194951E-005  2.098297822806392E-007
  1.635627983077336E-005  2.098297822806392E-007
  1.798892137421714E-005  2.098297822806392E-007
  1.831537725854770E-005  2.098297822806392E-007
  1.965004969225703E-005  2.098297822806392E-007
  2.128803134676360E-005  2.098297822806392E-007
  2.162200019782834E-005  2.098297822806392E-007
  2.399850875424770E-005  2.098297822806392E-007
  2.484517944637198E-005  2.098297822806392E-007
  2.543222162827288E-005  2.098297822806392E-007
  2.876622229072252E-005  2.098297822806392E-007
  2.995639664436441E-005  2.098297822806392E-007
  3.447189202485887E-005  2.098297822806392E-007
  3.627749976742375E-005  2.098297822806392E-007
  3.994955612941966E-005  2.098297822806392E-007
  4.379958020291920E-005  2.098297822806392E-007
  4.889936798321487E-005  2.098297822806392E-007
  4.900304301722854E-005  2.098297822806392E-007
  5.072537299220448E-005  2.098297822806392E-007
  5.221192380130979E-005  2.098297822806392E-007
  5.325102036441730E-005  2.098297822806392E-007
  5.358009235733705E-005  2.098297822806392E-007
  5.748100834813898E-005  2.098297822806392E-007
  5.848541682314051E-005  2.098297822806392E-007
  5.905448468987572E-005  2.098297822806392E-007
  6.211185202737719E-005  2.098297822806392E-007
  6.499129317026305E-005  2.098297822806392E-007
  6.563065554686062E-005  2.098297822806392E-007
  6.831553332584371E-005  2.098297822806392E-007
  7.005711413087147E-005  2.098297822806392E-007
  7.290988547655905E-005  2.098297822806392E-007
  7.576518038715643E-005  2.098297822806392E-007
  8.146005766069031E-005  2.098297822806392E-007
  8.243845957165077E-005  2.098297822806392E-007
  8.549460791456967E-005  2.098297822806392E-007
  8.753080798790634E-005  2.098297822806392E-007
  8.877475073127557E-005  2.098297822806392E-007
  8.948938218490109E-005  2.098297822806392E-007
  9.307247585379526E-005  2.098297822806392E-007
  9.481065417404358E-005  2.098297822806392E-007
  9.861595507533023E-005  2.098297822806392E-007
  1.056853576153603E-004  2.098297822806392E-007
  1.166768546111252E-004  2.098297822806392E-007
  1.180328344479803E-004  2.098297822806392E-007
  1.201684367626276E-004  2.098297822806392E-007
  1.224296115766490E-004  2.098297822806392E-007
  1.239512661384842E-004  2.098297822806392E-007
  1.311206320504696E-004  2.098297822806392E-007
  1.356299178850190E-004  2.098297822806392E-007
  1.370623876635759E-004  2.098297822806392E-007
  1.389331778479306E-004  2.098297822806392E-007
  1.414934208661624E-004  2.098297822806392E-007
  1.521061250786295E-004  2.098297822806392E-007
  1.590247588118842E-004  2.098297822806392E-007
  1.592657922968339E-004  2.098297822806392E-007
  1.699613533222243E-004  2.098297822806392E-007
  1.754839743453846E-004  2.098297822806392E-007
  1.819112684901712E-004  2.098297822806392E-007
  2.023999723474220E-004  2.098297822806392E-007
  2.189305841661094E-004  2.098297822806392E-007
  2.236924336497741E-004  2.098297822806392E-007
  2.280881564830960E-004  2.098297822806392E-007
  2.313111095551313E-004  2.098297822806392E-007
  2.465781406383885E-004  2.098297822806392E-007
  2.611448665939464E-004  2.098297822806392E-007
  2.689370720856636E-004  2.098297822806392E-007
  2.866165981730042E-004  2.098297822806392E-007
  2.876359830371775E-004  2.098297822806392E-007
  2.889013147191649E-004  2.098297822806392E-007
  2.978053857833135E-004  2.098297822806392E-007
  2.989375380481475E-004  2.098297822806392E-007
  3.422562035195551E-004  2.098297822806392E-007
  3.555136180723653E-004  2.098297822806392E-007
  3.630213265713584E-004  2.098297822806392E-007
  3.691135739516837E-004  2.098297822806392E-007
  3.810564106864107E-004  2.098297822806392E-007
  3.849018329383764E-004  2.098297822806392E-007
  3.858541229462979E-004  2.098297822806392E-007
  3.900365259619921E-004  2.098297822806392E-007
  3.919526623186014E-004  2.098297822806392E-007
  4.058768809185733E-004  2.098297822806392E-007
  4.194245793671487E-004  2.098297822806392E-007
  4.228845696759770E-004  2.098297822806392E-007
  4.304759183758206E-004  2.098297822806392E-007
  4.358408584961046E-004  2.098297822806392E-007
  4.406574579791361E-004  2.098297822806392E-007
  4.415575552632562E-004  2.098297822806392E-007
  4.547187788666495E-004  2.098297822806392E-007
  4.634523346189174E-004  2.098297822806392E-007
  4.690447475249217E-004  2.098297822806392E-007
  4.721134409742662E-004  2.098297822806392E-007
  4.885424216089019E-004  2.098297822806392E-007
  4.946410930797483E-004  2.098297822806392E-007
  5.229972406825602E-004  2.098297822806392E-007
  5.334490849820259E-004  2.098297822806392E-007
  5.372908962642745E-004  2.098297822806392E-007
  5.434832770168142E-004  2.098297822806392E-007
  5.536680255839806E-004  2.098297822806392E-007
  5.558600755841619E-004  2.098297822806392E-007
  5.559352681298538E-004  2.098297822806392E-007
  5.719697314547625E-004  2.098297822806392E-007
  5.810147823607125E-004  2.098297822806392E-007
  5.930464639402486E-004  2.098297822806392E-007
  5.935180994096869E-004  2.098297822806392E-007
  5.984668558643791E-004  2.098297822806392E-007
  5.986546497519817E-004  2.098297822806392E-007
  5.992412137696509E-004  2.098297822806392E-007
  5.995839693818398E-004  2.098297822806392E-007
  5.998545670342803E-004  2.098297822806392E-007
  6.002183145759868E-004  2.098297822806392E-007
  6.022133451925323E-004  2.098297822806392E-007
  6.042765981802813E-004  2.098297822806392E-007
  6.199319011874414E-004  2.098297822806392E-007
  6.235866916558895E-004  2.098297822806392E-007
  6.399398014540198E-004  2.098297822806392E-007
  6.415185379938478E-004  2.098297822806392E-007
  6.448837095222598E-004  2.098297822806392E-007
  6.457297742517894E-004  2.098297822806392E-007
  6.474714057350523E-004  2.098297822806392E-007
  6.499704227679424E-004  2.098297822806392E-007
  6.604374662010283E-004  2.098297822806392E-007
  6.695794657901097E-004  2.098297822806392E-007
  6.931458794351945E-004  2.098297822806392E-007
  6.970082967185404E-004  2.098297822806392E-007
  7.296320298779826E-004  2.098297822806392E-007
  7.934529533730661E-004  2.098297822806392E-007
  8.201672999346400E-004  2.098297822806392E-007
  9.223669305862275E-004  2.098297822806392E-007
  9.914164600142313E-004  2.098297822806392E-007
  9.994180457320264E-004  2.098297822806392E-007
  1.043299938885550E-003  2.098297822806392E-007
  1.083646579305505E-003  2.098297822806392E-007
  1.093617492351127E-003  2.098297822806392E-007
  1.094567884037321E-003  2.098297822806392E-007
  1.095218974515960E-003  2.098297822806392E-007
  1.095776110465207E-003  2.098297822806392E-007
  1.111048600933636E-003  2.098297822806392E-007
  1.113610896383799E-003  2.098297822806392E-007
  1.141685178706004E-003  2.098297822806392E-007
  1.146232766798398E-003  2.098297822806392E-007
  1.163466247942124E-003  2.098297822806392E-007
  1.164374731274994E-003  2.098297822806392E-007
  1.164884457436858E-003  2.098297822806392E-007
  1.166246724987058E-003  2.098297822806392E-007
  1.166756797407229E-003  2.098297822806392E-007
  1.168658574865268E-003  2.098297822806392E-007
  1.169211675057776E-003  2.098297822806392E-007
  1.174002805689359E-003  2.098297822806392E-007
  1.174829496226371E-003  2.098297822806392E-007
  1.181029434782013E-003  2.098297822806392E-007
  1.212517517092804E-003  2.098297822806392E-007
  1.255787612769111E-003  2.098297822806392E-007
  1.292186139541498E-003  2.098297822806392E-007
  1.347572893290238E-003  2.098297822806392E-007
  1.427721263259555E-003  2.098297822806392E-007
  1.495225019123440E-003  2.098297822806392E-007
  1.520271932142953E-003  2.098297822806392E-007
  1.650485698920074E-003  2.098297822806392E-007
  1.723823443022744E-003  2.098297822806392E-007
  1.767450593819348E-003  2.098297822806392E-007
  1.902970593028982E-003  2.098297822806392E-007
  1.944424327094394E-003  2.098297822806392E-007
  2.277714518267336E-003  2.098297822806392E-007
  2.340219443229674E-003  2.098297822806392E-007
  2.342815558709738E-003  2.098297822806392E-007
  2.355490712435199E-003  2.098297822806392E-007
  2.497980918271136E-003  2.098297822806392E-007
  2.521570560563596E-003  2.098297822806392E-007
  2.542490451770839E-003  2.098297822806392E-007
  2.567437074336187E-003  2.098297822806392E-007
  2.780176348244270E-003  2.098297822806392E-007
  2.924816208348940E-003  2.098297822806392E-007
  3.022194223605040E-003  2.098297822806392E-007
  3.042581306838975E-003  2.098297822806392E-007
  3.082920790564669E-003  2.098297822806392E-007
  3.091927281376415E-003  2.098297822806392E-007
  3.137730515890181E-003  2.098297822806392E-007
  3.654750003320756E-003  2.098297822806392E-007
  3.664310863581802E-003  2.098297822806392E-007
  3.665952613194482E-003  2.098297822806392E-007
  3.712073590112702E-003  2.098297822806392E-007
  3.713609490554345E-003  2.098297822806392E-007
  3.740250035506973E-003  2.098297822806392E-007
  3.753443181094605E-003  2.098297822806392E-007
  3.933149525576580E-003  2.098297822806392E-007
  4.067011732486567E-003  2.098297822806392E-007
 cut=1d-8, nber non-redundant internal coords=         201
 Check on Eigenvals of non-red overlap matrix:
  0.00000021  0.00000047  0.00000123  0.00000146  0.00000304  0.00000389  0.00000454  0.00000625
  0.00000637  0.00000867  0.00001080  0.00001147  0.00001156  0.00001494  0.00001514  0.00001599
  0.00001636  0.00001799  0.00001832  0.00001965  0.00002129  0.00002162  0.00002400  0.00002485
  0.00002543  0.00002877  0.00002996  0.00003447  0.00003628  0.00003995  0.00004380  0.00004890
  0.00004900  0.00005073  0.00005221  0.00005325  0.00005358  0.00005748  0.00005849  0.00005905
  0.00006211  0.00006499  0.00006563  0.00006832  0.00007006  0.00007291  0.00007577  0.00008146
  0.00008244  0.00008549  0.00008753  0.00008877  0.00008949  0.00009307  0.00009481  0.00009862
  0.00010569  0.00011668  0.00011803  0.00012017  0.00012243  0.00012395  0.00013112  0.00013563
  0.00013706  0.00013893  0.00014149  0.00015211  0.00015902  0.00015927  0.00016996  0.00017548
  0.00018191  0.00020240  0.00021893  0.00022369  0.00022809  0.00023131  0.00024658  0.00026114
  0.00026894  0.00028662  0.00028764  0.00028890  0.00029781  0.00029894  0.00034226  0.00035551
  0.00036302  0.00036911  0.00038106  0.00038490  0.00038585  0.00039004  0.00039195  0.00040588
  0.00041942  0.00042288  0.00043048  0.00043584  0.00044066  0.00044156  0.00045472  0.00046345
  0.00046904  0.00047211  0.00048854  0.00049464  0.00052300  0.00053345  0.00053729  0.00054348
  0.00055367  0.00055586  0.00055594  0.00057197  0.00058101  0.00059305  0.00059352  0.00059847
  0.00059865  0.00059924  0.00059958  0.00059985  0.00060022  0.00060221  0.00060428  0.00061993
  0.00062359  0.00063994  0.00064152  0.00064488  0.00064573  0.00064747  0.00064997  0.00066044
  0.00066958  0.00069315  0.00069701  0.00072963  0.00079345  0.00082017  0.00092237  0.00099142
  0.00099942  0.00104330  0.00108365  0.00109362  0.00109457  0.00109522  0.00109578  0.00111105
  0.00111361  0.00114169  0.00114623  0.00116347  0.00116437  0.00116488  0.00116625  0.00116676
  0.00116866  0.00116921  0.00117400  0.00117483  0.00118103  0.00121252  0.00125579  0.00129219
  0.00134757  0.00142772  0.00149523  0.00152027  0.00165049  0.00172382  0.00176745  0.00190297
  0.00194442  0.00227771  0.00234022  0.00234282  0.00235549  0.00249798  0.00252157  0.00254249
  0.00256744  0.00278018  0.00292482  0.00302219  0.00304258  0.00308292  0.00309193  0.00313773
  0.00365475  0.00366431  0.00366595  0.00371207  0.00371361  0.00374025  0.00375344  0.00393315
  0.00406701
 Checking for correct frequencies
 recalc frequencies=
    -0.0   -0.0    0.0    0.0    0.0    0.0    9.5   20.7   21.2   30.1
    42.4   54.7   58.2   73.4   76.4   88.4   99.6  105.3  107.0  130.6
   144.9  168.2  169.6  179.9  195.2  210.4  212.7  230.8  234.8  236.4
   243.5  260.8  279.7  297.1  297.5  330.7  341.1  367.6  377.2  385.7
   390.4  395.3  400.9  417.0  421.9  433.6  435.5  442.7  448.2  453.4
   458.2  472.8  486.4  496.3  501.8  512.0  514.1  516.0  542.6  562.5
   579.1  582.1  591.7  607.7  623.2  624.3  628.5  632.4  660.0  667.0
   678.8  708.9  713.0  727.6  740.0  744.1  747.4  756.4  760.7  768.9
   785.6  796.9  797.7  803.1  808.8  815.8  820.4  821.8  826.8  832.6
   837.2  841.2  841.5  859.6  861.7  902.3  928.9  943.7  955.7  956.4
   971.1  971.5  974.5  980.5  981.3  983.6  984.9  988.1  996.0 1002.8
  1008.8 1010.0 1020.4 1024.7 1046.7 1068.1 1076.9 1094.2 1118.7 1144.6
  1146.6 1155.2 1164.4 1171.0 1174.6 1189.0 1189.5 1200.3 1204.9 1210.0
  1226.9 1234.7 1236.3 1247.0 1263.7 1283.1 1291.3 1294.9 1300.7 1317.4
  1330.4 1339.8 1349.9 1353.3 1359.7 1363.5 1368.4 1371.0 1384.2 1392.7
  1395.3 1397.8 1411.7 1424.9 1437.7 1457.7 1460.9 1470.8 1478.6 1483.3
  1484.1 1490.0 1496.1 1499.1 1501.3 1506.7 1523.6 1525.2 1536.2 1558.4
  1575.0 1576.0 1581.5 1591.3 1612.1 1614.1 1618.8 1632.1 1658.7 1683.6
  1705.9 1719.4 1750.1 3029.5 3034.1 3086.7 3089.9 3109.3 3131.8 3141.5
  3186.2 3192.2 3192.4 3194.5 3198.4 3198.6 3201.6 3206.0 3207.9 3208.1
  3208.4 3217.4 3218.4 3222.9 3223.0 3265.1 3265.6
 recalc symmetries=
                                                                       
                                                                       
                                                                       
                                                                       
                                                                       
                                                                       
                                                                       
                                                                       
                                                                       
                                                                       
                                                                       
                                                                       
                                                                       
                                                                       
                                                                       
                                                                       
                                                                       
                                                                       
                                                                       
                                                                       
                                                  
 recalc freqs check OK
 Zero-point lengths:
 10.0000 10.0000 10.0000 10.0000 10.0000 10.0000 80.6388 54.4848 53.8158 45.1536
 38.0880 33.5335 32.4872 28.9446 28.3658 26.3705 24.8385 24.1561 23.9624 21.6895
 20.5943 19.1157 19.0369 18.4854 17.7429 17.0905 16.9983 16.3174 16.1783 16.1249
 15.8859 15.3517 14.8223 14.3817 14.3739 13.6320 13.4225 12.9305 12.7645 12.6236
 12.5475 12.4696 12.3823 12.1405 12.0701 11.9060 11.8800 11.7828 11.7095 11.6421
 11.5817 11.4014 11.2414 11.1280 11.0676 10.9565 10.9336 10.9136 10.6430 10.4526
 10.3016 10.2750 10.1918 10.0566  9.9306  9.9218  9.8890  9.8581  9.6502  9.5991
  9.5155  9.3114  9.2846  9.1905  9.1131  9.0881  9.0680  9.0142  8.9883  8.9402
  8.8447  8.7822  8.7778  8.7479  8.7173  8.6797  8.6551  8.6481  8.6215  8.5915
  8.5680  8.5477  8.5459  8.4559  8.4455  8.2533  8.1343  8.0702  8.0192  8.0165
  7.9555  7.9537  7.9416  7.9172  7.9139  7.9046  7.8996  7.8868  7.8554  7.8287
  7.8053  7.8007  7.7609  7.7446  7.6627  7.5857  7.5547  7.4947  7.4120  7.3276
  7.3214  7.2939  7.2652  7.2445  7.2335  7.1896  7.1879  7.1558  7.1419  7.1269
  7.0778  7.0553  7.0508  7.0205  6.9738  6.9209  6.8989  6.8894  6.8739  6.8302
  6.7969  6.7729  6.7474  6.7390  6.7232  6.7139  6.7017  6.6954  6.6634  6.6429
  6.6369  6.6310  6.5982  6.5675  6.5383  6.4932  6.4860  6.4642  6.4472  6.4371
  6.4353  6.4224  6.4094  6.4029  6.3983  6.3868  6.3513  6.3480  6.3252  6.2799
  6.2469  6.2448  6.2339  6.2147  6.1744  6.1707  6.1617  6.1365  6.0871  6.0419
  6.0024  5.9787  5.9261  4.5041  4.5007  4.4622  4.4599  4.4459  4.4300  4.4231
  4.3920  4.3878  4.3877  4.3863  4.3836  4.3834  4.3814  4.3784  4.3771  4.3769
  4.3767  4.3706  4.3700  4.3669  4.3668  4.3386  4.3382
 highest evec of mol 1
  0.0000  0.0000 -0.0000
  0.0000 -0.0000  0.0000
  0.0000  0.0000  0.0000
  0.0000 -0.0000  0.0000
 -0.0000  0.0000 -0.0000
  0.0000  0.0000  0.0000
  0.0000 -0.0000  0.0000
 -0.0000 -0.0000 -0.0000
  0.0000 -0.0000  0.0001
 -0.0000  0.0000 -0.0001
  0.0000  0.0001  0.0001
 -0.0000 -0.0002 -0.0001
  0.0000 -0.0000  0.0001
 -0.0002 -0.0001 -0.0000
  0.0003 -0.0005  0.0004
  0.0013  0.0009  0.0005
 -0.0004  0.0022 -0.0003
  0.0077 -0.0076 -0.0013
 -0.1645  0.0996 -0.0745
 -0.0060  0.0152  0.0200
  0.0028 -0.0017 -0.0006
 -0.0002  0.0001  0.0000
 -0.0009  0.0011 -0.0008
  0.0000  0.0001  0.0001
  0.0000 -0.0000  0.0000
 -0.0001  0.0001 -0.0001
 -0.0003  0.0014  0.0007
 -0.0186  0.0076 -0.0153
 -0.0922  0.1376  0.1171
  0.0000 -0.0006 -0.0003
  0.0006  0.0005 -0.0015
 -0.0001 -0.0000  0.0002
  0.0000 -0.0001 -0.0001
  0.0001 -0.0002  0.0001
 -0.0000  0.0000 -0.0001
  0.0000  0.0000  0.0001
 -0.0000 -0.0000 -0.0000
  0.0000 -0.0000  0.0000
 -0.0000 -0.0000 -0.0000
  0.0000  0.0000  0.0000
 -0.0000 -0.0000 -0.0000
 -0.0000  0.0000 -0.0000
  0.0000 -0.0000  0.0000
  0.0001 -0.0000 -0.0000
 -0.0001  0.0000  0.0000
 -0.0000 -0.0000 -0.0000
  0.0000 -0.0000  0.0000
 -0.0000 -0.0000  0.0000
 -0.0000  0.0000 -0.0000
 -0.0000 -0.0000  0.0000
 -0.0000 -0.0000 -0.0000
 -0.0000  0.0000 -0.0000
  0.0000  0.0001  0.0000
 -0.0000  0.0001 -0.0001
  0.0001  0.0007  0.0002
  0.0000  0.0001 -0.0001
  0.5376 -0.3355  0.2419
  0.0321 -0.0478 -0.0411
  0.0031 -0.0040  0.0029
  0.0001 -0.0004 -0.0002
 -0.0000 -0.0000  0.0000
  0.0003 -0.0003  0.0002
  0.0010 -0.0050 -0.0025
  0.0553 -0.0331  0.0251
  0.3034 -0.4582 -0.3782
  0.0001  0.0001  0.0001
 -0.0002  0.0005 -0.0004
  0.0000  0.0001  0.0000
 -0.0000  0.0001 -0.0001
 generating redundant internal coords
         300        3600          69
 Adding extra bonds for z output only
           6           6           6           7           6           8
           6           6           6           6           6           6
           6           6           6           8           7           6
           6           6           6           6           6           6
           6           6           6           6           6           6
           8           6           6           6           6           6
           6           6           6           6           8           6
           6           6           6           1           1           1
           1           1           1           1           1           1
           1           1           1           1           1           1
           1           1           1           1           1           1
           1           1           1
 search for int coords
   1 str   2   1   1.533
   2 str   3   2   1.533
   3 str   4   2   1.493
   4 str   5   4   1.412
   5 str   6   5   1.224
   6 str   7   5   1.470
   7 str   8   7   1.395
   8 str   9   8   1.382
   9 str  10   9   1.413
  10 str  11  10   1.447
  11 str  12  11   1.418
  12 str  13  12   1.372
  13 str  14  13   1.407
  14 str  15  14   1.441
  15 str  16  15   1.221
  16 str  17  15   1.459
  17 str  18  17   1.395
  18 str  19  18   1.422
  19 str  20  19   1.370
  20 str  21  20   1.425
  21 str  22  21   1.448
  22 str  23  22   1.420
  23 str  24  23   1.381
  24 str  25  24   1.399
  25 str  26  25   1.399
  26 str  27  22   1.420
  27 str  27  26   1.381
  28 str  28  21   1.425
  29 str  29  18   1.422
  30 str  29  28   1.370
  31 str  30  17   1.459
  32 str  31  30   1.221
  33 str  32  30   1.441
  34 str  33  32   1.407
  35 str  34  33   1.372
  36 str  35  34   1.418
  37 str  36  35   1.447
  38 str  37  36   1.413
  39 str  38  37   1.382
  40 str  39  38   1.395
  41 str  40   4   1.404
  42 str  40  39   1.471
  43 str  41  40   1.225
  44 str  42   7   1.412
  45 str  42  39   1.412
  46 str  43  10   1.428
  47 str  43  36   1.428
  48 str  43  42   1.433
  49 str  44  11   1.430
  50 str  44  35   1.430
  51 str  45  14   1.415
  52 str  45  32   1.415
  53 str  45  44   1.440
  54 str  46   1   1.094
  55 str  47   1   1.089
  56 str  48   1   1.093
  57 str  49   2   1.088
  58 str  50   3   1.089
  59 str  51   3   1.094
  60 str  52   3   1.093
  61 str  53   8   1.083
  62 str  54   9   1.081
  63 str  55  12   1.080
  64 str  56  13   1.082
  65 str  57  19   1.077
  66 str  58  20   1.081
  67 str  59  23   1.081
  68 str  60  24   1.083
  69 str  61  25   1.083
  70 str  62  26   1.083
  71 str  63  27   1.081
  72 str  64  28   1.081
  73 str  65  29   1.077
  74 str  66  33   1.082
  75 str  67  34   1.080
  76 str  68  37   1.081
  77 str  69  38   1.083
 nber stretches=          77
  78 ben   1   2   3
  79 prop tor   1   2   3  50
  80 prop tor   1   2   3  51
  81 prop tor   1   2   3  52
  82 ben   1   2   4
  83 prop tor   1   2   4   5
  84 prop tor   1   2   4  40
  85 ben   1   2  49
  86 ben   2   1  46
  87 ben   2   1  47
  88 ben   2   1  48
  89 ben   2   3  50
  90 ben   2   3  51
  91 ben   2   3  52
  92 ben   2   4   5
  93 prop tor   2   4   5   6
  94 prop tor   2   4   5   7
  95 ben   2   4  40
  96 prop tor   2   4  40  39
  97 prop tor   2   4  40  41
  98 ben   3   2   4
  99 prop tor   3   2   4   5
 100 prop tor   3   2   4  40
 101 ben   3   2  49
 102 prop tor   4   2   3  50
 103 prop tor   4   2   3  51
 104 prop tor   4   2   3  52
 105 ben   4   2  49
 106 ben   4   5   6
 107 ben   4   5   7
 108 prop tor   4   5   7   8
 109 prop tor   4   5   7  42
 110 ben   4  40  39
 111 ben   4  40  41
 112 ben   5   4  40
 113 prop tor   5   4  40  39
 114 prop tor   5   4  40  41
 115 ben   5   7   8
 116 prop tor   5   7   8   9
 117 prop tor   5   7   8  53
 118 ben   5   7  42
 119 prop tor   5   7  42  39
 120 prop tor   5   7  42  43
 121 ben   6   5   7
 122 prop tor   6   5   7   8
 123 prop tor   6   5   7  42
 124 ben   7   8   9
 125 prop tor   7   8   9  10
 126 prop tor   7   8   9  54
 127 ben   7   8  53
 128 ben   7  42  39
 129 ben   7  42  43
 130 prop tor   7  42  43  10
 131 prop tor   7  42  43  36
 132 ben   8   7  42
 133 prop tor   8   7  42  39
 134 prop tor   8   7  42  43
 135 ben   8   9  10
 136 prop tor   8   9  10  11
 137 prop tor   8   9  10  43
 138 ben   8   9  54
 139 ben   9   8  53
 140 ben   9  10  11
 141 prop tor   9  10  11  12
 142 prop tor   9  10  11  44
 143 ben   9  10  43
 144 prop tor   9  10  43  36
 145 prop tor   9  10  43  42
 146 ben  10   9  54
 147 ben  10  11  12
 148 prop tor  10  11  12  13
 149 prop tor  10  11  12  55
 150 ben  10  11  44
 151 prop tor  10  11  44  35
 152 prop tor  10  11  44  45
 153 ben  10  43  36
 154 ben  10  43  42
 155 ben  11  10  43
 156 prop tor  11  10  43  36
 157 prop tor  11  10  43  42
 158 ben  11  12  13
 159 prop tor  11  12  13  14
 160 prop tor  11  12  13  56
 161 ben  11  12  55
 162 ben  11  44  35
 163 ben  11  44  45
 164 prop tor  11  44  45  14
 165 prop tor  11  44  45  32
 166 ben  12  11  44
 167 prop tor  12  11  44  35
 168 prop tor  12  11  44  45
 169 ben  12  13  14
 170 prop tor  12  13  14  15
 171 prop tor  12  13  14  45
 172 ben  12  13  56
 173 ben  13  12  55
 174 ben  13  14  15
 175 prop tor  13  14  15  16
 176 prop tor  13  14  15  17
 177 ben  13  14  45
 178 prop tor  13  14  45  32
 179 prop tor  13  14  45  44
 180 ben  14  13  56
 181 ben  14  15  16
 182 ben  14  15  17
 183 prop tor  14  15  17  18
 184 prop tor  14  15  17  30
 185 ben  14  45  32
 186 ben  14  45  44
 187 ben  15  14  45
 188 prop tor  15  14  45  32
 189 prop tor  15  14  45  44
 190 ben  15  17  18
 191 prop tor  15  17  18  19
 192 prop tor  15  17  18  29
 193 ben  15  17  30
 194 prop tor  15  17  30  31
 195 prop tor  15  17  30  32
 196 ben  16  15  17
 197 prop tor  16  15  17  18
 198 prop tor  16  15  17  30
 199 ben  17  18  19
 200 prop tor  17  18  19  20
 201 prop tor  17  18  19  57
 202 ben  17  18  29
 203 prop tor  17  18  29  28
 204 prop tor  17  18  29  65
 205 ben  17  30  31
 206 ben  17  30  32
 207 prop tor  17  30  32  33
 208 prop tor  17  30  32  45
 209 ben  18  17  30
 210 prop tor  18  17  30  31
 211 prop tor  18  17  30  32
 212 ben  18  19  20
 213 prop tor  18  19  20  21
 214 prop tor  18  19  20  58
 215 ben  18  19  57
 216 ben  18  29  28
 217 ben  18  29  65
 218 ben  19  18  29
 219 prop tor  19  18  29  28
 220 prop tor  19  18  29  65
 221 ben  19  20  21
 222 prop tor  19  20  21  22
 223 prop tor  19  20  21  28
 224 ben  19  20  58
 225 ben  20  19  57
 226 ben  20  21  22
 227 prop tor  20  21  22  23
 228 prop tor  20  21  22  27
 229 ben  20  21  28
 230 prop tor  20  21  28  29
 231 prop tor  20  21  28  64
 232 ben  21  20  58
 233 ben  21  22  23
 234 prop tor  21  22  23  24
 235 prop tor  21  22  23  59
 236 ben  21  22  27
 237 prop tor  21  22  27  26
 238 prop tor  21  22  27  63
 239 ben  21  28  29
 240 prop tor  21  28  29  18
 241 prop tor  21  28  29  65
 242 ben  21  28  64
 243 ben  22  21  28
 244 prop tor  22  21  28  29
 245 prop tor  22  21  28  64
 246 ben  22  23  24
 247 prop tor  22  23  24  25
 248 prop tor  22  23  24  60
 249 ben  22  23  59
 250 ben  22  27  26
 251 ben  22  27  63
 252 ben  23  22  27
 253 prop tor  23  22  27  26
 254 prop tor  23  22  27  63
 255 ben  23  24  25
 256 prop tor  23  24  25  26
 257 prop tor  23  24  25  61
 258 ben  23  24  60
 259 ben  24  23  59
 260 ben  24  25  26
 261 prop tor  24  25  26  27
 262 prop tor  24  25  26  62
 263 ben  24  25  61
 264 ben  25  24  60
 265 ben  25  26  27
 266 prop tor  25  26  27  22
 267 prop tor  25  26  27  63
 268 ben  25  26  62
 269 ben  26  25  61
 270 ben  26  27  63
 271 prop tor  27  22  23  24
 272 prop tor  27  22  23  59
 273 ben  27  26  62
 274 prop tor  28  21  22  23
 275 prop tor  28  21  22  27
 276 ben  28  29  65
 277 prop tor  29  18  19  20
 278 prop tor  29  18  19  57
 279 ben  29  28  64
 280 prop tor  30  17  18  19
 281 prop tor  30  17  18  29
 282 ben  30  32  33
 283 prop tor  30  32  33  34
 284 prop tor  30  32  33  66
 285 ben  30  32  45
 286 prop tor  30  32  45  14
 287 prop tor  30  32  45  44
 288 ben  31  30  32
 289 prop tor  31  30  32  33
 290 prop tor  31  30  32  45
 291 ben  32  33  34
 292 prop tor  32  33  34  35
 293 prop tor  32  33  34  67
 294 ben  32  33  66
 295 ben  32  45  44
 296 ben  33  32  45
 297 prop tor  33  32  45  14
 298 prop tor  33  32  45  44
 299 ben  33  34  35
 300 prop tor  33  34  35  36
 301 prop tor  33  34  35  44
 302 ben  33  34  67
 303 ben  34  33  66
 304 ben  34  35  36
 305 prop tor  34  35  36  37
 306 prop tor  34  35  36  43
 307 ben  34  35  44
 308 prop tor  34  35  44  11
 309 prop tor  34  35  44  45
 310 ben  35  34  67
 311 ben  35  36  37
 312 prop tor  35  36  37  38
 313 prop tor  35  36  37  68
 314 ben  35  36  43
 315 prop tor  35  36  43  10
 316 prop tor  35  36  43  42
 317 ben  35  44  45
 318 prop tor  35  44  45  14
 319 prop tor  35  44  45  32
 320 ben  36  35  44
 321 prop tor  36  35  44  11
 322 prop tor  36  35  44  45
 323 ben  36  37  38
 324 prop tor  36  37  38  39
 325 prop tor  36  37  38  69
 326 ben  36  37  68
 327 ben  36  43  42
 328 ben  37  36  43
 329 prop tor  37  36  43  10
 330 prop tor  37  36  43  42
 331 ben  37  38  39
 332 prop tor  37  38  39  40
 333 prop tor  37  38  39  42
 334 ben  37  38  69
 335 ben  38  37  68
 336 ben  38  39  40
 337 prop tor  38  39  40   4
 338 prop tor  38  39  40  41
 339 ben  38  39  42
 340 prop tor  38  39  42   7
 341 prop tor  38  39  42  43
 342 ben  39  38  69
 343 ben  39  40  41
 344 ben  39  42  43
 345 prop tor  39  42  43  10
 346 prop tor  39  42  43  36
 347 prop tor  40   4   5   6
 348 prop tor  40   4   5   7
 349 ben  40  39  42
 350 prop tor  40  39  42   7
 351 prop tor  40  39  42  43
 352 prop tor  42   7   8   9
 353 prop tor  42   7   8  53
 354 prop tor  42  39  40   4
 355 prop tor  42  39  40  41
 356 prop tor  43  10  11  12
 357 prop tor  43  10  11  44
 358 prop tor  43  36  37  38
 359 prop tor  43  36  37  68
 360 prop tor  44  11  12  13
 361 prop tor  44  11  12  55
 362 prop tor  44  35  36  37
 363 prop tor  44  35  36  43
 364 prop tor  45  14  15  16
 365 prop tor  45  14  15  17
 366 prop tor  45  32  33  34
 367 prop tor  45  32  33  66
 368 prop tor  46   1   2   3
 369 prop tor  46   1   2   4
 370 prop tor  46   1   2  49
 371 ben  46   1  47
 372 ben  46   1  48
 373 prop tor  47   1   2   3
 374 prop tor  47   1   2   4
 375 prop tor  47   1   2  49
 376 ben  47   1  48
 377 prop tor  48   1   2   3
 378 prop tor  48   1   2   4
 379 prop tor  48   1   2  49
 380 prop tor  49   2   3  50
 381 prop tor  49   2   3  51
 382 prop tor  49   2   3  52
 383 prop tor  49   2   4   5
 384 prop tor  49   2   4  40
 385 ben  50   3  51
 386 ben  50   3  52
 387 ben  51   3  52
 388 prop tor  53   8   9  10
 389 prop tor  53   8   9  54
 390 prop tor  54   9  10  11
 391 prop tor  54   9  10  43
 392 prop tor  55  12  13  14
 393 prop tor  55  12  13  56
 394 prop tor  56  13  14  15
 395 prop tor  56  13  14  45
 396 prop tor  57  19  20  21
 397 prop tor  57  19  20  58
 398 prop tor  58  20  21  22
 399 prop tor  58  20  21  28
 400 prop tor  59  23  24  25
 401 prop tor  59  23  24  60
 402 prop tor  60  24  25  26
 403 prop tor  60  24  25  61
 404 prop tor  61  25  26  27
 405 prop tor  61  25  26  62
 406 prop tor  62  26  27  22
 407 prop tor  62  26  27  63
 408 prop tor  64  28  29  18
 409 prop tor  64  28  29  65
 410 prop tor  66  33  34  35
 411 prop tor  66  33  34  67
 412 prop tor  67  34  35  36
 413 prop tor  67  34  35  44
 414 prop tor  68  37  38  39
 415 prop tor  68  37  38  69
 416 prop tor  69  38  39  40
 417 prop tor  69  38  39  42
 nber bend=             132
 nber lin bend=           0
 nber prop tor=         208
 nber impr tor=           0
 nber tot redund int=         417
 Reading file: 
 ./PDI_7_C-1S0.log                                                              
                                          
  Entering Gaussian System, Link 0=g16                                          
  
 Gaussian format, type: g94, g98, g03= F F F
  #P Geom=AllCheck Guess=TCheck SCRF=Check GenChk UB3LYP/6-311G(d,p) Fre    
 energy type= B3LYP   
 Original G94 input coords:
  6  1.028533 -0.184617 -0.417081
  6  2.523034 -0.179818 -0.073045
  6  3.420375  0.055890 -1.294159
  7  2.836273  0.758630  1.038286
  6  3.333712  0.184496  2.232758
  8  3.490632 -1.031261  2.322951
  6  3.642138  1.103583  3.327170
  6  4.136509  0.594341  4.533173
  6  4.437561  1.433242  5.586053
  6  4.262985  2.834878  5.498714
  6  4.574999  3.724917  6.596542
  6  5.075774  3.253344  7.833438
  6  5.371431  4.109568  8.872550
  6  5.184533  5.490908  8.741933
  6  5.513062  6.361064  9.867221
  8  5.953771  5.955257 10.935360
  7  5.291721  7.751799  9.669405
  6  5.599899  8.635535 10.760395
  6  4.607012  9.438384 11.318424
  6  4.907385 10.294634 12.370326
  6  6.203425 10.366992 12.899653
  6  6.521241 11.278694 14.026566
  6  5.966038 12.565871 14.095554
  6  6.262682 13.420616 15.153084
  6  7.125121 13.011069 16.168166
  6  7.686039 11.736568 16.113982
  6  7.386614 10.881345 15.057624
  6  7.189318  9.549659 12.329490
  6  6.894570  8.698492 11.271868
  6  4.787954  8.334015  8.473839
  8  4.629914  9.546218  8.400445
  6  4.487931  7.409207  7.384686
  6  3.995033  7.917188  6.176790
  6  3.696347  7.077970  5.124697
  6  3.871024  5.676423  5.214497
  6  3.558532  4.786226  4.116670
  6  3.057112  5.255465  2.879454
  6  2.762502  4.397421  1.840026
  6  2.950725  3.017526  1.972435
  6  2.627570  2.137114  0.849342
  8  2.191990  2.559697 -0.221084
  6  3.449539  2.496851  3.187783
  6  3.759648  3.380073  4.276921
  6  4.374160  5.131810  6.437228
  6  4.683954  6.015584  7.527361
  1  0.825192 -0.983449 -1.137683
  1  0.717591  0.766959 -0.846380
  1  0.431943 -0.380656  0.477999
  1  2.774764 -1.151678  0.346902
  1  3.210864  1.017930 -1.760093
  1  3.250535 -0.739109 -2.027557
  1  4.474221  0.025196 -1.004362
  1  4.275437 -0.476609  4.615036
  1  4.817049  0.994698  6.498687
  1  5.235542  2.194033  7.979891
  1  5.755043  3.734923  9.813590
  1  3.601584  9.393727 10.921910
  1  4.116629 10.895663 12.805199
  1  5.315291 12.904991 13.297655
  1  5.826160 14.413479 15.178675
  1  7.357351 13.677294 16.991789
  1  8.352055 11.402124 16.902370
  1  7.807338  9.882453 15.039963
  1  8.207178  9.600146 12.699709
  1  7.666975  8.074625 10.842609
  1  3.855388  8.988082  6.094569
  1  3.318347  7.515023  4.210796
  1  2.895730  6.314419  2.731724
  1  2.379191  4.770688  0.898334
 nber atoms=          69
  SCF Done:  E(UB3LYP) =  -1911.70358107     A.U. after    2 cycles             
  
          23          40 "  -1911.70358107"
After scan for Atom:   Atom  AN      X      Y      Z        X      Y      Z        X      Y      Z   
After scan for Atom:   Atom  AN      X      Y      Z        X      Y      Z        X      Y      Z   
After scan for Atom:   Atom  AN      X      Y      Z        X      Y      Z        X      Y      Z   
After scan for Atom:   Atom  AN      X      Y      Z        X      Y      Z        X      Y      Z   
After scan for Atom:   Atom  AN      X      Y      Z        X      Y      Z        X      Y      Z   
After scan for Atom:   Atom  AN      X      Y      Z        X      Y      Z        X      Y      Z   
After scan for Atom:   Atom  AN      X      Y      Z        X      Y      Z        X      Y      Z   
After scan for Atom:   Atom  AN      X      Y      Z        X      Y      Z        X      Y      Z   
After scan for Atom:   Atom  AN      X      Y      Z        X      Y      Z        X      Y      Z   
After scan for Atom:   Atom  AN      X      Y      Z        X      Y      Z        X      Y      Z   
After scan for Atom:   Atom  AN      X      Y      Z        X      Y      Z        X      Y      Z   
After scan for Atom:   Atom  AN      X      Y      Z        X      Y      Z        X      Y      Z   
After scan for Atom:   Atom  AN      X      Y      Z        X      Y      Z        X      Y      Z   
After scan for Atom:   Atom  AN      X      Y      Z        X      Y      Z        X      Y      Z   
After scan for Atom:   Atom  AN      X      Y      Z        X      Y      Z        X      Y      Z   
After scan for Atom:   Atom  AN      X      Y      Z        X      Y      Z        X      Y      Z   
After scan for Atom:   Atom  AN      X      Y      Z        X      Y      Z        X      Y      Z   
After scan for Atom:   Atom  AN      X      Y      Z        X      Y      Z        X      Y      Z   
After scan for Atom:   Atom  AN      X      Y      Z        X      Y      Z        X      Y      Z   
After scan for Atom:   Atom  AN      X      Y      Z        X      Y      Z        X      Y      Z   
After scan for Atom:   Atom  AN      X      Y      Z        X      Y      Z        X      Y      Z   
After scan for Atom:   Atom  AN      X      Y      Z        X      Y      Z        X      Y      Z   
After scan for Atom:   Atom  AN      X      Y      Z        X      Y      Z        X      Y      Z   
After scan for Atom:   Atom  AN      X      Y      Z        X      Y      Z        X      Y      Z   
After scan for Atom:   Atom  AN      X      Y      Z        X      Y      Z        X      Y      Z   
After scan for Atom:   Atom  AN      X      Y      Z        X      Y      Z        X      Y      Z   
After scan for Atom:   Atom  AN      X      Y      Z        X      Y      Z        X      Y      Z   
After scan for Atom:   Atom  AN      X      Y      Z        X      Y      Z        X      Y      Z   
After scan for Atom:   Atom  AN      X      Y      Z        X      Y      Z        X      Y      Z   
After scan for Atom:   Atom  AN      X      Y      Z        X      Y      Z        X      Y      Z   
After scan for Atom:   Atom  AN      X      Y      Z        X      Y      Z        X      Y      Z   
After scan for Atom:   Atom  AN      X      Y      Z        X      Y      Z        X      Y      Z   
After scan for Atom:   Atom  AN      X      Y      Z        X      Y      Z        X      Y      Z   
After scan for Atom:   Atom  AN      X      Y      Z        X      Y      Z        X      Y      Z   
After scan for Atom:   Atom  AN      X      Y      Z        X      Y      Z        X      Y      Z   
After scan for Atom:   Atom  AN      X      Y      Z        X      Y      Z        X      Y      Z   
After scan for Atom:   Atom  AN      X      Y      Z        X      Y      Z        X      Y      Z   
After scan for Atom:   Atom  AN      X      Y      Z        X      Y      Z        X      Y      Z   
After scan for Atom:   Atom  AN      X      Y      Z        X      Y      Z        X      Y      Z   
After scan for Atom:   Atom  AN      X      Y      Z        X      Y      Z        X      Y      Z   
After scan for Atom:   Atom  AN      X      Y      Z        X      Y      Z        X      Y      Z   
After scan for Atom:   Atom  AN      X      Y      Z        X      Y      Z        X      Y      Z   
After scan for Atom:   Atom  AN      X      Y      Z        X      Y      Z        X      Y      Z   
After scan for Atom:   Atom  AN      X      Y      Z        X      Y      Z        X      Y      Z   
After scan for Atom:   Atom  AN      X      Y      Z        X      Y      Z        X      Y      Z   
After scan for Atom:   Atom  AN      X      Y      Z        X      Y      Z        X      Y      Z   
After scan for Atom:   Atom  AN      X      Y      Z        X      Y      Z        X      Y      Z   
After scan for Atom:   Atom  AN      X      Y      Z        X      Y      Z        X      Y      Z   
After scan for Atom:   Atom  AN      X      Y      Z        X      Y      Z        X      Y      Z   
After scan for Atom:   Atom  AN      X      Y      Z        X      Y      Z        X      Y      Z   
After scan for Atom:   Atom  AN      X      Y      Z        X      Y      Z        X      Y      Z   
After scan for Atom:   Atom  AN      X      Y      Z        X      Y      Z        X      Y      Z   
After scan for Atom:   Atom  AN      X      Y      Z        X      Y      Z        X      Y      Z   
After scan for Atom:   Atom  AN      X      Y      Z        X      Y      Z        X      Y      Z   
After scan for Atom:   Atom  AN      X      Y      Z        X      Y      Z        X      Y      Z   
After scan for Atom:   Atom  AN      X      Y      Z        X      Y      Z        X      Y      Z   
After scan for Atom:   Atom  AN      X      Y      Z        X      Y      Z        X      Y      Z   
After scan for Atom:   Atom  AN      X      Y      Z        X      Y      Z        X      Y      Z   
After scan for Atom:   Atom  AN      X      Y      Z        X      Y      Z        X      Y      Z   
After scan for Atom:   Atom  AN      X      Y      Z        X      Y      Z        X      Y      Z   
After scan for Atom:   Atom  AN      X      Y      Z        X      Y      Z        X      Y      Z   
After scan for Atom:   Atom  AN      X      Y      Z        X      Y      Z        X      Y      Z   
After scan for Atom:   Atom  AN      X      Y      Z        X      Y      Z        X      Y      Z   
After scan for Atom:   Atom  AN      X      Y      Z        X      Y      Z        X      Y      Z   
After scan for Atom:   Atom  AN      X      Y      Z        X      Y      Z        X      Y      Z   
After scan for Atom:   Atom  AN      X      Y      Z        X      Y      Z        X      Y      Z   
After scan for Atom:   Atom  AN      X      Y      Z        X      Y      Z        X      Y      Z   
 g94    frequencies=
     0.0    0.0    0.0    0.0    0.0    0.0   10.5   20.9   21.2   30.7
    32.3   56.7   60.4   70.3   76.5   82.2   91.3   93.4  105.5  125.5
   129.7  151.9  170.5  188.5  197.4  202.2  214.2  224.3  234.4  234.8
   247.5  265.1  285.3  295.4  301.2  323.3  344.0  361.1  371.8  393.3
   397.4  416.8  418.1  424.4  426.4  435.4  437.4  442.7  445.1  454.2
   469.5  476.6  503.5  504.5  511.2  515.5  517.2  527.8  544.1  568.5
   579.6  582.9  592.3  623.2  625.2  633.7  641.4  652.5  658.3  664.3
   708.6  713.4  714.0  726.9  740.6  747.0  749.0  749.9  756.3  766.3
   778.2  783.2  802.0  803.5  809.6  810.4  817.1  823.2  827.7  831.2
   831.4  839.6  848.9  855.6  863.3  909.5  927.8  930.9  941.9  953.5
   956.7  963.7  964.5  967.2  973.8  976.5  979.0  980.0  987.6  993.7
  1014.3 1026.1 1041.9 1061.7 1065.5 1079.8 1089.6 1101.2 1124.4 1142.0
  1145.8 1154.4 1155.4 1164.8 1173.6 1179.2 1184.8 1195.7 1201.6 1201.8
  1207.6 1223.6 1233.4 1243.3 1253.8 1266.2 1295.4 1295.9 1302.5 1308.3
  1313.8 1325.6 1337.8 1342.8 1354.7 1355.9 1364.9 1371.8 1382.8 1388.0
  1392.0 1396.5 1406.1 1421.9 1435.3 1435.8 1463.6 1468.4 1472.4 1478.7
  1481.9 1482.3 1493.6 1507.5 1520.8 1524.0 1529.4 1549.2 1561.8 1571.9
  1575.7 1591.1 1602.6 1609.1 1617.0 1621.7 1626.4 1642.3 1650.0 1665.2
  1683.3 1701.6 1721.2 3022.1 3027.5 3080.2 3083.2 3104.1 3129.3 3138.4
  3151.9 3160.3 3168.0 3168.2 3173.9 3180.4 3182.0 3182.2 3185.8 3189.7
  3189.9 3199.5 3199.7 3206.0 3207.1 3211.8 3212.1
 g94    symmetries=
                                                 A      A      A      A
       A      A      A      A      A      A      A      A      A      A
       A      A      A      A      A      A      A      A      A      A
       A      A      A      A      A      A      A      A      A      A
       A      A      A      A      A      A      A      A      A      A
       A      A      A      A      A      A      A      A      A      A
       A      A      A      A      A      A      A      A      A      A
       A      A      A      A      A      A      A      A      A      A
       A      A      A      A      A      A      A      A      A      A
       A      A      A      A      A      A      A      A      A      A
       A      A      A      A      A      A      A      A      A      A
       A      A      A      A      A      A      A      A      A      A
       A      A      A      A      A      A      A      A      A      A
       A      A      A      A      A      A      A      A      A      A
       A      A      A      A      A      A      A      A      A      A
       A      A      A      A      A      A      A      A      A      A
       A      A      A      A      A      A      A      A      A      A
       A      A      A      A      A      A      A      A      A      A
       A      A      A      A      A      A      A      A      A      A
       A      A      A      A      A      A      A      A      A      A
       A      A      A      A      A      A      A
 atomic masses:
 12.0000 12.0000 12.0000 14.0031 12.0000 15.9949 12.0000 12.0000 12.0000 12.0000
 12.0000 12.0000 12.0000 12.0000 12.0000 15.9949 14.0031 12.0000 12.0000 12.0000
 12.0000 12.0000 12.0000 12.0000 12.0000 12.0000 12.0000 12.0000 12.0000 12.0000
 15.9949 12.0000 12.0000 12.0000 12.0000 12.0000 12.0000 12.0000 12.0000 12.0000
 15.9949 12.0000 12.0000 12.0000 12.0000  1.0078  1.0078  1.0078  1.0078  1.0078
  1.0078  1.0078  1.0078  1.0078  1.0078  1.0078  1.0078  1.0078  1.0078  1.0078
  1.0078  1.0078  1.0078  1.0078  1.0078  1.0078  1.0078  1.0078  1.0078
 looking for force constants in 
 ./PDI_7_C-1S0.fchk                                                             
  
 Cartesian Force Constants                  R   N=       21528                  
  
 n3=         207       21528
 g94-fc frequencies=
    -1.8   -1.2   -0.0    0.0    0.0    0.5   10.5   20.9   21.2   30.7
    32.3   56.7   60.4   70.3   76.5   82.2   91.3   93.4  105.5  125.5
   129.7  151.9  170.6  188.5  197.4  202.2  214.2  224.4  234.4  234.8
   247.5  265.1  285.3  295.4  301.2  323.4  344.0  361.2  371.8  393.3
   397.4  416.8  418.1  424.4  426.4  435.5  437.5  442.7  445.2  454.2
   469.5  476.6  503.5  504.5  511.2  515.5  517.2  527.8  544.1  568.6
   579.6  582.9  592.3  623.2  625.2  633.7  641.4  652.5  658.4  664.3
   708.6  713.4  714.1  726.9  740.6  747.0  749.0  749.9  756.3  766.3
   778.3  783.2  802.0  803.5  809.6  810.5  817.2  823.2  827.7  831.2
   831.4  839.6  848.9  855.6  863.3  909.5  927.9  931.0  942.0  953.5
   956.8  963.7  964.5  967.2  973.8  976.5  979.1  980.0  987.6  993.7
  1014.3 1026.1 1042.0 1061.7 1065.6 1079.9 1089.6 1101.2 1124.4 1142.0
  1145.9 1154.4 1155.4 1164.8 1173.6 1179.2 1184.8 1195.7 1201.7 1201.8
  1207.6 1223.6 1233.5 1243.4 1253.9 1266.2 1295.4 1295.9 1302.5 1308.3
  1313.8 1325.6 1337.8 1342.8 1354.7 1356.0 1365.0 1371.8 1382.9 1388.0
  1392.0 1396.6 1406.1 1422.0 1435.3 1435.9 1463.6 1468.4 1472.4 1478.7
  1481.9 1482.3 1493.6 1507.5 1520.8 1524.0 1529.5 1549.2 1561.8 1572.0
  1575.8 1591.2 1602.6 1609.1 1617.0 1621.7 1626.5 1642.4 1650.1 1665.2
  1683.3 1701.7 1721.2 3022.1 3027.6 3080.3 3083.3 3104.2 3129.4 3138.5
  3152.0 3160.4 3168.1 3168.3 3174.0 3180.4 3182.1 3182.3 3185.8 3189.8
  3190.0 3199.6 3199.8 3206.1 3207.2 3211.8 3212.2
 at 99999: n3=         207
 symm operator            1 :  F  nop=           0
 symm operator            2 :  F  nop=           0
 symm operator            3 :  F  nop=           0
 symm operator            4 :  F  nop=           0
 symm operator            5 :  F  nop=           0
 symm operator            6 :  F  nop=           0
 symm operator            7 :  F  nop=           0
 The point group of the molecule is  C1
 Symmetry rotation matrix:
   1.00000   0.00000   0.00000
   0.00000   1.00000   0.00000
   0.00000   0.00000   1.00000

 Projecting out zero-frequency components
 generating redundant internal coords
         300        3600          69
 search for int coords
   1 str   2   1   1.534
   2 str   3   2   1.534
   3 str   4   2   1.488
   4 str   5   4   1.416
   5 str   6   5   1.229
   6 str   7   5   1.462
   7 str   8   7   1.399
   8 str   9   8   1.379
   9 str  10   9   1.415
  10 str  11  10   1.447
  11 str  12  11   1.415
  12 str  13  12   1.379
  13 str  14  13   1.400
  14 str  15  14   1.460
  15 str  16  15   1.225
  16 str  17  15   1.422
  17 str  18  17   1.437
  18 str  19  18   1.393
  19 str  20  19   1.389
  20 str  21  20   1.402
  21 str  22  21   1.484
  22 str  23  22   1.404
  23 str  24  23   1.392
  24 str  25  24   1.394
  25 str  26  25   1.394
  26 str  27  22   1.404
[...]
   -0.   -1.    0.    0.   -1.    0.    0.    1.    0.    1.    0.   -1.   -0.    1.   -0.   -3.    0.   -2.   -0.    1.
    0.    0.   -1.   -2.   -1.    0.    0.   -2.    0.    0.   -4.   -0.    0.   -3.   -1.    0.   -0.   -0.    0.   -0.
   -0.    0.   -0.    0.    1.   -0.    0.   -0.   -0.   -0.   -0.    0.    1.    0.    1.   -0.    1.    0.    0.   -1.
   -0.    0.    0.    0.    0.   -0.   -0.    0.   -0.    0.   -0.   -3.    0.   -0.    0.    2.   -1.    0.   -1.    0.
    1.   -0.   -3.    0.    0.   -0.   -0.   -0.    0.    1.    0.   -0.    0.   -0.    0.    0.    1.   -0.   -0.    0.
   -0.    0.   -0.   -0.    0.    0.   -0.   -1.   -0.    1.   -0.    0.    0.   -0.   -0.   -0.   -0.   -1.    3.    0.
    0.   -1.    1.    0.    0.   -0.    0.   -0.    0.    0.   -0.    0.    0.    0.   -0.   -0.    0.   -0.    0.   -0.
    0.   -0.    0.    0.   -0.   -0.   -0.
 p2=
    0.    0.   -0.    0.   -0.    0.   -1.  -60.   -6.   10.  -37.    3.    8.   93.   -4.  -15.    1.   -2.   -0.  -13.
   30.   -2.   -0.    2.   -1.   -5.   -2.   -9.    0.   -2.    1.   -1.    1.    1.    2.   -0.    0.    0.   -0.    0.
    2.   -3.    2.   -2.    0.   -2.    0.    0.    0.    0.    4.   -1.   -5.    0.   -0.   -0.   -1.   -0.    2.    0.
    0.   -1.   -0.   -1.    0.   -0.   -1.   -0.    0.   -1.   -1.   -0.   -0.   -1.   -0.   -0.    1.    0.    2.    1.
   -0.    0.   -0.   -1.    0.    0.   -0.    1.    1.   -2.   -1.    3.   -1.    0.   -3.   -0.   -0.    0.   -0.   -0.
    0.    0.    0.   -0.    0.   -0.    0.    0.    1.    0.    1.   -1.   -0.   -0.   -0.    0.    0.    0.    0.    0.
    0.   -0.   -1.   -0.    0.   -0.    0.    0.   -0.   -0.    4.   -0.   -0.    0.   -0.    1.    0.    0.   -1.    2.
   -0.    0.   -0.    4.   -0.   -0.    1.    2.   -0.   -0.    1.   -0.    0.   -1.    0.    1.   -1.   -0.    0.   -0.
    0.    0.    0.   -0.    1.   -0.    0.   -0.    1.   -0.   -0.   -0.   -0.   -0.    0.   -0.   -1.   -3.   -3.    0.
   -0.    1.    0.    0.   -0.    0.   -0.    0.   -0.   -0.    0.    0.   -0.   -0.    0.    0.   -0.    0.    0.    0.
   -0.   -0.   -0.    0.   -0.   -0.    0.

 Displacement: in terms of nc of 1 THEN of nc of 2

   1     freq=    -0. Q= -0.000 lam=    -0.0     freq=    -0. Q= -0.000 lam=    -0.0
   2     freq=    -0. Q= -0.000 lam=    -0.0     freq=    -0. Q= -0.000 lam=    -0.0
   3     freq=     0. Q=  0.000 lam=     0.0     freq=     0. Q=  0.000 lam=     0.0
   4     freq=     0. Q= -0.000 lam=     0.0     freq=     0. Q= -0.000 lam=     0.0
   5     freq=     0. Q= -0.000 lam=     0.0     freq=     0. Q= -0.000 lam=     0.0
   6     freq=     0. Q= -0.000 lam=     0.0     freq=     0. Q= -0.000 lam=     0.0
   7     freq=     9. Q= -0.020 lam=     0.0     freq=    10. Q= -0.013 lam=     0.0
   8     freq=    21. Q= -0.735 lam=     5.6     freq=    21. Q= -1.103 lam=    12.7
   9     freq=    21. Q=  0.322 lam=     1.1     freq=    21. Q=  0.111 lam=     0.1
  10     freq=    30. Q=  0.042 lam=     0.0     freq=    31. Q=  0.223 lam=     0.8
  11     freq=    42. Q=  0.609 lam=     7.9     freq=    32. Q=  0.858 lam=    11.9
  12     freq=    55. Q=  0.141 lam=     0.5     freq=    57. Q=  0.090 lam=     0.2
  13     freq=    58. Q=  0.306 lam=     2.7     freq=    60. Q=  0.266 lam=     2.1
  14     freq=    73. Q=  0.519 lam=     9.9     freq=    70. Q=  3.157 lam=   350.3
  15     freq=    76. Q= -2.057 lam=   161.6     freq=    77. Q= -0.133 lam=     0.7
  16     freq=    88. Q= -0.955 lam=    40.3     freq=    82. Q= -0.535 lam=    11.8
  17     freq=   100. Q= -0.170 lam=     1.4     freq=    91. Q= -0.023 lam=     0.0
  18     freq=   105. Q= -0.375 lam=     7.4     freq=    93. Q= -0.070 lam=     0.2
  19     freq=   107. Q= -2.217 lam=   263.0     freq=   106. Q= -0.013 lam=     0.0
  20     freq=   131. Q=  0.333 lam=     7.2     freq=   126. Q=  0.595 lam=    22.2
  21     freq=   145. Q= -3.433 lam=   854.1     freq=   130. Q= -1.381 lam=   123.8
  22     freq=   168. Q= -0.128 lam=     1.4     freq=   152. Q= -0.078 lam=     0.5
  23     freq=   170. Q= -0.292 lam=     7.2     freq=   171. Q= -0.006 lam=     0.0
  24     freq=   180. Q=  0.147 lam=     2.0     freq=   188. Q=  0.087 lam=     0.7
  25     freq=   195. Q=  0.082 lam=     0.7     freq=   197. Q=  0.062 lam=     0.4
  26     freq=   210. Q=  0.682 lam=    49.0     freq=   202. Q=  0.262 lam=     6.9
  27     freq=   213. Q= -0.129 lam=     1.8     freq=   214. Q= -0.125 lam=     1.7
  28     freq=   231. Q=  1.214 lam=   170.0     freq=   224. Q=  0.553 lam=    34.3
  29     freq=   235. Q= -0.214 lam=     5.4     freq=   234. Q= -0.007 lam=     0.0
  30     freq=   236. Q=  0.635 lam=    47.7     freq=   235. Q=  0.149 lam=     2.6
  31     freq=   244. Q= -0.079 lam=     0.8     freq=   247. Q= -0.066 lam=     0.5
  32     freq=   261. Q= -0.022 lam=     0.1     freq=   265. Q= -0.088 lam=     1.0
  33     freq=   280. Q=  0.175 lam=     4.3     freq=   285. Q=  0.047 lam=     0.3
  34     freq=   297. Q= -0.164 lam=     4.0     freq=   295. Q= -0.098 lam=     1.4
  35     freq=   297. Q=  0.466 lam=    32.3     freq=   301. Q=  0.105 lam=     1.7
  36     freq=   331. Q= -0.009 lam=     0.0     freq=   323. Q= -0.002 lam=     0.0
  37     freq=   341. Q= -0.001 lam=     0.0     freq=   344. Q= -0.000 lam=     0.0
  38     freq=   368. Q=  0.001 lam=     0.0     freq=   361. Q=  0.004 lam=     0.0
  39     freq=   377. Q=  0.031 lam=     0.2     freq=   372. Q=  0.038 lam=     0.3
  40     freq=   386. Q= -0.004 lam=     0.0     freq=   393. Q= -0.039 lam=     0.3
  41     freq=   390. Q= -0.149 lam=     4.4     freq=   397. Q= -0.168 lam=     5.6
  42     freq=   395. Q= -0.092 lam=     1.7     freq=   417. Q= -0.248 lam=    12.8
  43     freq=   401. Q= -0.679 lam=    92.5     freq=   418. Q= -0.143 lam=     4.3
  44     freq=   417. Q= -0.118 lam=     2.9     freq=   424. Q= -0.144 lam=     4.4
  45     freq=   422. Q= -0.694 lam=   101.7     freq=   426. Q= -0.003 lam=     0.0
  46     freq=   434. Q= -0.014 lam=     0.0     freq=   435. Q= -0.128 lam=     3.6
  47     freq=   435. Q= -0.024 lam=     0.1     freq=   437. Q= -0.023 lam=     0.1
  48     freq=   443. Q=  0.020 lam=     0.1     freq=   443. Q=  0.029 lam=     0.2
  49     freq=   448. Q=  0.012 lam=     0.0     freq=   445. Q=  0.017 lam=     0.1
  50     freq=   453. Q=  0.002 lam=     0.0     freq=   454. Q=  0.002 lam=     0.0
  51     freq=   458. Q=  0.361 lam=    29.9     freq=   470. Q=  0.330 lam=    25.6
  52     freq=   473. Q= -0.235 lam=    13.0     freq=   477. Q= -0.060 lam=     0.9
  53     freq=   486. Q= -0.001 lam=     0.0     freq=   503. Q= -0.449 lam=    50.7
  54     freq=   496. Q= -0.323 lam=    25.9     freq=   504. Q= -0.002 lam=     0.0
  55     freq=   502. Q=  0.001 lam=     0.0     freq=   511. Q=  0.000 lam=     0.0
  56     freq=   512. Q=  0.188 lam=     9.1     freq=   516. Q=  0.023 lam=     0.1
  57     freq=   514. Q= -0.002 lam=     0.0     freq=   517. Q= -0.082 lam=     1.7
  58     freq=   516. Q=  0.085 lam=     1.9     freq=   528. Q=  0.000 lam=     0.0
  59     freq=   543. Q= -0.127 lam=     4.3     freq=   544. Q= -0.206 lam=    11.5
  60     freq=   563. Q= -0.001 lam=     0.0     freq=   569. Q= -0.002 lam=     0.0
  61     freq=   579. Q= -0.002 lam=     0.0     freq=   580. Q= -0.001 lam=     0.0
  62     freq=   582. Q= -0.061 lam=     1.1     freq=   583. Q= -0.053 lam=     0.8
  63     freq=   592. Q=  0.000 lam=     0.0     freq=   592. Q=  0.000 lam=     0.0
  64     freq=   608. Q=  0.001 lam=     0.0     freq=   623. Q=  0.077 lam=     1.9
  65     freq=   623. Q= -0.077 lam=     1.8     freq=   625. Q= -0.003 lam=     0.0
  66     freq=   624. Q=  0.002 lam=     0.0     freq=   634. Q=  0.000 lam=     0.0
  67     freq=   628. Q=  0.001 lam=     0.0     freq=   641. Q=  0.104 lam=     3.5
  68     freq=   632. Q=  0.066 lam=     1.4     freq=   653. Q=  0.000 lam=     0.0
  69     freq=   660. Q=  0.001 lam=     0.0     freq=   658. Q=  0.001 lam=     0.0
  70     freq=   667. Q=  0.100 lam=     3.3     freq=   664. Q=  0.071 lam=     1.7
  71     freq=   679. Q=  0.000 lam=     0.0     freq=   709. Q=  0.096 lam=     3.3
  72     freq=   709. Q= -0.109 lam=     4.2     freq=   713. Q= -0.005 lam=     0.0
  73     freq=   713. Q= -0.020 lam=     0.1     freq=   714. Q= -0.013 lam=     0.1
  74     freq=   728. Q=  0.123 lam=     5.5     freq=   727. Q=  0.076 lam=     2.1
  75     freq=   740. Q= -0.002 lam=     0.0     freq=   741. Q= -0.001 lam=     0.0
  76     freq=   744. Q= -0.291 lam=    31.5     freq=   747. Q= -0.001 lam=     0.0
  77     freq=   747. Q=  0.012 lam=     0.1     freq=   749. Q=  0.161 lam=     9.7
  78     freq=   756. Q= -0.171 lam=    11.1     freq=   750. Q= -0.011 lam=     0.0
  79     freq=   761. Q= -0.005 lam=     0.0     freq=   756. Q= -0.169 lam=    10.8
  80     freq=   769. Q=  0.114 lam=     5.0     freq=   766. Q=  0.119 lam=     5.4
  81     freq=   786. Q=  0.000 lam=     0.0     freq=   778. Q=  0.001 lam=     0.0
  82     freq=   797. Q=  0.003 lam=     0.0     freq=   783. Q=  0.001 lam=     0.0
  83     freq=   798. Q= -0.098 lam=     3.9     freq=   802. Q= -0.003 lam=     0.0
  84     freq=   803. Q= -0.196 lam=    15.5     freq=   804. Q= -0.108 lam=     4.7
  85     freq=   809. Q= -0.100 lam=     4.1     freq=   810. Q= -0.053 lam=     1.1
  86     freq=   816. Q=  0.048 lam=     0.9     freq=   810. Q=  0.052 lam=     1.1
  87     freq=   820. Q=  0.014 lam=     0.1     freq=   817. Q=  0.008 lam=     0.0
  88     freq=   822. Q= -0.242 lam=    24.1     freq=   823. Q= -0.120 lam=     5.9
  89     freq=   827. Q=  0.018 lam=     0.1     freq=   828. Q=  0.093 lam=     3.6
  90     freq=   833. Q=  0.017 lam=     0.1     freq=   831. Q=  0.238 lam=    23.6
  91     freq=   837. Q= -0.474 lam=    94.2     freq=   831. Q= -0.065 lam=     1.8
  92     freq=   841. Q= -0.021 lam=     0.2     freq=   840. Q= -0.317 lam=    42.2
  93     freq=   842. Q=  0.013 lam=     0.1     freq=   849. Q=  0.105 lam=     4.7
  94     freq=   860. Q= -0.353 lam=    53.6     freq=   856. Q= -0.037 lam=     0.6
  95     freq=   862. Q= -0.110 lam=     5.2     freq=   863. Q= -0.311 lam=    41.7
  96     freq=   902. Q=  0.007 lam=     0.0     freq=   909. Q=  0.002 lam=     0.0
  97     freq=   929. Q= -0.060 lam=     1.6     freq=   928. Q= -0.012 lam=     0.1
  98     freq=   944. Q= -0.000 lam=     0.0     freq=   931. Q= -0.049 lam=     1.1
  99     freq=   956. Q=  0.000 lam=     0.0     freq=   942. Q=  0.000 lam=     0.0
 100     freq=   956. Q= -0.001 lam=     0.0     freq=   953. Q= -0.000 lam=     0.0
 101     freq=   971. Q= -0.028 lam=     0.4     freq=   957. Q= -0.006 lam=     0.0
 102     freq=   971. Q=  0.030 lam=     0.4     freq=   964. Q=  0.014 lam=     0.1
 103     freq=   974. Q= -0.000 lam=     0.0     freq=   964. Q= -0.061 lam=     1.8
 104     freq=   980. Q=  0.028 lam=     0.4     freq=   967. Q=  0.001 lam=     0.0
 105     freq=   981. Q=  0.082 lam=     3.3     freq=   974. Q=  0.033 lam=     0.5
 106     freq=   984. Q= -0.020 lam=     0.2     freq=   976. Q= -0.012 lam=     0.1
 107     freq=   985. Q=  0.016 lam=     0.1     freq=   979. Q=  0.005 lam=     0.0
 108     freq=   988. Q= -0.002 lam=     0.0     freq=   980. Q= -0.001 lam=     0.0
 109     freq=   996. Q= -0.062 lam=     1.9     freq=   988. Q= -0.080 lam=     3.2
 110     freq=  1003. Q= -0.031 lam=     0.5     freq=   994. Q= -0.000 lam=     0.0
 111     freq=  1009. Q= -0.042 lam=     0.9     freq=  1014. Q= -0.105 lam=     5.6
 112     freq=  1010. Q=  0.001 lam=     0.0     freq=  1026. Q=  0.118 lam=     7.1
 113     freq=  1020. Q=  0.179 lam=    16.3     freq=  1042. Q=  0.018 lam=     0.2
 114     freq=  1025. Q=  0.000 lam=     0.0     freq=  1062. Q=  0.005 lam=     0.0
 115     freq=  1047. Q=  0.078 lam=     3.1     freq=  1066. Q=  0.017 lam=     0.2
 116     freq=  1068. Q= -0.043 lam=     1.0     freq=  1080. Q= -0.047 lam=     1.2
 117     freq=  1077. Q=  0.135 lam=     9.8     freq=  1090. Q=  0.009 lam=     0.0
 118     freq=  1094. Q=  0.015 lam=     0.1     freq=  1101. Q=  0.001 lam=     0.0
 119     freq=  1119. Q=  0.000 lam=     0.0     freq=  1124. Q=  0.001 lam=     0.0
 120     freq=  1145. Q= -0.199 lam=    22.6     freq=  1142. Q= -0.002 lam=     0.0
 121     freq=  1147. Q= -0.047 lam=     1.3     freq=  1146. Q= -0.003 lam=     0.0
 122     freq=  1155. Q=  0.000 lam=     0.0     freq=  1154. Q=  0.000 lam=     0.0
 123     freq=  1164. Q=  0.024 lam=     0.3     freq=  1155. Q=  0.075 lam=     3.3
 124     freq=  1171. Q=  0.006 lam=     0.0     freq=  1165. Q=  0.017 lam=     0.2
 125     freq=  1175. Q=  0.023 lam=     0.3     freq=  1174. Q=  0.015 lam=     0.1
 126     freq=  1189. Q= -0.044 lam=     1.2     freq=  1179. Q= -0.000 lam=     0.0
 127     freq=  1190. Q= -0.008 lam=     0.0     freq=  1185. Q= -0.031 lam=     0.6
 128     freq=  1200. Q=  0.012 lam=     0.1     freq=  1196. Q=  0.012 lam=     0.1
 129     freq=  1205. Q= -0.001 lam=     0.0     freq=  1202. Q= -0.063 lam=     2.4
 130     freq=  1210. Q=  0.014 lam=     0.1     freq=  1202. Q=  0.002 lam=     0.0
 131     freq=  1227. Q= -0.011 lam=     0.1     freq=  1208. Q= -0.507 lam=   155.1
 132     freq=  1235. Q= -0.442 lam=   120.5     freq=  1224. Q= -0.010 lam=     0.1
 133     freq=  1236. Q=  0.015 lam=     0.1     freq=  1233. Q=  0.002 lam=     0.0
 134     freq=  1247. Q= -0.002 lam=     0.0     freq=  1243. Q= -0.005 lam=     0.0
 135     freq=  1264. Q=  0.000 lam=     0.0     freq=  1254. Q=  0.006 lam=     0.0
 136     freq=  1283. Q=  0.226 lam=    32.8     freq=  1266. Q=  0.179 lam=    20.3
 137     freq=  1291. Q= -0.205 lam=    27.0     freq=  1295. Q= -0.008 lam=     0.0
 138     freq=  1295. Q=  0.003 lam=     0.0     freq=  1296. Q=  0.001 lam=     0.0
 139     freq=  1301. Q= -0.096 lam=     6.0     freq=  1302. Q= -0.143 lam=    13.4
 140     freq=  1317. Q=  0.004 lam=     0.0     freq=  1308. Q=  0.357 lam=    83.3
 141     freq=  1330. Q=  0.214 lam=    30.4     freq=  1314. Q=  0.029 lam=     0.5
 142     freq=  1340. Q= -0.000 lam=     0.0     freq=  1326. Q= -0.000 lam=     0.0
 143     freq=  1350. Q= -0.397 lam=   106.4     freq=  1338. Q= -0.001 lam=     0.0
 144     freq=  1353. Q=  0.004 lam=     0.0     freq=  1343. Q=  0.534 lam=   191.7
 145     freq=  1360. Q=  0.000 lam=     0.0     freq=  1355. Q=  0.010 lam=     0.1
 146     freq=  1363. Q= -0.055 lam=     2.0     freq=  1356. Q= -0.001 lam=     0.0
 147     freq=  1368. Q= -0.000 lam=     0.0     freq=  1365. Q= -0.205 lam=    28.6
 148     freq=  1371. Q= -0.026 lam=     0.5     freq=  1372. Q= -0.279 lam=    53.3
 149     freq=  1384. Q=  0.000 lam=     0.0     freq=  1383. Q=  0.000 lam=     0.0
 150     freq=  1393. Q=  0.101 lam=     7.1     freq=  1388. Q=  0.000 lam=     0.0
 151     freq=  1395. Q=  0.002 lam=     0.0     freq=  1392. Q=  0.137 lam=    13.0
 152     freq=  1398. Q= -0.000 lam=     0.0     freq=  1397. Q= -0.000 lam=     0.0
 153     freq=  1412. Q=  0.023 lam=     0.4     freq=  1406. Q=  0.022 lam=     0.3
 154     freq=  1425. Q= -0.064 lam=     3.0     freq=  1422. Q= -0.103 lam=     7.5
 155     freq=  1438. Q=  0.055 lam=     2.2     freq=  1435. Q=  0.003 lam=     0.0
 156     freq=  1458. Q=  0.000 lam=     0.0     freq=  1436. Q=  0.163 lam=    19.0
 157     freq=  1461. Q=  0.101 lam=     7.4     freq=  1464. Q=  0.198 lam=    28.7
 158     freq=  1471. Q= -0.002 lam=     0.0     freq=  1468. Q= -0.014 lam=     0.2
 159     freq=  1479. Q= -0.001 lam=     0.0     freq=  1472. Q= -0.005 lam=     0.0
 160     freq=  1483. Q=  0.012 lam=     0.1     freq=  1479. Q=  0.000 lam=     0.0
 161     freq=  1484. Q= -0.000 lam=     0.0     freq=  1482. Q= -0.048 lam=     1.7
 162     freq=  1490. Q=  0.000 lam=     0.0     freq=  1482. Q=  0.001 lam=     0.0
 163     freq=  1496. Q= -0.019 lam=     0.3     freq=  1494. Q= -0.016 lam=     0.2
 164     freq=  1499. Q= -0.002 lam=     0.0     freq=  1507. Q= -0.000 lam=     0.0
 165     freq=  1501. Q=  0.074 lam=     4.1     freq=  1521. Q=  0.110 lam=     9.2
 166     freq=  1507. Q=  0.000 lam=     0.0     freq=  1524. Q=  0.012 lam=     0.1
 167     freq=  1524. Q= -0.006 lam=     0.0     freq=  1529. Q= -0.005 lam=     0.0
 168     freq=  1525. Q= -0.117 lam=    10.5     freq=  1549. Q= -0.046 lam=     1.6
 169     freq=  1536. Q= -0.003 lam=     0.0     freq=  1562. Q= -0.113 lam=    10.0
 170     freq=  1558. Q=  0.120 lam=    11.2     freq=  1572. Q=  0.057 lam=     2.6
 171     freq=  1575. Q= -0.008 lam=     0.1     freq=  1576. Q= -0.001 lam=     0.0
 172     freq=  1576. Q=  0.000 lam=     0.0     freq=  1591. Q=  0.002 lam=     0.0
 173     freq=  1581. Q=  0.001 lam=     0.0     freq=  1603. Q=  0.000 lam=     0.0
 174     freq=  1591. Q= -0.002 lam=     0.0     freq=  1609. Q= -0.002 lam=     0.0
 175     freq=  1612. Q= -0.067 lam=     3.6     freq=  1617. Q= -0.020 lam=     0.3
 176     freq=  1614. Q= -0.002 lam=     0.0     freq=  1622. Q= -0.000 lam=     0.0
 177     freq=  1619. Q= -0.070 lam=     4.0     freq=  1626. Q= -0.173 lam=    24.4
 178     freq=  1632. Q= -0.132 lam=    14.2     freq=  1642. Q= -0.421 lam=   145.3
 179     freq=  1659. Q=  0.561 lam=   261.3     freq=  1650. Q=  0.447 lam=   165.1
 180     freq=  1684. Q=  0.003 lam=     0.0     freq=  1665. Q=  0.002 lam=     0.0
 181     freq=  1706. Q=  0.002 lam=     0.0     freq=  1683. Q=  0.000 lam=     0.0
 182     freq=  1719. Q= -0.121 lam=    12.6     freq=  1702. Q= -0.089 lam=     6.8
 183     freq=  1750. Q=  0.191 lam=    31.8     freq=  1721. Q=  0.015 lam=     0.2
 184     freq=  3029. Q=  0.000 lam=     0.0     freq=  3022. Q=  0.000 lam=     0.0
 185     freq=  3034. Q=  0.009 lam=     0.1     freq=  3027. Q=  0.010 lam=     0.1
 186     freq=  3087. Q= -0.000 lam=     0.0     freq=  3080. Q= -0.000 lam=     0.0
 187     freq=  3090. Q=  0.007 lam=     0.1     freq=  3083. Q=  0.006 lam=     0.1
 188     freq=  3109. Q= -0.004 lam=     0.0     freq=  3104. Q= -0.005 lam=     0.0
 189     freq=  3132. Q=  0.000 lam=     0.0     freq=  3129. Q=  0.000 lam=     0.0
 190     freq=  3141. Q=  0.003 lam=     0.0     freq=  3138. Q=  0.003 lam=     0.0
 191     freq=  3186. Q= -0.010 lam=     0.2     freq=  3152. Q= -0.008 lam=     0.1
 192     freq=  3192. Q=  0.002 lam=     0.0     freq=  3160. Q=  0.000 lam=     0.0
 193     freq=  3192. Q=  0.001 lam=     0.0     freq=  3168. Q=  0.020 lam=     0.7
 194     freq=  3194. Q=  0.000 lam=     0.0     freq=  3168. Q=  0.003 lam=     0.0
 195     freq=  3198. Q= -0.002 lam=     0.0     freq=  3174. Q= -0.009 lam=     0.1
 196     freq=  3199. Q= -0.004 lam=     0.0     freq=  3180. Q= -0.000 lam=     0.0
 197     freq=  3202. Q=  0.022 lam=     0.8     freq=  3182. Q=  0.003 lam=     0.0
 198     freq=  3206. Q= -0.000 lam=     0.0     freq=  3182. Q= -0.001 lam=     0.0
 199     freq=  3208. Q=  0.012 lam=     0.2     freq=  3186. Q=  0.045 lam=     3.2
 200     freq=  3208. Q= -0.001 lam=     0.0     freq=  3190. Q= -0.002 lam=     0.0
 201     freq=  3208. Q=  0.001 lam=     0.0     freq=  3190. Q=  0.003 lam=     0.0
 202     freq=  3217. Q= -0.000 lam=     0.0     freq=  3199. Q= -0.002 lam=     0.0
 203     freq=  3218. Q=  0.040 lam=     2.6     freq=  3200. Q=  0.003 lam=     0.0
 204     freq=  3223. Q=  0.003 lam=     0.0     freq=  3206. Q=  0.003 lam=     0.0
 205     freq=  3223. Q= -0.013 lam=     0.3     freq=  3207. Q= -0.060 lam=     5.8
 206     freq=  3265. Q= -0.015 lam=     0.4     freq=  3212. Q= -0.002 lam=     0.0
 207     freq=  3266. Q= -0.000 lam=     0.0     freq=  3212. Q= -0.013 lam=     0.3

 total reorg energy (cm**-1, kcal/mol)=     3015.     1902.      8.62      5.44
 Nber of molecules processed=           2
