 Enter ifcurve (0=recti, 1=orth curvi, 2=apprx curvi, -1 = skip
 And atom ordering flag, 0= never changes, 1= use the first order thenceforth,
  2= deduce it (does read on fail), 3= always read it
 Reading file: 
 ./IDT-A_1_C0S0.log                                                             
                                          
  Entering Gaussian System, Link 0=g16                                          
  
 Gaussian format, type: g94, g98, g03= F F F
  #P Geom=AllCheck Guess=TCheck SCRF=Check GenChk RCAM-B3LYP/6-311G(d,p)    
 energy type= B3LYP   
 Original G94 input coords:
  6  1.160643 -1.237919 -1.059413
  6  2.626057 -0.926043 -0.724578
  6  2.951229 -1.365514  0.710002
  6  3.570569 -1.558621 -1.725924
  6  3.888276 -2.877245 -2.142922
  6  4.845415 -2.880493 -3.111338
 16  5.374900 -1.282416 -3.531063
  6  4.288817 -0.602994 -2.383151
  6  3.928610  0.728981 -1.922283
  6  4.377840  1.994986 -2.285041
  6  3.823642  3.087384 -1.645494
  6  2.835498  2.913701 -0.658490
  6  2.386026  1.647490 -0.295895
  6  2.940489  0.555314 -0.935643
  6  2.476005  4.244708 -0.198392
 16  1.390230  4.923639  0.948810
  6  1.909715  6.542716  0.527915
  6  1.329861  7.713427  1.193947
  6  0.008306  7.720710  1.645805
  6 -0.526638  8.835602  2.267042
  6  0.233006  9.990628  2.452290
  6 -0.346151 11.210965  3.072316
  6 -0.348117 12.392864  2.333547
  6 -0.901002 13.558335  2.829148
  6 -1.477967 13.587936  4.096769
  6 -2.076935 14.778091  4.633214
  6 -2.627453 14.792058  5.863234
  6 -2.630635 13.616544  6.688813
  6 -3.189639 13.611817  7.966754
  6 -3.172282 12.464641  8.743850
  6 -2.595660 11.300645  8.262738
  6 -2.027357 11.261698  6.989270
  6 -1.407639 10.079827  6.462608
  6 -0.870473 10.055372  5.225940
  6 -0.895750 11.211781  4.368410
  6 -1.471036 12.406569  4.878740
  6 -2.044117 12.427596  6.185796
  6  1.549970  9.986259  1.993372
  6  2.092431  8.867588  1.385661
  6  2.875685  6.515945 -0.442540
  6  3.195822  5.200702 -0.853338
  6  4.137823  4.568655 -1.857306
  6  3.808779  5.008324 -3.290938
  6  5.603981  4.880730 -1.526044
  1  0.968336 -2.310138 -0.973734
  1  0.918190 -0.926496 -2.076498
  1  0.487842 -0.719698 -0.372163
  1  2.790643 -2.440014  0.826868
  1  2.309239 -0.849551  1.427737
  1  3.990235 -1.145203  0.959298
  1  3.440150 -3.782054 -1.755261
  1  5.281091 -3.729871 -3.613635
  1  5.139813  2.116295 -3.047318
  1  1.623752  1.526131  0.466053
  1 -0.617524  6.850739  1.486070
  1 -1.560040  8.820654  2.592277
  1  0.074050 12.382958  1.335668
  1 -0.899683 14.458426  2.224858
  1 -2.076347 15.671918  4.019527
  1 -3.077944 15.696748  6.255691
  1 -3.639479 14.521193  8.348892
  1 -3.610395 12.479086  9.734633
  1 -2.579871 10.406420  8.875455
  1 -1.369720  9.196810  7.090746
  1 -0.394051  9.154271  4.865146
  1  2.165159 10.866281  2.140350
  1  3.130433  8.878315  1.076690
  1  3.307769  7.418031 -0.854375
  1  4.449065  4.492424 -4.010186
  1  3.968802  6.082852 -3.408294
  1  2.769206  4.787853 -3.537657
  1  5.849075  4.569550 -0.509511
  1  5.796074  5.952932 -1.612698
  1  6.275038  4.362312 -2.214783
 nber atoms=          74
  SCF Done:  E(RCAM-B3LYP) =  -2414.44583138     A.U. after    1 cycles         
  
          27          44 "  -2414.44583138"
After scan for Atom:   Atom  AN      X      Y      Z        X      Y      Z        X      Y      Z   
After scan for Atom:   Atom  AN      X      Y      Z        X      Y      Z        X      Y      Z   
After scan for Atom:   Atom  AN      X      Y      Z        X      Y      Z        X      Y      Z   
After scan for Atom:   Atom  AN      X      Y      Z        X      Y      Z        X      Y      Z   
After scan for Atom:   Atom  AN      X      Y      Z        X      Y      Z        X      Y      Z   
After scan for Atom:   Atom  AN      X      Y      Z        X      Y      Z        X      Y      Z   
After scan for Atom:   Atom  AN      X      Y      Z        X      Y      Z        X      Y      Z   
After scan for Atom:   Atom  AN      X      Y      Z        X      Y      Z        X      Y      Z   
After scan for Atom:   Atom  AN      X      Y      Z        X      Y      Z        X      Y      Z   
After scan for Atom:   Atom  AN      X      Y      Z        X      Y      Z        X      Y      Z   
After scan for Atom:   Atom  AN      X      Y      Z        X      Y      Z        X      Y      Z   
After scan for Atom:   Atom  AN      X      Y      Z        X      Y      Z        X      Y      Z   
After scan for Atom:   Atom  AN      X      Y      Z        X      Y      Z        X      Y      Z   
After scan for Atom:   Atom  AN      X      Y      Z        X      Y      Z        X      Y      Z   
After scan for Atom:   Atom  AN      X      Y      Z        X      Y      Z        X      Y      Z   
After scan for Atom:   Atom  AN      X      Y      Z        X      Y      Z        X      Y      Z   
After scan for Atom:   Atom  AN      X      Y      Z        X      Y      Z        X      Y      Z   
After scan for Atom:   Atom  AN      X      Y      Z        X      Y      Z        X      Y      Z   
After scan for Atom:   Atom  AN      X      Y      Z        X      Y      Z        X      Y      Z   
After scan for Atom:   Atom  AN      X      Y      Z        X      Y      Z        X      Y      Z   
After scan for Atom:   Atom  AN      X      Y      Z        X      Y      Z        X      Y      Z   
After scan for Atom:   Atom  AN      X      Y      Z        X      Y      Z        X      Y      Z   
After scan for Atom:   Atom  AN      X      Y      Z        X      Y      Z        X      Y      Z   
After scan for Atom:   Atom  AN      X      Y      Z        X      Y      Z        X      Y      Z   
After scan for Atom:   Atom  AN      X      Y      Z        X      Y      Z        X      Y      Z   
After scan for Atom:   Atom  AN      X      Y      Z        X      Y      Z        X      Y      Z   
After scan for Atom:   Atom  AN      X      Y      Z        X      Y      Z        X      Y      Z   
After scan for Atom:   Atom  AN      X      Y      Z        X      Y      Z        X      Y      Z   
After scan for Atom:   Atom  AN      X      Y      Z        X      Y      Z        X      Y      Z   
After scan for Atom:   Atom  AN      X      Y      Z        X      Y      Z        X      Y      Z   
After scan for Atom:   Atom  AN      X      Y      Z        X      Y      Z        X      Y      Z   
After scan for Atom:   Atom  AN      X      Y      Z        X      Y      Z        X      Y      Z   
After scan for Atom:   Atom  AN      X      Y      Z        X      Y      Z        X      Y      Z   
After scan for Atom:   Atom  AN      X      Y      Z        X      Y      Z        X      Y      Z   
After scan for Atom:   Atom  AN      X      Y      Z        X      Y      Z        X      Y      Z   
After scan for Atom:   Atom  AN      X      Y      Z        X      Y      Z        X      Y      Z   
After scan for Atom:   Atom  AN      X      Y      Z        X      Y      Z        X      Y      Z   
After scan for Atom:   Atom  AN      X      Y      Z        X      Y      Z        X      Y      Z   
After scan for Atom:   Atom  AN      X      Y      Z        X      Y      Z        X      Y      Z   
After scan for Atom:   Atom  AN      X      Y      Z        X      Y      Z        X      Y      Z   
After scan for Atom:   Atom  AN      X      Y      Z        X      Y      Z        X      Y      Z   
After scan for Atom:   Atom  AN      X      Y      Z        X      Y      Z        X      Y      Z   
After scan for Atom:   Atom  AN      X      Y      Z        X      Y      Z        X      Y      Z   
After scan for Atom:   Atom  AN      X      Y      Z        X      Y      Z        X      Y      Z   
After scan for Atom:   Atom  AN      X      Y      Z        X      Y      Z        X      Y      Z   
After scan for Atom:   Atom  AN      X      Y      Z        X      Y      Z        X      Y      Z   
After scan for Atom:   Atom  AN      X      Y      Z        X      Y      Z        X      Y      Z   
After scan for Atom:   Atom  AN      X      Y      Z        X      Y      Z        X      Y      Z   
After scan for Atom:   Atom  AN      X      Y      Z        X      Y      Z        X      Y      Z   
After scan for Atom:   Atom  AN      X      Y      Z        X      Y      Z        X      Y      Z   
After scan for Atom:   Atom  AN      X      Y      Z        X      Y      Z        X      Y      Z   
After scan for Atom:   Atom  AN      X      Y      Z        X      Y      Z        X      Y      Z   
After scan for Atom:   Atom  AN      X      Y      Z        X      Y      Z        X      Y      Z   
After scan for Atom:   Atom  AN      X      Y      Z        X      Y      Z        X      Y      Z   
After scan for Atom:   Atom  AN      X      Y      Z        X      Y      Z        X      Y      Z   
After scan for Atom:   Atom  AN      X      Y      Z        X      Y      Z        X      Y      Z   
After scan for Atom:   Atom  AN      X      Y      Z        X      Y      Z        X      Y      Z   
After scan for Atom:   Atom  AN      X      Y      Z        X      Y      Z        X      Y      Z   
After scan for Atom:   Atom  AN      X      Y      Z        X      Y      Z        X      Y      Z   
After scan for Atom:   Atom  AN      X      Y      Z        X      Y      Z        X      Y      Z   
After scan for Atom:   Atom  AN      X      Y      Z        X      Y      Z        X      Y      Z   
After scan for Atom:   Atom  AN      X      Y      Z        X      Y      Z        X      Y      Z   
After scan for Atom:   Atom  AN      X      Y      Z        X      Y      Z        X      Y      Z   
After scan for Atom:   Atom  AN      X      Y      Z        X      Y      Z        X      Y      Z   
After scan for Atom:   Atom  AN      X      Y      Z        X      Y      Z        X      Y      Z   
After scan for Atom:   Atom  AN      X      Y      Z        X      Y      Z        X      Y      Z   
After scan for Atom:   Atom  AN      X      Y      Z        X      Y      Z        X      Y      Z   
After scan for Atom:   Atom  AN      X      Y      Z        X      Y      Z        X      Y      Z   
After scan for Atom:   Atom  AN      X      Y      Z        X      Y      Z        X      Y      Z   
After scan for Atom:   Atom  AN      X      Y      Z        X      Y      Z        X      Y      Z   
After scan for Atom:   Atom  AN      X      Y      Z        X      Y      Z        X      Y      Z   
After scan for Atom:   Atom  AN      X      Y      Z        X      Y      Z        X      Y      Z   
 g94    frequencies=
     0.0    0.0    0.0    0.0    0.0    0.0   11.4   12.1   18.0   30.1
    49.8   53.4   54.9   69.5   96.5   99.5  105.8  109.0  117.8  122.0
   146.3  153.6  166.1  180.9  209.6  211.9  222.8  227.7  245.5  250.6
   250.8  252.4  267.1  276.5  287.5  294.1  298.6  320.4  329.1  339.0
   361.9  379.0  383.9  405.8  423.0  425.4  428.5  437.8  441.7  457.9
   462.6  478.1  486.4  507.8  511.6  518.9  523.8  528.2  531.2  562.2
   565.4  566.0  583.9  584.9  595.1  613.3  631.7  641.6  644.9  663.3
   671.3  679.8  687.3  708.4  709.8  713.2  736.6  738.1  744.4  749.4
   752.6  764.8  774.3  785.1  787.1  803.4  825.5  828.6  843.2  854.2
   857.4  865.7  868.1  869.6  874.9  882.7  892.0  894.5  912.1  915.1
   918.5  921.9  936.9  962.2  962.4  970.0  990.9  996.8  999.9 1001.5
  1005.4 1007.6 1013.6 1022.0 1023.4 1025.9 1034.8 1039.4 1039.5 1057.5
  1096.6 1112.2 1117.0 1119.4 1136.7 1145.2 1150.1 1169.7 1171.6 1184.0
  1190.5 1191.2 1191.9 1210.8 1219.4 1227.4 1235.5 1254.7 1259.9 1261.9
  1267.2 1272.4 1276.9 1281.6 1282.0 1294.7 1298.3 1315.0 1323.3 1345.3
  1360.1 1377.4 1386.5 1401.0 1408.8 1408.9 1422.0 1427.9 1432.3 1437.1
  1444.1 1450.5 1461.3 1467.8 1476.1 1484.8 1490.2 1490.3 1495.1 1495.2
  1495.5 1509.6 1510.9 1512.1 1515.2 1517.3 1525.2 1538.1 1557.7 1559.8
  1579.7 1593.9 1609.2 1615.9 1633.3 1634.9 1664.2 1675.7 1689.9 1691.4
  1693.4 1719.0 3047.6 3047.7 3051.5 3051.7 3113.3 3113.5 3118.5 3118.7
  3130.9 3131.1 3133.0 3133.1 3181.0 3183.1 3185.3 3185.8 3186.7 3187.2
  3190.8 3191.6 3191.6 3200.5 3204.0 3206.6 3208.2 3209.5 3221.9 3222.0
  3225.8 3263.3
 g94    symmetries=
                                                 A      A      A      A
       A      A      A      A      A      A      A      A      A      A
       A      A      A      A      A      A      A      A      A      A
       A      A      A      A      A      A      A      A      A      A
       A      A      A      A      A      A      A      A      A      A
       A      A      A      A      A      A      A      A      A      A
       A      A      A      A      A      A      A      A      A      A
       A      A      A      A      A      A      A      A      A      A
       A      A      A      A      A      A      A      A      A      A
       A      A      A      A      A      A      A      A      A      A
       A      A      A      A      A      A      A      A      A      A
       A      A      A      A      A      A      A      A      A      A
       A      A      A      A      A      A      A      A      A      A
       A      A      A      A      A      A      A      A      A      A
       A      A      A      A      A      A      A      A      A      A
       A      A      A      A      A      A      A      A      A      A
       A      A      A      A      A      A      A      A      A      A
       A      A      A      A      A      A      A      A      A      A
       A      A      A      A      A      A      A      A      A      A
       A      A      A      A      A      A      A      A      A      A
       A      A      A      A      A      A      A      A      A      A
       A      A      A      A      A      A      A      A      A      A
       A      A
 atomic masses:
 12.0000 12.0000 12.0000 12.0000 12.0000 12.0000 31.9721 12.0000 12.0000 12.0000
 12.0000 12.0000 12.0000 12.0000 12.0000 31.9721 12.0000 12.0000 12.0000 12.0000
 12.0000 12.0000 12.0000 12.0000 12.0000 12.0000 12.0000 12.0000 12.0000 12.0000
 12.0000 12.0000 12.0000 12.0000 12.0000 12.0000 12.0000 12.0000 12.0000 12.0000
 12.0000 12.0000 12.0000 12.0000  1.0078  1.0078  1.0078  1.0078  1.0078  1.0078
  1.0078  1.0078  1.0078  1.0078  1.0078  1.0078  1.0078  1.0078  1.0078  1.0078
  1.0078  1.0078  1.0078  1.0078  1.0078  1.0078  1.0078  1.0078  1.0078  1.0078
  1.0078  1.0078  1.0078  1.0078
 looking for force constants in 
 ./IDT-A_1_C0S0.fchk                                                            
  
 Cartesian Force Constants                  R   N=       24753                  
  
 n3=         222       24753
 g94-fc frequencies=
    -0.3   -0.0   -0.0    0.0    0.3    2.0   11.4   12.1   18.0   30.1
    49.8   53.4   54.9   69.5   96.5   99.5  105.8  109.0  117.8  122.0
   146.3  153.7  166.1  180.9  209.6  211.9  222.8  227.7  245.5  250.6
   250.8  252.4  267.1  276.5  287.5  294.1  298.6  320.4  329.1  339.0
   361.9  379.0  383.9  405.9  423.1  425.4  428.5  437.8  441.7  458.0
   462.6  478.1  486.4  507.8  511.6  518.9  523.8  528.2  531.2  562.2
   565.4  566.0  584.0  584.9  595.1  613.3  631.8  641.6  644.9  663.3
   671.3  679.8  687.3  708.4  709.8  713.2  736.6  738.1  744.4  749.4
   752.6  764.8  774.3  785.1  787.1  803.4  825.5  828.6  843.2  854.2
   857.4  865.8  868.1  869.7  874.9  882.7  892.0  894.6  912.2  915.1
   918.6  922.0  936.9  962.3  962.4  970.0  991.0  996.8  999.9 1001.5
  1005.4 1007.6 1013.7 1022.0 1023.4 1025.9 1034.8 1039.4 1039.6 1057.5
  1096.6 1112.3 1117.0 1119.4 1136.7 1145.3 1150.1 1169.7 1171.6 1184.0
  1190.5 1191.2 1191.9 1210.8 1219.4 1227.4 1235.6 1254.7 1259.9 1261.9
  1267.2 1272.5 1276.9 1281.7 1282.0 1294.7 1298.3 1315.0 1323.4 1345.3
  1360.1 1377.5 1386.5 1401.0 1408.8 1408.9 1422.1 1427.9 1432.3 1437.1
  1444.2 1450.6 1461.3 1467.8 1476.1 1484.9 1490.2 1490.3 1495.2 1495.3
  1495.5 1509.7 1511.0 1512.1 1515.3 1517.3 1525.2 1538.2 1557.7 1559.9
  1579.7 1593.9 1609.2 1616.0 1633.3 1634.9 1664.2 1675.8 1690.0 1691.4
  1693.4 1719.0 3047.6 3047.7 3051.6 3051.8 3113.4 3113.6 3118.6 3118.8
  3131.0 3131.1 3133.0 3133.2 3181.1 3183.1 3185.4 3185.9 3186.8 3187.3
  3190.9 3191.6 3191.7 3200.6 3204.0 3206.7 3208.3 3209.5 3221.9 3222.1
  3225.9 3263.4
 at 99999: n3=         222
 symm operator            1 :  F  nop=           0
 symm operator            2 :  F  nop=           0
 symm operator            3 :  F  nop=           0
 symm operator            4 :  F  nop=           0
 symm operator            5 :  F  nop=           0
 symm operator            6 :  F  nop=           0
 symm operator            7 :  F  nop=           0
 The point group of the molecule is  C1
 Symmetry rotation matrix:
   1.00000   0.00000   0.00000
   0.00000   1.00000   0.00000
   0.00000   0.00000   1.00000

 Projecting out zero-frequency components
 generating redundant internal coords
         300        3600          74
 search for int coords
   1 str   2   1   1.535
   2 str   3   2   1.535
   3 str   4   2   1.515
   4 str   5   4   1.419
   5 str   6   5   1.362
   6 str   7   6   1.735
   7 str   8   4   1.364
   8 str   8   7   1.720
   9 str   9   8   1.455
  10 str  10   9   1.391
  11 str  11  10   1.382
  12 str  12  11   1.407
  13 str  13  12   1.392
  14 str  14   2   1.529
  15 str  14   9   1.407
  16 str  14  13   1.382
  17 str  15  12   1.453
  18 str  16  15   1.719
  19 str  17  16   1.752
  20 str  18  17   1.466
  21 str  19  18   1.397
  22 str  20  19   1.384
  23 str  21  20   1.395
  24 str  22  21   1.486
  25 str  23  22   1.394
  26 str  24  23   1.382
  27 str  25  24   1.393
  28 str  26  25   1.436
  29 str  27  26   1.348
  30 str  28  27   1.436
  31 str  29  28   1.395
  32 str  30  29   1.386
  33 str  31  30   1.385
  34 str  32  31   1.395
  35 str  33  32   1.435
  36 str  34  33   1.349
  37 str  35  22   1.408
  38 str  35  34   1.440
  39 str  36  25   1.417
  40 str  36  35   1.421
  41 str  37  28   1.418
  42 str  37  32   1.416
  43 str  37  36   1.427
  44 str  38  21   1.395
  45 str  39  18   1.397
  46 str  39  38   1.384
  47 str  40  17   1.370
  48 str  41  15   1.364
  49 str  41  40   1.415
  50 str  42  11   1.529
  51 str  42  41   1.515
  52 str  43  42   1.535
  53 str  44  42   1.535
  54 str  45   1   1.093
  55 str  46   1   1.091
  56 str  47   1   1.092
  57 str  48   3   1.093
  58 str  49   3   1.092
  59 str  50   3   1.091
  60 str  51   5   1.082
  61 str  52   6   1.079
  62 str  53  10   1.085
  63 str  54  13   1.085
  64 str  55  19   1.084
  65 str  56  20   1.083
  66 str  57  23   1.084
  67 str  58  24   1.084
  68 str  59  26   1.084
  69 str  60  27   1.084
  70 str  61  29   1.084
  71 str  62  30   1.083
  72 str  63  31   1.084
  73 str  64  33   1.084
  74 str  65  34   1.081
  75 str  66  38   1.084
  76 str  67  39   1.083
  77 str  68  40   1.082
  78 str  69  43   1.092
  79 str  70  43   1.093
  80 str  71  43   1.091
  81 str  72  44   1.091
  82 str  73  44   1.093
  83 str  74  44   1.092
 nber stretches=          83
  84 ben   1   2   3
  85 prop tor   1   2   3  48
  86 prop tor   1   2   3  49
  87 prop tor   1   2   3  50
  88 ben   1   2   4
  89 prop tor   1   2   4   5
  90 prop tor   1   2   4   8
  91 ben   1   2  14
  92 prop tor   1   2  14   9
  93 prop tor   1   2  14  13
  94 ben   2   1  45
  95 ben   2   1  46
  96 ben   2   1  47
  97 ben   2   3  48
  98 ben   2   3  49
  99 ben   2   3  50
 100 ben   2   4   5
 101 prop tor   2   4   5   6
 102 prop tor   2   4   5  51
 103 ben   2   4   8
 104 prop tor   2   4   8   7
 105 prop tor   2   4   8   9
 106 ben   2  14   9
 107 ben   2  14  13
 108 ben   3   2   4
 109 prop tor   3   2   4   5
 110 prop tor   3   2   4   8
 111 ben   3   2  14
 112 prop tor   3   2  14   9
 113 prop tor   3   2  14  13
 114 prop tor   4   2   3  48
 115 prop tor   4   2   3  49
 116 prop tor   4   2   3  50
 117 ben   4   2  14
 118 prop tor   4   2  14   9
 119 prop tor   4   2  14  13
 120 ben   4   5   6
 121 prop tor   4   5   6   7
 122 prop tor   4   5   6  52
 123 ben   4   5  51
 124 ben   4   8   7
 125 ben   4   8   9
 126 prop tor   4   8   9  10
 127 prop tor   4   8   9  14
 128 ben   5   4   8
 129 prop tor   5   4   8   7
 130 prop tor   5   4   8   9
 131 ben   5   6   7
 132 prop tor   5   6   7   8
 133 ben   5   6  52
 134 ben   6   5  51
 135 ben   6   7   8
 136 prop tor   6   7   8   4
 137 prop tor   6   7   8   9
 138 ben   7   6  52
 139 ben   7   8   9
 140 prop tor   7   8   9  10
 141 prop tor   7   8   9  14
 142 prop tor   8   4   5   6
 143 prop tor   8   4   5  51
 144 ben   8   9  10
 145 prop tor   8   9  10  11
 146 prop tor   8   9  10  53
 147 ben   8   9  14
 148 prop tor   8   9  14   2
 149 prop tor   8   9  14  13
 150 ben   9  10  11
 151 prop tor   9  10  11  12
 152 prop tor   9  10  11  42
 153 ben   9  10  53
 154 ben   9  14  13
 155 ben  10   9  14
 156 prop tor  10   9  14   2
 157 prop tor  10   9  14  13
 158 ben  10  11  12
 159 prop tor  10  11  12  13
 160 prop tor  10  11  12  15
 161 ben  10  11  42
 162 prop tor  10  11  42  41
 163 prop tor  10  11  42  43
 164 prop tor  10  11  42  44
 165 ben  11  10  53
 166 ben  11  12  13
 167 prop tor  11  12  13  14
 168 prop tor  11  12  13  54
 169 ben  11  12  15
 170 prop tor  11  12  15  16
 171 prop tor  11  12  15  41
 172 ben  11  42  41
 173 ben  11  42  43
 174 prop tor  11  42  43  69
 175 prop tor  11  42  43  70
 176 prop tor  11  42  43  71
 177 ben  11  42  44
 178 prop tor  11  42  44  72
 179 prop tor  11  42  44  73
 180 prop tor  11  42  44  74
 181 ben  12  11  42
 182 prop tor  12  11  42  41
 183 prop tor  12  11  42  43
 184 prop tor  12  11  42  44
 185 ben  12  13  14
 186 prop tor  12  13  14   2
 187 prop tor  12  13  14   9
 188 ben  12  13  54
 189 ben  12  15  16
 190 prop tor  12  15  16  17
 191 ben  12  15  41
 192 prop tor  12  15  41  40
 193 prop tor  12  15  41  42
 194 ben  13  12  15
 195 prop tor  13  12  15  16
 196 prop tor  13  12  15  41
 197 prop tor  14   2   3  48
 198 prop tor  14   2   3  49
 199 prop tor  14   2   3  50
 200 prop tor  14   2   4   5
 201 prop tor  14   2   4   8
 202 prop tor  14   9  10  11
 203 prop tor  14   9  10  53
 204 ben  14  13  54
 205 prop tor  15  12  13  14
 206 prop tor  15  12  13  54
 207 ben  15  16  17
 208 prop tor  15  16  17  18
 209 prop tor  15  16  17  40
 210 ben  15  41  40
 211 ben  15  41  42
 212 prop tor  15  41  42  11
 213 prop tor  15  41  42  43
 214 prop tor  15  41  42  44
 215 ben  16  15  41
 216 prop tor  16  15  41  40
 217 prop tor  16  15  41  42
 218 ben  16  17  18
 219 prop tor  16  17  18  19
 220 prop tor  16  17  18  39
 221 ben  16  17  40
 222 prop tor  16  17  40  41
 223 prop tor  16  17  40  68
 224 ben  17  18  19
 225 prop tor  17  18  19  20
 226 prop tor  17  18  19  55
 227 ben  17  18  39
 228 prop tor  17  18  39  38
 229 prop tor  17  18  39  67
 230 ben  17  40  41
 231 prop tor  17  40  41  15
 232 prop tor  17  40  41  42
 233 ben  17  40  68
 234 ben  18  17  40
 235 prop tor  18  17  40  41
 236 prop tor  18  17  40  68
 237 ben  18  19  20
 238 prop tor  18  19  20  21
 239 prop tor  18  19  20  56
 240 ben  18  19  55
 241 ben  18  39  38
 242 ben  18  39  67
 243 ben  19  18  39
 244 prop tor  19  18  39  38
 245 prop tor  19  18  39  67
 246 ben  19  20  21
 247 prop tor  19  20  21  22
 248 prop tor  19  20  21  38
 249 ben  19  20  56
 250 ben  20  19  55
 251 ben  20  21  22
 252 prop tor  20  21  22  23
 253 prop tor  20  21  22  35
 254 ben  20  21  38
 255 prop tor  20  21  38  39
 256 prop tor  20  21  38  66
 257 ben  21  20  56
 258 ben  21  22  23
 259 prop tor  21  22  23  24
 260 prop tor  21  22  23  57
 261 ben  21  22  35
 262 prop tor  21  22  35  34
 263 prop tor  21  22  35  36
 264 ben  21  38  39
 265 prop tor  21  38  39  18
 266 prop tor  21  38  39  67
 267 ben  21  38  66
 268 ben  22  21  38
 269 prop tor  22  21  38  39
 270 prop tor  22  21  38  66
 271 ben  22  23  24
 272 prop tor  22  23  24  25
 273 prop tor  22  23  24  58
 274 ben  22  23  57
 275 ben  22  35  34
 276 ben  22  35  36
 277 prop tor  22  35  36  25
 278 prop tor  22  35  36  37
 279 ben  23  22  35
 280 prop tor  23  22  35  34
 281 prop tor  23  22  35  36
 282 ben  23  24  25
 283 prop tor  23  24  25  26
 284 prop tor  23  24  25  36
 285 ben  23  24  58
 286 ben  24  23  57
 287 ben  24  25  26
 288 prop tor  24  25  26  27
 289 prop tor  24  25  26  59
 290 ben  24  25  36
 291 prop tor  24  25  36  35
 292 prop tor  24  25  36  37
 293 ben  25  24  58
 294 ben  25  26  27
 295 prop tor  25  26  27  28
 296 prop tor  25  26  27  60
 297 ben  25  26  59
 298 ben  25  36  35
 299 ben  25  36  37
 300 prop tor  25  36  37  28
 301 prop tor  25  36  37  32
 302 ben  26  25  36
 303 prop tor  26  25  36  35
 304 prop tor  26  25  36  37
 305 ben  26  27  28
 306 prop tor  26  27  28  29
 307 prop tor  26  27  28  37
 308 ben  26  27  60
 309 ben  27  26  59
 310 ben  27  28  29
 311 prop tor  27  28  29  30
 312 prop tor  27  28  29  61
 313 ben  27  28  37
 314 prop tor  27  28  37  32
 315 prop tor  27  28  37  36
 316 ben  28  27  60
 317 ben  28  29  30
 318 prop tor  28  29  30  31
 319 prop tor  28  29  30  62
 320 ben  28  29  61
 321 ben  28  37  32
 322 ben  28  37  36
 323 ben  29  28  37
 324 prop tor  29  28  37  32
 325 prop tor  29  28  37  36
 326 ben  29  30  31
 327 prop tor  29  30  31  32
 328 prop tor  29  30  31  63
 329 ben  29  30  62
 330 ben  30  29  61
 331 ben  30  31  32
 332 prop tor  30  31  32  33
 333 prop tor  30  31  32  37
 334 ben  30  31  63
 335 ben  31  30  62
 336 ben  31  32  33
 337 prop tor  31  32  33  34
 338 prop tor  31  32  33  64
 339 ben  31  32  37
 340 prop tor  31  32  37  28
 341 prop tor  31  32  37  36
 342 ben  32  31  63
 343 ben  32  33  34
 344 prop tor  32  33  34  35
 345 prop tor  32  33  34  65
 346 ben  32  33  64
 347 ben  32  37  36
 348 ben  33  32  37
 349 prop tor  33  32  37  28
 350 prop tor  33  32  37  36
 351 ben  33  34  35
 352 prop tor  33  34  35  22
 353 prop tor  33  34  35  36
 354 ben  33  34  65
 355 ben  34  33  64
 356 ben  34  35  36
 357 prop tor  34  35  36  25
 358 prop tor  34  35  36  37
 359 prop tor  35  22  23  24
 360 prop tor  35  22  23  57
 361 ben  35  34  65
 362 ben  35  36  37
 363 prop tor  35  36  37  28
 364 prop tor  35  36  37  32
 365 prop tor  36  25  26  27
 366 prop tor  36  25  26  59
 367 prop tor  37  28  29  30
 368 prop tor  37  28  29  61
 369 prop tor  37  32  33  34
 370 prop tor  37  32  33  64
 371 prop tor  38  21  22  23
 372 prop tor  38  21  22  35
 373 ben  38  39  67
 374 prop tor  39  18  19  20
 375 prop tor  39  18  19  55
 376 ben  39  38  66
 377 prop tor  40  17  18  19
 378 prop tor  40  17  18  39
 379 ben  40  41  42
 380 prop tor  40  41  42  11
 381 prop tor  40  41  42  43
 382 prop tor  40  41  42  44
 383 prop tor  41  15  16  17
 384 ben  41  40  68
 385 ben  41  42  43
 386 prop tor  41  42  43  69
 387 prop tor  41  42  43  70
 388 prop tor  41  42  43  71
 389 ben  41  42  44
 390 prop tor  41  42  44  72
 391 prop tor  41  42  44  73
 392 prop tor  41  42  44  74
 393 prop tor  42  11  12  13
 394 prop tor  42  11  12  15
 395 ben  42  43  69
 396 ben  42  43  70
 397 ben  42  43  71
 398 ben  42  44  72
 399 ben  42  44  73
 400 ben  42  44  74
 401 ben  43  42  44
 402 prop tor  43  42  44  72
 403 prop tor  43  42  44  73
 404 prop tor  43  42  44  74
 405 prop tor  44  42  43  69
 406 prop tor  44  42  43  70
 407 prop tor  44  42  43  71
 408 prop tor  45   1   2   3
 409 prop tor  45   1   2   4
 410 prop tor  45   1   2  14
 411 ben  45   1  46
 412 ben  45   1  47
 413 prop tor  46   1   2   3
 414 prop tor  46   1   2   4
 415 prop tor  46   1   2  14
 416 ben  46   1  47
 417 prop tor  47   1   2   3
 418 prop tor  47   1   2   4
 419 prop tor  47   1   2  14
 420 ben  48   3  49
 421 ben  48   3  50
 422 ben  49   3  50
 423 prop tor  51   5   6   7
 424 prop tor  51   5   6  52
 425 prop tor  52   6   7   8
 426 prop tor  53  10  11  12
 427 prop tor  53  10  11  42
 428 prop tor  54  13  14   2
 429 prop tor  54  13  14   9
 430 prop tor  55  19  20  21
 431 prop tor  55  19  20  56
 432 prop tor  56  20  21  22
 433 prop tor  56  20  21  38
 434 prop tor  57  23  24  25
 435 prop tor  57  23  24  58
 436 prop tor  58  24  25  26
 437 prop tor  58  24  25  36
 438 prop tor  59  26  27  28
 439 prop tor  59  26  27  60
 440 prop tor  60  27  28  29
 441 prop tor  60  27  28  37
 442 prop tor  61  29  30  31
 443 prop tor  61  29  30  62
 444 prop tor  62  30  31  32
 445 prop tor  62  30  31  63
 446 prop tor  63  31  32  33
 447 prop tor  63  31  32  37
 448 prop tor  64  33  34  35
 449 prop tor  64  33  34  65
 450 prop tor  65  34  35  22
 451 prop tor  65  34  35  36
 452 prop tor  66  38  39  18
 453 prop tor  66  38  39  67
 454 prop tor  68  40  41  15
 455 prop tor  68  40  41  42
 456 ben  69  43  70
 457 ben  69  43  71
 458 ben  70  43  71
 459 ben  72  44  73
 460 ben  72  44  74
 461 ben  73  44  74
 nber bend=             146
 nber lin bend=           0
 nber prop tor=         232
 nber impr tor=           0
 nber tot redund int=         461
 Eigenvalues of G in red int coords
    Gval -0.00000000 -0.00000000 -0.00000000 -0.00000000 -0.00000000 -0.00000000 -0.00000000 -0.00000000
    Gval -0.00000000 -0.00000000 -0.00000000 -0.00000000 -0.00000000 -0.00000000 -0.00000000 -0.00000000
    Gval -0.00000000 -0.00000000 -0.00000000 -0.00000000 -0.00000000 -0.00000000 -0.00000000 -0.00000000
    Gval -0.00000000 -0.00000000 -0.00000000 -0.00000000 -0.00000000 -0.00000000 -0.00000000 -0.00000000
    Gval -0.00000000 -0.00000000 -0.00000000 -0.00000000 -0.00000000 -0.00000000 -0.00000000 -0.00000000
    Gval -0.00000000 -0.00000000 -0.00000000 -0.00000000 -0.00000000 -0.00000000 -0.00000000 -0.00000000
    Gval -0.00000000 -0.00000000 -0.00000000 -0.00000000 -0.00000000 -0.00000000 -0.00000000 -0.00000000
    Gval -0.00000000 -0.00000000 -0.00000000 -0.00000000 -0.00000000 -0.00000000 -0.00000000 -0.00000000
    Gval -0.00000000 -0.00000000 -0.00000000 -0.00000000 -0.00000000 -0.00000000 -0.00000000 -0.00000000
    Gval -0.00000000 -0.00000000 -0.00000000 -0.00000000 -0.00000000 -0.00000000 -0.00000000 -0.00000000
    Gval -0.00000000 -0.00000000 -0.00000000 -0.00000000 -0.00000000 -0.00000000 -0.00000000 -0.00000000
    Gval -0.00000000 -0.00000000 -0.00000000 -0.00000000 -0.00000000 -0.00000000 -0.00000000 -0.00000000
    Gval -0.00000000 -0.00000000 -0.00000000 -0.00000000 -0.00000000 -0.00000000 -0.00000000 -0.00000000
    Gval -0.00000000 -0.00000000 -0.00000000 -0.00000000 -0.00000000 -0.00000000 -0.00000000 -0.00000000
    Gval -0.00000000 -0.00000000 -0.00000000 -0.00000000 -0.00000000 -0.00000000 -0.00000000 -0.00000000
    Gval -0.00000000 -0.00000000 -0.00000000 -0.00000000  0.00000000  0.00000000  0.00000000  0.00000000
    Gval  0.00000000  0.00000000  0.00000000  0.00000000  0.00000000  0.00000000  0.00000000  0.00000000
    Gval  0.00000000  0.00000000  0.00000000  0.00000000  0.00000000  0.00000000  0.00000000  0.00000000
    Gval  0.00000000  0.00000000  0.00000000  0.00000000  0.00000000  0.00000000  0.00000000  0.00000000
    Gval  0.00000000  0.00000000  0.00000000  0.00000000  0.00000000  0.00000000  0.00000000  0.00000000
    Gval  0.00000000  0.00000000  0.00000000  0.00000000  0.00000000  0.00000000  0.00000000  0.00000000
    Gval  0.00000000  0.00000000  0.00000000  0.00000000  0.00000000  0.00000000  0.00000000  0.00000000
    Gval  0.00000000  0.00000000  0.00000000  0.00000000  0.00000000  0.00000000  0.00000000  0.00000000
    Gval  0.00000000  0.00000000  0.00000000  0.00000000  0.00000000  0.00000000  0.00000000  0.00000000
    Gval  0.00000000  0.00000000  0.00000000  0.00000000  0.00000000  0.00000000  0.00000000  0.00000000
    Gval  0.00000000  0.00000000  0.00000000  0.00000000  0.00000000  0.00000000  0.00000000  0.00000000
    Gval  0.00000000  0.00000000  0.00000000  0.00000000  0.00000000  0.00000000  0.00000000  0.00000000
    Gval  0.00000000  0.00000000  0.00000000  0.00000000  0.00000000  0.00000000  0.00000000  0.00000000
    Gval  0.00000000  0.00000000  0.00000000  0.00000000  0.00000000  0.00000000  0.00000000  0.00000000
    Gval  0.00000000  0.00000000  0.00000000  0.00000000  0.00000000  0.00000000  0.00000000  0.00000000
    Gval  0.00000000  0.00000000  0.00000000  0.00000000  0.00000000  0.00000012  0.00000043  0.00000081
    Gval  0.00000108  0.00000161  0.00000278  0.00000358  0.00000456  0.00000758  0.00000886  0.00001088
    Gval  0.00001350  0.00001432  0.00001477  0.00001554  0.00001814  0.00002152  0.00002371  0.00002397
    Gval  0.00002471  0.00002854  0.00002915  0.00002997  0.00003046  0.00003161  0.00003508  0.00003854
    Gval  0.00003951  0.00004110  0.00004148  0.00004268  0.00004394  0.00004773  0.00004863  0.00005049
    Gval  0.00005175  0.00005249  0.00005427  0.00005778  0.00005921  0.00006295  0.00006485  0.00006771
    Gval  0.00006908  0.00007219  0.00007273  0.00007361  0.00007725  0.00007957  0.00008032  0.00008844
    Gval  0.00009238  0.00009397  0.00009610  0.00010255  0.00010695  0.00011369  0.00011752  0.00012081
    Gval  0.00012999  0.00013208  0.00013335  0.00013424  0.00014010  0.00014345  0.00014443  0.00014841
    Gval  0.00016381  0.00016603  0.00017414  0.00017996  0.00018079  0.00019443  0.00020450  0.00021496
    Gval  0.00022791  0.00024804  0.00025255  0.00025587  0.00026053  0.00027834  0.00029134  0.00030043
    Gval  0.00030446  0.00031340  0.00032653  0.00033866  0.00036371  0.00037157  0.00037718  0.00038090
    Gval  0.00038521  0.00040591  0.00041471  0.00042207  0.00042716  0.00043379  0.00043962  0.00044385
    Gval  0.00044986  0.00045864  0.00046053  0.00046275  0.00049184  0.00050815  0.00051205  0.00052412
    Gval  0.00053496  0.00053498  0.00053794  0.00055617  0.00055620  0.00055620  0.00055621  0.00057279
    Gval  0.00057864  0.00057868  0.00059069  0.00059391  0.00059477  0.00059655  0.00059674  0.00059722
    Gval  0.00059870  0.00059936  0.00059984  0.00060034  0.00060863  0.00061892  0.00062590  0.00062621
    Gval  0.00063290  0.00063548  0.00063721  0.00063993  0.00064219  0.00064727  0.00065156  0.00065895
    Gval  0.00066287  0.00067671  0.00067716  0.00076538  0.00078995  0.00079897  0.00084127  0.00087147
    Gval  0.00099287  0.00099770  0.00100668  0.00106683  0.00107252  0.00108212  0.00108404  0.00108949
    Gval  0.00109351  0.00109549  0.00110665  0.00110887  0.00111423  0.00112257  0.00113580  0.00113629
    Gval  0.00114144  0.00114925  0.00115065  0.00115986  0.00116262  0.00116524  0.00116655  0.00117065
    Gval  0.00117121  0.00118114  0.00118143  0.00118168  0.00118203  0.00118825  0.00126592  0.00151239
    Gval  0.00158831  0.00161292  0.00167251  0.00167266  0.00171937  0.00175321  0.00184389  0.00193157
    Gval  0.00193411  0.00204882  0.00217662  0.00222217  0.00234067  0.00234197  0.00241912  0.00251188
    Gval  0.00253918  0.00263608  0.00303277  0.00303419  0.00303750  0.00304046  0.00305398  0.00305398
    Gval  0.00309915  0.00309931  0.00311650  0.00342343  0.00343040  0.00359839  0.00361862  0.00369151
    Gval  0.00370064  0.00373058  0.00376457  0.00393748  0.00404758
  1.223824051259162E-007  1.223824051259162E-007
  4.315785169970509E-007  1.223824051259162E-007
  8.067383278187489E-007  1.223824051259162E-007
  1.079623575101937E-006  1.223824051259162E-007
  1.611536091118326E-006  1.223824051259162E-007
  2.775475969302371E-006  1.223824051259162E-007
  3.584347040992798E-006  1.223824051259162E-007
  4.557292820989424E-006  1.223824051259162E-007
  7.581327368161084E-006  1.223824051259162E-007
  8.863322319309895E-006  1.223824051259162E-007
  1.088229159182563E-005  1.223824051259162E-007
  1.350283358066180E-005  1.223824051259162E-007
  1.432263480072974E-005  1.223824051259162E-007
  1.477249422930259E-005  1.223824051259162E-007
  1.553764413715164E-005  1.223824051259162E-007
  1.813523773304815E-005  1.223824051259162E-007
  2.152279048229781E-005  1.223824051259162E-007
  2.370998204476649E-005  1.223824051259162E-007
  2.396649819896292E-005  1.223824051259162E-007
  2.471061479715822E-005  1.223824051259162E-007
  2.853579367361786E-005  1.223824051259162E-007
  2.915390636238042E-005  1.223824051259162E-007
  2.996609802794318E-005  1.223824051259162E-007
  3.045893023682936E-005  1.223824051259162E-007
  3.160564340425722E-005  1.223824051259162E-007
  3.507670096695041E-005  1.223824051259162E-007
  3.854031878340873E-005  1.223824051259162E-007
  3.951236965852358E-005  1.223824051259162E-007
  4.109595229162699E-005  1.223824051259162E-007
  4.147688227455994E-005  1.223824051259162E-007
  4.267928483115417E-005  1.223824051259162E-007
  4.394430333106710E-005  1.223824051259162E-007
  4.773014368288397E-005  1.223824051259162E-007
  4.863055886292337E-005  1.223824051259162E-007
  5.048966372421356E-005  1.223824051259162E-007
  5.174976053806573E-005  1.223824051259162E-007
  5.249307374118942E-005  1.223824051259162E-007
  5.427186046459185E-005  1.223824051259162E-007
  5.778388042671530E-005  1.223824051259162E-007
  5.920814295665367E-005  1.223824051259162E-007
  6.294918179108388E-005  1.223824051259162E-007
  6.484755582415403E-005  1.223824051259162E-007
  6.770859818997215E-005  1.223824051259162E-007
  6.907620889336783E-005  1.223824051259162E-007
  7.218960935935644E-005  1.223824051259162E-007
  7.272777516400155E-005  1.223824051259162E-007
  7.361418602475666E-005  1.223824051259162E-007
  7.725486226205710E-005  1.223824051259162E-007
  7.956663919320878E-005  1.223824051259162E-007
  8.031807193501984E-005  1.223824051259162E-007
  8.844186946695945E-005  1.223824051259162E-007
  9.238482704477349E-005  1.223824051259162E-007
  9.396744617592967E-005  1.223824051259162E-007
  9.609815860852985E-005  1.223824051259162E-007
  1.025510181693057E-004  1.223824051259162E-007
  1.069507844602387E-004  1.223824051259162E-007
  1.136897311996155E-004  1.223824051259162E-007
  1.175236466142027E-004  1.223824051259162E-007
  1.208141644435201E-004  1.223824051259162E-007
  1.299880920567973E-004  1.223824051259162E-007
  1.320771749854474E-004  1.223824051259162E-007
  1.333511590813217E-004  1.223824051259162E-007
  1.342442720988331E-004  1.223824051259162E-007
  1.401015435197597E-004  1.223824051259162E-007
  1.434454928127051E-004  1.223824051259162E-007
  1.444315388639538E-004  1.223824051259162E-007
  1.484098183733191E-004  1.223824051259162E-007
  1.638072985295533E-004  1.223824051259162E-007
  1.660319265355150E-004  1.223824051259162E-007
  1.741361781003419E-004  1.223824051259162E-007
  1.799607157005849E-004  1.223824051259162E-007
  1.807938651400564E-004  1.223824051259162E-007
  1.944294435754600E-004  1.223824051259162E-007
  2.045012124202590E-004  1.223824051259162E-007
  2.149600686227013E-004  1.223824051259162E-007
  2.279078750973661E-004  1.223824051259162E-007
  2.480378980182793E-004  1.223824051259162E-007
  2.525453922630811E-004  1.223824051259162E-007
  2.558658615205885E-004  1.223824051259162E-007
  2.605339675921776E-004  1.223824051259162E-007
  2.783392572501614E-004  1.223824051259162E-007
  2.913401828609544E-004  1.223824051259162E-007
  3.004312381306301E-004  1.223824051259162E-007
  3.044629868896356E-004  1.223824051259162E-007
  3.133950923009975E-004  1.223824051259162E-007
  3.265344849771906E-004  1.223824051259162E-007
  3.386576381326565E-004  1.223824051259162E-007
  3.637114423518753E-004  1.223824051259162E-007
  3.715706560926148E-004  1.223824051259162E-007
  3.771799031322983E-004  1.223824051259162E-007
  3.808954514416231E-004  1.223824051259162E-007
  3.852095175534891E-004  1.223824051259162E-007
  4.059139607559343E-004  1.223824051259162E-007
  4.147058371207745E-004  1.223824051259162E-007
  4.220651674728445E-004  1.223824051259162E-007
  4.271575784615348E-004  1.223824051259162E-007
  4.337855023762216E-004  1.223824051259162E-007
  4.396153805192620E-004  1.223824051259162E-007
  4.438462601745170E-004  1.223824051259162E-007
  4.498552640672271E-004  1.223824051259162E-007
  4.586436058329782E-004  1.223824051259162E-007
  4.605306683060612E-004  1.223824051259162E-007
  4.627516705064827E-004  1.223824051259162E-007
  4.918377132312959E-004  1.223824051259162E-007
  5.081471131771898E-004  1.223824051259162E-007
  5.120481939605553E-004  1.223824051259162E-007
  5.241181527915077E-004  1.223824051259162E-007
  5.349614162441228E-004  1.223824051259162E-007
  5.349775309530738E-004  1.223824051259162E-007
  5.379420065209526E-004  1.223824051259162E-007
  5.561652452082615E-004  1.223824051259162E-007
  5.562020821401835E-004  1.223824051259162E-007
  5.562033342546663E-004  1.223824051259162E-007
  5.562128768348666E-004  1.223824051259162E-007
  5.727931807389745E-004  1.223824051259162E-007
  5.786401928375381E-004  1.223824051259162E-007
  5.786766272063643E-004  1.223824051259162E-007
  5.906937445296551E-004  1.223824051259162E-007
  5.939082362814682E-004  1.223824051259162E-007
  5.947713142185064E-004  1.223824051259162E-007
  5.965531656930991E-004  1.223824051259162E-007
  5.967438273967814E-004  1.223824051259162E-007
  5.972217663797954E-004  1.223824051259162E-007
  5.987032164706077E-004  1.223824051259162E-007
  5.993589172178052E-004  1.223824051259162E-007
  5.998434624398235E-004  1.223824051259162E-007
  6.003425402631132E-004  1.223824051259162E-007
  6.086317721663130E-004  1.223824051259162E-007
  6.189207103653787E-004  1.223824051259162E-007
  6.258983081618108E-004  1.223824051259162E-007
  6.262133097654443E-004  1.223824051259162E-007
  6.329000912068245E-004  1.223824051259162E-007
  6.354795142771758E-004  1.223824051259162E-007
  6.372069437096505E-004  1.223824051259162E-007
  6.399306372816755E-004  1.223824051259162E-007
  6.421905611109720E-004  1.223824051259162E-007
  6.472670414093985E-004  1.223824051259162E-007
  6.515648699221213E-004  1.223824051259162E-007
  6.589497894694540E-004  1.223824051259162E-007
  6.628741958627968E-004  1.223824051259162E-007
  6.767075196343417E-004  1.223824051259162E-007
  6.771583647942021E-004  1.223824051259162E-007
  7.653818214804643E-004  1.223824051259162E-007
  7.899457507574691E-004  1.223824051259162E-007
  7.989724823431116E-004  1.223824051259162E-007
  8.412691492874317E-004  1.223824051259162E-007
  8.714723648868892E-004  1.223824051259162E-007
  9.928655785917588E-004  1.223824051259162E-007
  9.976969803208529E-004  1.223824051259162E-007
  1.006675152794442E-003  1.223824051259162E-007
  1.066829150273379E-003  1.223824051259162E-007
  1.072520956591053E-003  1.223824051259162E-007
  1.082120054825170E-003  1.223824051259162E-007
  1.084040470076337E-003  1.223824051259162E-007
  1.089491384707973E-003  1.223824051259162E-007
  1.093514656649634E-003  1.223824051259162E-007
  1.095491079807917E-003  1.223824051259162E-007
  1.106645295215626E-003  1.223824051259162E-007
  1.108867867319970E-003  1.223824051259162E-007
  1.114233788897480E-003  1.223824051259162E-007
  1.122567833888605E-003  1.223824051259162E-007
  1.135802517320610E-003  1.223824051259162E-007
  1.136289758217690E-003  1.223824051259162E-007
  1.141436553922163E-003  1.223824051259162E-007
  1.149249445922048E-003  1.223824051259162E-007
  1.150654269065103E-003  1.223824051259162E-007
  1.159863692716381E-003  1.223824051259162E-007
  1.162615932319452E-003  1.223824051259162E-007
  1.165243651966633E-003  1.223824051259162E-007
  1.166548622850333E-003  1.223824051259162E-007
  1.170653621534591E-003  1.223824051259162E-007
  1.171208482719961E-003  1.223824051259162E-007
  1.181144783989550E-003  1.223824051259162E-007
  1.181427811109603E-003  1.223824051259162E-007
  1.181683649170684E-003  1.223824051259162E-007
  1.182026442767331E-003  1.223824051259162E-007
  1.188250324844773E-003  1.223824051259162E-007
  1.265923388630105E-003  1.223824051259162E-007
  1.512387859788771E-003  1.223824051259162E-007
  1.588308693957670E-003  1.223824051259162E-007
  1.612924248898447E-003  1.223824051259162E-007
  1.672510415898424E-003  1.223824051259162E-007
  1.672660349353988E-003  1.223824051259162E-007
  1.719374151343546E-003  1.223824051259162E-007
  1.753213600114712E-003  1.223824051259162E-007
  1.843891274640337E-003  1.223824051259162E-007
  1.931566707126748E-003  1.223824051259162E-007
  1.934111292435833E-003  1.223824051259162E-007
  2.048821248420722E-003  1.223824051259162E-007
  2.176622644716768E-003  1.223824051259162E-007
  2.222168554800890E-003  1.223824051259162E-007
  2.340669972565584E-003  1.223824051259162E-007
  2.341966110531414E-003  1.223824051259162E-007
  2.419121415057483E-003  1.223824051259162E-007
  2.511875563443689E-003  1.223824051259162E-007
  2.539181323946976E-003  1.223824051259162E-007
  2.636078898959897E-003  1.223824051259162E-007
  3.032774941925497E-003  1.223824051259162E-007
  3.034191505901586E-003  1.223824051259162E-007
  3.037497708583626E-003  1.223824051259162E-007
  3.040460216765099E-003  1.223824051259162E-007
  3.053976495755552E-003  1.223824051259162E-007
  3.053982316900344E-003  1.223824051259162E-007
  3.099153815227972E-003  1.223824051259162E-007
  3.099307865059437E-003  1.223824051259162E-007
  3.116499366558107E-003  1.223824051259162E-007
  3.423430249033701E-003  1.223824051259162E-007
  3.430400845611472E-003  1.223824051259162E-007
  3.598394104602208E-003  1.223824051259162E-007
  3.618620360380139E-003  1.223824051259162E-007
  3.691505984010071E-003  1.223824051259162E-007
  3.700642663059009E-003  1.223824051259162E-007
  3.730579723103964E-003  1.223824051259162E-007
  3.764568843391181E-003  1.223824051259162E-007
  3.937478611368040E-003  1.223824051259162E-007
  4.047578397782300E-003  1.223824051259162E-007
 cut=1d-8, nber non-redundant internal coords=         216
 Check on Eigenvals of non-red overlap matrix:
  0.00000012  0.00000043  0.00000081  0.00000108  0.00000161  0.00000278  0.00000358  0.00000456
  0.00000758  0.00000886  0.00001088  0.00001350  0.00001432  0.00001477  0.00001554  0.00001814
  0.00002152  0.00002371  0.00002397  0.00002471  0.00002854  0.00002915  0.00002997  0.00003046
  0.00003161  0.00003508  0.00003854  0.00003951  0.00004110  0.00004148  0.00004268  0.00004394
  0.00004773  0.00004863  0.00005049  0.00005175  0.00005249  0.00005427  0.00005778  0.00005921
  0.00006295  0.00006485  0.00006771  0.00006908  0.00007219  0.00007273  0.00007361  0.00007725
  0.00007957  0.00008032  0.00008844  0.00009238  0.00009397  0.00009610  0.00010255  0.00010695
  0.00011369  0.00011752  0.00012081  0.00012999  0.00013208  0.00013335  0.00013424  0.00014010
  0.00014345  0.00014443  0.00014841  0.00016381  0.00016603  0.00017414  0.00017996  0.00018079
  0.00019443  0.00020450  0.00021496  0.00022791  0.00024804  0.00025255  0.00025587  0.00026053
  0.00027834  0.00029134  0.00030043  0.00030446  0.00031340  0.00032653  0.00033866  0.00036371
  0.00037157  0.00037718  0.00038090  0.00038521  0.00040591  0.00041471  0.00042207  0.00042716
  0.00043379  0.00043962  0.00044385  0.00044986  0.00045864  0.00046053  0.00046275  0.00049184
  0.00050815  0.00051205  0.00052412  0.00053496  0.00053498  0.00053794  0.00055617  0.00055620
  0.00055620  0.00055621  0.00057279  0.00057864  0.00057868  0.00059069  0.00059391  0.00059477
  0.00059655  0.00059674  0.00059722  0.00059870  0.00059936  0.00059984  0.00060034  0.00060863
  0.00061892  0.00062590  0.00062621  0.00063290  0.00063548  0.00063721  0.00063993  0.00064219
  0.00064727  0.00065156  0.00065895  0.00066287  0.00067671  0.00067716  0.00076538  0.00078995
  0.00079897  0.00084127  0.00087147  0.00099287  0.00099770  0.00100668  0.00106683  0.00107252
  0.00108212  0.00108404  0.00108949  0.00109351  0.00109549  0.00110665  0.00110887  0.00111423
  0.00112257  0.00113580  0.00113629  0.00114144  0.00114925  0.00115065  0.00115986  0.00116262
  0.00116524  0.00116655  0.00117065  0.00117121  0.00118114  0.00118143  0.00118168  0.00118203
  0.00118825  0.00126592  0.00151239  0.00158831  0.00161292  0.00167251  0.00167266  0.00171937
  0.00175321  0.00184389  0.00193157  0.00193411  0.00204882  0.00217662  0.00222217  0.00234067
  0.00234197  0.00241912  0.00251188  0.00253918  0.00263608  0.00303277  0.00303419  0.00303750
  0.00304046  0.00305398  0.00305398  0.00309915  0.00309931  0.00311650  0.00342343  0.00343040
  0.00359839  0.00361862  0.00369151  0.00370064  0.00373058  0.00376457  0.00393748  0.00404758
 Checking for correct frequencies
 recalc frequencies=
    -0.0   -0.0   -0.0   -0.0    0.0    0.0   11.4   12.1   18.0   30.1
    49.8   53.4   54.9   69.5   96.5   99.5  105.8  109.0  117.8  122.0
   146.3  153.7  166.1  180.9  209.6  211.9  222.8  227.7  245.5  250.6
   250.8  252.4  267.1  276.5  287.5  294.1  298.6  320.4  329.1  339.0
   361.9  379.0  383.9  405.9  423.1  425.4  428.5  437.8  441.7  458.0
   462.6  478.1  486.4  507.8  511.6  518.9  523.8  528.2  531.2  562.2
   565.4  566.0  584.0  584.9  595.1  613.3  631.8  641.6  644.9  663.3
   671.3  679.8  687.3  708.4  709.8  713.2  736.6  738.1  744.4  749.4
   752.6  764.8  774.3  785.1  787.1  803.4  825.5  828.6  843.2  854.2
   857.4  865.8  868.1  869.7  874.9  882.7  892.0  894.6  912.2  915.1
   918.6  922.0  936.9  962.3  962.4  970.0  991.0  996.8  999.9 1001.5
  1005.4 1007.6 1013.7 1022.0 1023.4 1025.9 1034.8 1039.4 1039.6 1057.5
  1096.6 1112.3 1117.0 1119.4 1136.7 1145.3 1150.1 1169.7 1171.6 1184.0
  1190.5 1191.2 1191.9 1210.8 1219.4 1227.4 1235.6 1254.7 1259.9 1261.9
  1267.2 1272.5 1276.9 1281.7 1282.0 1294.7 1298.3 1315.0 1323.4 1345.3
  1360.1 1377.5 1386.5 1401.0 1408.8 1408.9 1422.1 1427.9 1432.3 1437.1
  1444.2 1450.6 1461.3 1467.8 1476.1 1484.9 1490.2 1490.3 1495.2 1495.3
  1495.5 1509.7 1511.0 1512.1 1515.3 1517.3 1525.2 1538.2 1557.7 1559.9
  1579.7 1593.9 1609.2 1616.0 1633.3 1634.9 1664.2 1675.8 1690.0 1691.4
  1693.4 1719.0 3047.6 3047.7 3051.6 3051.8 3113.4 3113.6 3118.6 3118.8
  3131.0 3131.1 3133.0 3133.2 3181.1 3183.1 3185.4 3185.9 3186.8 3187.3
  3190.9 3191.6 3191.7 3200.6 3204.0 3206.7 3208.3 3209.5 3221.9 3222.1
  3225.9 3263.4
 recalc symmetries=
                                                                       
                                                                       
                                                                       
                                                                       
                                                                       
                                                                       
                                                                       
                                                                       
                                                                       
                                                                       
                                                                       
                                                                       
                                                                       
                                                                       
                                                                       
                                                                       
                                                                       
                                                                       
                                                                       
                                                                       
                                                                       
                                                                       
               
 recalc freqs check OK
 Zero-point lengths:
 10.0000 10.0000 10.0000 10.0000 10.0000 10.0000 73.3905 71.2829 58.4502 45.1705
 35.1361 33.9409 33.4503 29.7282 25.2314 24.8581 24.1026 23.7475 22.8451 22.4452
 20.4993 19.9998 19.2353 18.4310 17.1248 17.0318 16.6099 16.4292 15.8216 15.6596
 15.6551 15.6053 15.1697 14.9089 14.6207 14.4570 14.3476 13.8507 13.6653 13.4638
 13.0317 12.7343 12.6521 12.3059 12.0531 12.0197 11.9766 11.8477 11.7964 11.5847
 11.5262 11.3382 11.2405 11.0017 10.9600 10.8835 10.8317 10.7869 10.7565 10.4555
 10.4257 10.4208 10.2590 10.2510 10.1626 10.0102  9.8632  9.7875  9.7624  9.6255
  9.5683  9.5081  9.4561  9.3144  9.3052  9.2829  9.1344  9.1251  9.0864  9.0561
  9.0366  8.9643  8.9090  8.8478  8.8363  8.7465  8.6287  8.6123  8.5375  8.4823
  8.4664  8.4255  8.4143  8.4066  8.3812  8.3442  8.3005  8.2888  8.2085  8.1953
  8.1797  8.1647  8.0992  7.9919  7.9913  7.9600  7.8753  7.8521  7.8400  7.8337
  7.8184  7.8098  7.7866  7.7547  7.7496  7.7400  7.7067  7.6895  7.6890  7.6236
  7.4863  7.4335  7.4177  7.4096  7.3532  7.3256  7.3100  7.2485  7.2427  7.2047
  7.1851  7.1829  7.1807  7.1245  7.0995  7.0763  7.0528  6.9987  6.9843  6.9788
  6.9641  6.9498  6.9378  6.9248  6.9240  6.8898  6.8802  6.8364  6.8149  6.7590
  6.7221  6.6797  6.6578  6.6233  6.6050  6.6046  6.5741  6.5606  6.5506  6.5396
  6.5236  6.5092  6.4853  6.4708  6.4527  6.4336  6.4220  6.4218  6.4113  6.4112
  6.4106  6.3805  6.3777  6.3753  6.3687  6.3644  6.3479  6.3212  6.2813  6.2770
  6.2374  6.2095  6.1800  6.1671  6.1342  6.1312  6.0770  6.0560  6.0305  6.0279
  6.0244  5.9794  4.4907  4.4906  4.4878  4.4876  4.4430  4.4429  4.4393  4.4392
  4.4305  4.4304  4.4291  4.4290  4.3955  4.3941  4.3925  4.3922  4.3916  4.3912
  4.3888  4.3882  4.3882  4.3821  4.3797  4.3779  4.3768  4.3760  4.3676  4.3674
  4.3649  4.3397
 highest evec of mol 1
  0.0001  0.0002 -0.0000
  0.0001  0.0003 -0.0001
  0.0000  0.0002 -0.0001
  0.0005 -0.0068 -0.0010
  0.0406  0.0564 -0.0370
 -0.1244  0.2189  0.1417
 -0.0011 -0.0022  0.0010
  0.0018 -0.0026 -0.0021
  0.0001  0.0000 -0.0001
  0.0003  0.0003 -0.0003
  0.0001 -0.0001 -0.0001
 -0.0001 -0.0000  0.0001
 -0.0000  0.0001  0.0000
 -0.0002  0.0001  0.0002
 -0.0000 -0.0000  0.0000
 -0.0000  0.0000  0.0000
 -0.0000 -0.0000  0.0000
 -0.0000  0.0000  0.0000
  0.0000 -0.0000 -0.0000
 -0.0000 -0.0000  0.0000
 -0.0000  0.0000 -0.0000
 -0.0000  0.0000  0.0000
  0.0000 -0.0000  0.0000
 -0.0000  0.0000 -0.0000
 -0.0000 -0.0000  0.0000
 -0.0000  0.0000 -0.0000
 -0.0000  0.0000  0.0000
  0.0000 -0.0000 -0.0000
 -0.0000  0.0000  0.0000
 -0.0000 -0.0000  0.0000
  0.0000 -0.0000  0.0000
  0.0000  0.0000 -0.0000
 -0.0000 -0.0000  0.0000
 -0.0000  0.0000  0.0000
  0.0000 -0.0000  0.0000
  0.0000  0.0000  0.0000
  0.0000 -0.0000  0.0000
  0.0000  0.0000  0.0000
  0.0000 -0.0000 -0.0000
  0.0001  0.0001 -0.0001
  0.0000 -0.0000 -0.0000
  0.0000  0.0000 -0.0000
  0.0000 -0.0000 -0.0000
  0.0000 -0.0000 -0.0000
 -0.0001 -0.0006  0.0001
 -0.0000 -0.0000 -0.0000
 -0.0004  0.0001  0.0002
 -0.0001 -0.0006  0.0001
 -0.0002  0.0001  0.0004
  0.0000 -0.0000  0.0000
 -0.0898 -0.1764  0.0780
  0.3772 -0.7307 -0.4345
 -0.0011 -0.0003  0.0011
  0.0002  0.0000 -0.0002
 -0.0000 -0.0000 -0.0000
  0.0001 -0.0000 -0.0000
  0.0000  0.0000 -0.0000
  0.0000 -0.0000  0.0000
  0.0000 -0.0000  0.0000
  0.0000 -0.0000 -0.0000
  0.0000 -0.0000 -0.0000
  0.0000 -0.0000 -0.0000
 -0.0000  0.0000 -0.0000
 -0.0000  0.0000 -0.0000
  0.0000 -0.0000  0.0000
 -0.0001 -0.0001 -0.0000
 -0.0001  0.0000  0.0000
 -0.0002 -0.0004  0.0002
 -0.0001  0.0001  0.0001
  0.0000 -0.0000  0.0000
 -0.0000 -0.0000 -0.0000
  0.0000 -0.0000  0.0000
 -0.0000  0.0000 -0.0000
 -0.0001  0.0001  0.0001
 generating redundant internal coords
         300        3600          74
 Adding extra bonds for z output only
           6           6           6           6           6           6
          16           6           6           6           6           6
           6           6           6          16           6           6
           6           6           6           6           6           6
           6           6           6           6           6           6
           6           6           6           6           6           6
           6           6           6           6           6           6
           6           6           1           1           1           1
           1           1           1           1           1           1
           1           1           1           1           1           1
           1           1           1           1           1           1
           1           1           1           1           1           1
           1           1
 search for int coords
   1 str   2   1   1.535
   2 str   3   2   1.535
   3 str   4   2   1.515
   4 str   5   4   1.419
   5 str   6   5   1.362
   6 str   7   6   1.735
   7 str   8   4   1.364
   8 str   8   7   1.720
   9 str   9   8   1.455
  10 str  10   9   1.391
  11 str  11  10   1.382
  12 str  12  11   1.407
  13 str  13  12   1.392
  14 str  14   2   1.529
  15 str  14   9   1.407
  16 str  14  13   1.382
  17 str  15  12   1.453
  18 str  16  15   1.719
  19 str  17  16   1.752
  20 str  18  17   1.466
  21 str  19  18   1.397
  22 str  20  19   1.384
  23 str  21  20   1.395
  24 str  22  21   1.486
  25 str  23  22   1.394
  26 str  24  23   1.382
  27 str  25  24   1.393
  28 str  26  25   1.436
  29 str  27  26   1.348
  30 str  28  27   1.436
  31 str  29  28   1.395
  32 str  30  29   1.386
  33 str  31  30   1.385
  34 str  32  31   1.395
  35 str  33  32   1.435
  36 str  34  33   1.349
  37 str  35  22   1.408
  38 str  35  34   1.440
  39 str  36  25   1.417
  40 str  36  35   1.421
  41 str  37  28   1.418
  42 str  37  32   1.416
  43 str  37  36   1.427
  44 str  38  21   1.395
  45 str  39  18   1.397
  46 str  39  38   1.384
  47 str  40  17   1.370
  48 str  41  15   1.364
  49 str  41  40   1.415
  50 str  42  11   1.529
  51 str  42  41   1.515
  52 str  43  42   1.535
  53 str  44  42   1.535
  54 str  45   1   1.093
  55 str  46   1   1.091
  56 str  47   1   1.092
  57 str  48   3   1.093
  58 str  49   3   1.092
  59 str  50   3   1.091
  60 str  51   5   1.082
  61 str  52   6   1.079
  62 str  53  10   1.085
  63 str  54  13   1.085
  64 str  55  19   1.084
  65 str  56  20   1.083
  66 str  57  23   1.084
  67 str  58  24   1.084
  68 str  59  26   1.084
  69 str  60  27   1.084
  70 str  61  29   1.084
  71 str  62  30   1.083
  72 str  63  31   1.084
  73 str  64  33   1.084
  74 str  65  34   1.081
  75 str  66  38   1.084
  76 str  67  39   1.083
  77 str  68  40   1.082
  78 str  69  43   1.092
  79 str  70  43   1.093
  80 str  71  43   1.091
  81 str  72  44   1.091
  82 str  73  44   1.093
  83 str  74  44   1.092
 nber stretches=          83
  84 ben   1   2   3
  85 prop tor   1   2   3  48
  86 prop tor   1   2   3  49
  87 prop tor   1   2   3  50
  88 ben   1   2   4
  89 prop tor   1   2   4   5
  90 prop tor   1   2   4   8
  91 ben   1   2  14
  92 prop tor   1   2  14   9
  93 prop tor   1   2  14  13
  94 ben   2   1  45
  95 ben   2   1  46
  96 ben   2   1  47
  97 ben   2   3  48
  98 ben   2   3  49
  99 ben   2   3  50
 100 ben   2   4   5
 101 prop tor   2   4   5   6
 102 prop tor   2   4   5  51
 103 ben   2   4   8
 104 prop tor   2   4   8   7
 105 prop tor   2   4   8   9
 106 ben   2  14   9
 107 ben   2  14  13
 108 ben   3   2   4
 109 prop tor   3   2   4   5
 110 prop tor   3   2   4   8
 111 ben   3   2  14
 112 prop tor   3   2  14   9
 113 prop tor   3   2  14  13
 114 prop tor   4   2   3  48
 115 prop tor   4   2   3  49
 116 prop tor   4   2   3  50
 117 ben   4   2  14
 118 prop tor   4   2  14   9
 119 prop tor   4   2  14  13
 120 ben   4   5   6
 121 prop tor   4   5   6   7
 122 prop tor   4   5   6  52
 123 ben   4   5  51
 124 ben   4   8   7
 125 ben   4   8   9
 126 prop tor   4   8   9  10
 127 prop tor   4   8   9  14
 128 ben   5   4   8
 129 prop tor   5   4   8   7
 130 prop tor   5   4   8   9
 131 ben   5   6   7
 132 prop tor   5   6   7   8
 133 ben   5   6  52
 134 ben   6   5  51
 135 ben   6   7   8
 136 prop tor   6   7   8   4
 137 prop tor   6   7   8   9
 138 ben   7   6  52
 139 ben   7   8   9
 140 prop tor   7   8   9  10
 141 prop tor   7   8   9  14
 142 prop tor   8   4   5   6
 143 prop tor   8   4   5  51
 144 ben   8   9  10
 145 prop tor   8   9  10  11
 146 prop tor   8   9  10  53
 147 ben   8   9  14
 148 prop tor   8   9  14   2
 149 prop tor   8   9  14  13
 150 ben   9  10  11
 151 prop tor   9  10  11  12
 152 prop tor   9  10  11  42
 153 ben   9  10  53
 154 ben   9  14  13
 155 ben  10   9  14
 156 prop tor  10   9  14   2
 157 prop tor  10   9  14  13
 158 ben  10  11  12
 159 prop tor  10  11  12  13
 160 prop tor  10  11  12  15
 161 ben  10  11  42
 162 prop tor  10  11  42  41
 163 prop tor  10  11  42  43
 164 prop tor  10  11  42  44
 165 ben  11  10  53
 166 ben  11  12  13
 167 prop tor  11  12  13  14
 168 prop tor  11  12  13  54
 169 ben  11  12  15
 170 prop tor  11  12  15  16
 171 prop tor  11  12  15  41
 172 ben  11  42  41
 173 ben  11  42  43
 174 prop tor  11  42  43  69
 175 prop tor  11  42  43  70
 176 prop tor  11  42  43  71
 177 ben  11  42  44
 178 prop tor  11  42  44  72
 179 prop tor  11  42  44  73
 180 prop tor  11  42  44  74
 181 ben  12  11  42
 182 prop tor  12  11  42  41
 183 prop tor  12  11  42  43
 184 prop tor  12  11  42  44
 185 ben  12  13  14
 186 prop tor  12  13  14   2
 187 prop tor  12  13  14   9
 188 ben  12  13  54
 189 ben  12  15  16
 190 prop tor  12  15  16  17
 191 ben  12  15  41
 192 prop tor  12  15  41  40
 193 prop tor  12  15  41  42
 194 ben  13  12  15
 195 prop tor  13  12  15  16
 196 prop tor  13  12  15  41
 197 prop tor  14   2   3  48
 198 prop tor  14   2   3  49
 199 prop tor  14   2   3  50
 200 prop tor  14   2   4   5
 201 prop tor  14   2   4   8
 202 prop tor  14   9  10  11
 203 prop tor  14   9  10  53
 204 ben  14  13  54
 205 prop tor  15  12  13  14
 206 prop tor  15  12  13  54
 207 ben  15  16  17
 208 prop tor  15  16  17  18
 209 prop tor  15  16  17  40
 210 ben  15  41  40
 211 ben  15  41  42
 212 prop tor  15  41  42  11
 213 prop tor  15  41  42  43
 214 prop tor  15  41  42  44
 215 ben  16  15  41
 216 prop tor  16  15  41  40
 217 prop tor  16  15  41  42
 218 ben  16  17  18
 219 prop tor  16  17  18  19
 220 prop tor  16  17  18  39
 221 ben  16  17  40
 222 prop tor  16  17  40  41
 223 prop tor  16  17  40  68
 224 ben  17  18  19
 225 prop tor  17  18  19  20
 226 prop tor  17  18  19  55
 227 ben  17  18  39
 228 prop tor  17  18  39  38
 229 prop tor  17  18  39  67
 230 ben  17  40  41
 231 prop tor  17  40  41  15
 232 prop tor  17  40  41  42
 233 ben  17  40  68
 234 ben  18  17  40
 235 prop tor  18  17  40  41
 236 prop tor  18  17  40  68
 237 ben  18  19  20
 238 prop tor  18  19  20  21
 239 prop tor  18  19  20  56
 240 ben  18  19  55
 241 ben  18  39  38
 242 ben  18  39  67
 243 ben  19  18  39
 244 prop tor  19  18  39  38
 245 prop tor  19  18  39  67
 246 ben  19  20  21
 247 prop tor  19  20  21  22
 248 prop tor  19  20  21  38
 249 ben  19  20  56
 250 ben  20  19  55
 251 ben  20  21  22
 252 prop tor  20  21  22  23
 253 prop tor  20  21  22  35
 254 ben  20  21  38
 255 prop tor  20  21  38  39
 256 prop tor  20  21  38  66
 257 ben  21  20  56
 258 ben  21  22  23
 259 prop tor  21  22  23  24
 260 prop tor  21  22  23  57
 261 ben  21  22  35
 262 prop tor  21  22  35  34
 263 prop tor  21  22  35  36
 264 ben  21  38  39
 265 prop tor  21  38  39  18
 266 prop tor  21  38  39  67
 267 ben  21  38  66
 268 ben  22  21  38
 269 prop tor  22  21  38  39
 270 prop tor  22  21  38  66
 271 ben  22  23  24
 272 prop tor  22  23  24  25
 273 prop tor  22  23  24  58
 274 ben  22  23  57
 275 ben  22  35  34
 276 ben  22  35  36
 277 prop tor  22  35  36  25
 278 prop tor  22  35  36  37
 279 ben  23  22  35
 280 prop tor  23  22  35  34
 281 prop tor  23  22  35  36
 282 ben  23  24  25
 283 prop tor  23  24  25  26
 284 prop tor  23  24  25  36
 285 ben  23  24  58
 286 ben  24  23  57
 287 ben  24  25  26
 288 prop tor  24  25  26  27
 289 prop tor  24  25  26  59
 290 ben  24  25  36
 291 prop tor  24  25  36  35
 292 prop tor  24  25  36  37
 293 ben  25  24  58
 294 ben  25  26  27
 295 prop tor  25  26  27  28
 296 prop tor  25  26  27  60
 297 ben  25  26  59
 298 ben  25  36  35
 299 ben  25  36  37
 300 prop tor  25  36  37  28
 301 prop tor  25  36  37  32
 302 ben  26  25  36
 303 prop tor  26  25  36  35
 304 prop tor  26  25  36  37
 305 ben  26  27  28
 306 prop tor  26  27  28  29
 307 prop tor  26  27  28  37
 308 ben  26  27  60
 309 ben  27  26  59
 310 ben  27  28  29
 311 prop tor  27  28  29  30
 312 prop tor  27  28  29  61
 313 ben  27  28  37
 314 prop tor  27  28  37  32
 315 prop tor  27  28  37  36
 316 ben  28  27  60
 317 ben  28  29  30
 318 prop tor  28  29  30  31
 319 prop tor  28  29  30  62
 320 ben  28  29  61
 321 ben  28  37  32
 322 ben  28  37  36
 323 ben  29  28  37
 324 prop tor  29  28  37  32
 325 prop tor  29  28  37  36
 326 ben  29  30  31
 327 prop tor  29  30  31  32
 328 prop tor  29  30  31  63
 329 ben  29  30  62
 330 ben  30  29  61
 331 ben  30  31  32
 332 prop tor  30  31  32  33
 333 prop tor  30  31  32  37
 334 ben  30  31  63
 335 ben  31  30  62
 336 ben  31  32  33
 337 prop tor  31  32  33  34
 338 prop tor  31  32  33  64
 339 ben  31  32  37
 340 prop tor  31  32  37  28
 341 prop tor  31  32  37  36
 342 ben  32  31  63
 343 ben  32  33  34
 344 prop tor  32  33  34  35
 345 prop tor  32  33  34  65
 346 ben  32  33  64
 347 ben  32  37  36
 348 ben  33  32  37
 349 prop tor  33  32  37  28
 350 prop tor  33  32  37  36
 351 ben  33  34  35
 352 prop tor  33  34  35  22
 353 prop tor  33  34  35  36
 354 ben  33  34  65
 355 ben  34  33  64
 356 ben  34  35  36
 357 prop tor  34  35  36  25
 358 prop tor  34  35  36  37
 359 prop tor  35  22  23  24
 360 prop tor  35  22  23  57
 361 ben  35  34  65
 362 ben  35  36  37
 363 prop tor  35  36  37  28
 364 prop tor  35  36  37  32
 365 prop tor  36  25  26  27
 366 prop tor  36  25  26  59
 367 prop tor  37  28  29  30
 368 prop tor  37  28  29  61
 369 prop tor  37  32  33  34
 370 prop tor  37  32  33  64
 371 prop tor  38  21  22  23
 372 prop tor  38  21  22  35
 373 ben  38  39  67
 374 prop tor  39  18  19  20
 375 prop tor  39  18  19  55
 376 ben  39  38  66
 377 prop tor  40  17  18  19
 378 prop tor  40  17  18  39
 379 ben  40  41  42
 380 prop tor  40  41  42  11
 381 prop tor  40  41  42  43
 382 prop tor  40  41  42  44
 383 prop tor  41  15  16  17
 384 ben  41  40  68
 385 ben  41  42  43
 386 prop tor  41  42  43  69
 387 prop tor  41  42  43  70
 388 prop tor  41  42  43  71
 389 ben  41  42  44
 390 prop tor  41  42  44  72
 391 prop tor  41  42  44  73
 392 prop tor  41  42  44  74
 393 prop tor  42  11  12  13
 394 prop tor  42  11  12  15
 395 ben  42  43  69
 396 ben  42  43  70
 397 ben  42  43  71
 398 ben  42  44  72
 399 ben  42  44  73
 400 ben  42  44  74
 401 ben  43  42  44
 402 prop tor  43  42  44  72
 403 prop tor  43  42  44  73
 404 prop tor  43  42  44  74
 405 prop tor  44  42  43  69
 406 prop tor  44  42  43  70
 407 prop tor  44  42  43  71
 408 prop tor  45   1   2   3
 409 prop tor  45   1   2   4
 410 prop tor  45   1   2  14
 411 ben  45   1  46
 412 ben  45   1  47
 413 prop tor  46   1   2   3
 414 prop tor  46   1   2   4
 415 prop tor  46   1   2  14
 416 ben  46   1  47
 417 prop tor  47   1   2   3
 418 prop tor  47   1   2   4
 419 prop tor  47   1   2  14
 420 ben  48   3  49
 421 ben  48   3  50
 422 ben  49   3  50
 423 prop tor  51   5   6   7
 424 prop tor  51   5   6  52
 425 prop tor  52   6   7   8
 426 prop tor  53  10  11  12
 427 prop tor  53  10  11  42
 428 prop tor  54  13  14   2
 429 prop tor  54  13  14   9
 430 prop tor  55  19  20  21
 431 prop tor  55  19  20  56
 432 prop tor  56  20  21  22
 433 prop tor  56  20  21  38
 434 prop tor  57  23  24  25
 435 prop tor  57  23  24  58
 436 prop tor  58  24  25  26
 437 prop tor  58  24  25  36
 438 prop tor  59  26  27  28
 439 prop tor  59  26  27  60
 440 prop tor  60  27  28  29
 441 prop tor  60  27  28  37
 442 prop tor  61  29  30  31
 443 prop tor  61  29  30  62
 444 prop tor  62  30  31  32
 445 prop tor  62  30  31  63
 446 prop tor  63  31  32  33
 447 prop tor  63  31  32  37
 448 prop tor  64  33  34  35
 449 prop tor  64  33  34  65
 450 prop tor  65  34  35  22
 451 prop tor  65  34  35  36
 452 prop tor  66  38  39  18
 453 prop tor  66  38  39  67
 454 prop tor  68  40  41  15
 455 prop tor  68  40  41  42
 456 ben  69  43  70
 457 ben  69  43  71
 458 ben  70  43  71
 459 ben  72  44  73
 460 ben  72  44  74
 461 ben  73  44  74
 nber bend=             146
 nber lin bend=           0
 nber prop tor=         232
 nber impr tor=           0
 nber tot redund int=         461
 Reading file: 
 ./IDT-A_1_C0S1.log                                                             
                                          
  Entering Gaussian System, Link 0=g16                                          
  
 Gaussian format, type: g94, g98, g03= F F F
  #P Geom=AllCheck Guess=TCheck SCRF=Check GenChk RCAM-B3LYP TD(FC,Read)    
 energy type= TD      
 Original G94 input coords:
  6  1.041912 -1.106450 -1.361758
  6  2.477686 -0.863377 -0.875154
  6  2.642849 -1.355196  0.569847
  6  3.492467 -1.502834 -1.798712
  6  3.803932 -2.812502 -2.225149
  6  4.854311 -2.824626 -3.097840
 16  5.482282 -1.238069 -3.414847
  6  4.310481 -0.546789 -2.354365
  6  3.963560  0.767201 -1.897830
  6  4.499654  2.032917 -2.180120
  6  3.934977  3.123095 -1.571600
  6  2.829829  2.972132 -0.673990
  6  2.294604  1.694380 -0.394167
  6  2.865135  0.611064 -1.006693
  6  2.482415  4.255966 -0.220952
 16  1.302896  4.932110  0.847088
  6  1.933614  6.569360  0.531621
  6  1.357736  7.698419  1.153263
  6  0.247686  7.591587  2.034473
  6 -0.291192  8.691961  2.647968
  6  0.214981  9.989987  2.426251
  6 -0.383035 11.178242  3.027216
  6 -0.551380 12.319924  2.222516
  6 -1.203768 13.441484  2.671410
  6 -1.724535 13.499179  3.970662
  6 -2.441843 14.638459  4.447878
  6 -2.929851 14.686084  5.708156
  6 -2.730587 13.597614  6.617566
  6 -3.211931 13.630762  7.928648
  6 -2.991375 12.570130  8.792929
  6 -2.283590 11.457620  8.371234
  6 -1.787931 11.381174  7.066243
  6 -1.024266 10.265341  6.602020
  6 -0.568293 10.200623  5.329522
  6 -0.836007 11.235070  4.373902
  6 -1.525300 12.391311  4.832250
  6 -2.016496 12.454954  6.170909
  6  1.298775 10.103358  1.526377
  6  1.857913  9.010107  0.922745
  6  3.019881  6.518017 -0.375768
  6  3.315981  5.241365 -0.785552
  6  4.328213  4.594612 -1.708730
  6  4.162690  5.084796 -3.154134
  6  5.764428  4.836387 -1.223089
  1  0.802519 -2.172016 -1.328836
  1  0.912701 -0.757469 -2.387245
  1  0.325080 -0.579843 -0.727472
  1  2.430614 -2.424962  0.635983
  1  1.953105 -0.832557  1.236614
  1  3.659513 -1.184566  0.926764
  1  3.289433 -3.711541 -1.913903
  1  5.305563 -3.676824 -3.581518
  1  5.336889  2.137884 -2.861352
  1  1.457503  1.587288  0.286444
  1 -0.199828  6.621280  2.213867
  1 -1.158921  8.565524  3.282371
  1 -0.209905 12.284643  1.195537
  1 -1.346055 14.286931  2.007694
  1 -2.589310 15.471882  3.770001
  1 -3.476136 15.555622  6.055699
  1 -3.760957 14.502684  8.265848
  1 -3.371136 12.614600  9.806785
  1 -2.103864 10.633810  9.052659
  1 -0.795960  9.469362  7.302004
  1  0.040498  9.359954  5.029245
  1  1.726537 11.081170  1.340875
  1  2.706807  9.151547  0.266552
  1  3.543047  7.406551 -0.697710
  1  4.850261  4.558546 -3.820428
  1  4.377310  6.154032 -3.221116
  1  3.145137  4.917238 -3.509583
  1  5.893286  4.490749 -0.196560
  1  6.004810  5.901644 -1.258624
  1  6.479529  4.306065 -1.856367
 nber atoms=          74
  Total Energy, E(TD-HF/TD-DFT) =  -2414.33196416                               
  
          32          49 "  -2414.33196416"
After scan for Atom:   Atom  AN      X      Y      Z        X      Y      Z        X      Y      Z   
After scan for Atom:   Atom  AN      X      Y      Z        X      Y      Z        X      Y      Z   
After scan for Atom:   Atom  AN      X      Y      Z        X      Y      Z        X      Y      Z   
After scan for Atom:   Atom  AN      X      Y      Z        X      Y      Z        X      Y      Z   
After scan for Atom:   Atom  AN      X      Y      Z        X      Y      Z        X      Y      Z   
After scan for Atom:   Atom  AN      X      Y      Z        X      Y      Z        X      Y      Z   
After scan for Atom:   Atom  AN      X      Y      Z        X      Y      Z        X      Y      Z   
After scan for Atom:   Atom  AN      X      Y      Z        X      Y      Z        X      Y      Z   
After scan for Atom:   Atom  AN      X      Y      Z        X      Y      Z        X      Y      Z   
After scan for Atom:   Atom  AN      X      Y      Z        X      Y      Z        X      Y      Z   
After scan for Atom:   Atom  AN      X      Y      Z        X      Y      Z        X      Y      Z   
After scan for Atom:   Atom  AN      X      Y      Z        X      Y      Z        X      Y      Z   
After scan for Atom:   Atom  AN      X      Y      Z        X      Y      Z        X      Y      Z   
After scan for Atom:   Atom  AN      X      Y      Z        X      Y      Z        X      Y      Z   
After scan for Atom:   Atom  AN      X      Y      Z        X      Y      Z        X      Y      Z   
After scan for Atom:   Atom  AN      X      Y      Z        X      Y      Z        X      Y      Z   
After scan for Atom:   Atom  AN      X      Y      Z        X      Y      Z        X      Y      Z   
After scan for Atom:   Atom  AN      X      Y      Z        X      Y      Z        X      Y      Z   
After scan for Atom:   Atom  AN      X      Y      Z        X      Y      Z        X      Y      Z   
After scan for Atom:   Atom  AN      X      Y      Z        X      Y      Z        X      Y      Z   
After scan for Atom:   Atom  AN      X      Y      Z        X      Y      Z        X      Y      Z   
After scan for Atom:   Atom  AN      X      Y      Z        X      Y      Z        X      Y      Z   
After scan for Atom:   Atom  AN      X      Y      Z        X      Y      Z        X      Y      Z   
After scan for Atom:   Atom  AN      X      Y      Z        X      Y      Z        X      Y      Z   
After scan for Atom:   Atom  AN      X      Y      Z        X      Y      Z        X      Y      Z   
After scan for Atom:   Atom  AN      X      Y      Z        X      Y      Z        X      Y      Z   
After scan for Atom:   Atom  AN      X      Y      Z        X      Y      Z        X      Y      Z   
After scan for Atom:   Atom  AN      X      Y      Z        X      Y      Z        X      Y      Z   
After scan for Atom:   Atom  AN      X      Y      Z        X      Y      Z        X      Y      Z   
After scan for Atom:   Atom  AN      X      Y      Z        X      Y      Z        X      Y      Z   
After scan for Atom:   Atom  AN      X      Y      Z        X      Y      Z        X      Y      Z   
After scan for Atom:   Atom  AN      X      Y      Z        X      Y      Z        X      Y      Z   
After scan for Atom:   Atom  AN      X      Y      Z        X      Y      Z        X      Y      Z   
After scan for Atom:   Atom  AN      X      Y      Z        X      Y      Z        X      Y      Z   
After scan for Atom:   Atom  AN      X      Y      Z        X      Y      Z        X      Y      Z   
After scan for Atom:   Atom  AN      X      Y      Z        X      Y      Z        X      Y      Z   
After scan for Atom:   Atom  AN      X      Y      Z        X      Y      Z        X      Y      Z   
After scan for Atom:   Atom  AN      X      Y      Z        X      Y      Z        X      Y      Z   
After scan for Atom:   Atom  AN      X      Y      Z        X      Y      Z        X      Y      Z   
After scan for Atom:   Atom  AN      X      Y      Z        X      Y      Z        X      Y      Z   
After scan for Atom:   Atom  AN      X      Y      Z        X      Y      Z        X      Y      Z   
After scan for Atom:   Atom  AN      X      Y      Z        X      Y      Z        X      Y      Z   
After scan for Atom:   Atom  AN      X      Y      Z        X      Y      Z        X      Y      Z   
After scan for Atom:   Atom  AN      X      Y      Z        X      Y      Z        X      Y      Z   
After scan for Atom:   Atom  AN      X      Y      Z        X      Y      Z        X      Y      Z   
After scan for Atom:   Atom  AN      X      Y      Z        X      Y      Z        X      Y      Z   
After scan for Atom:   Atom  AN      X      Y      Z        X      Y      Z        X      Y      Z   
After scan for Atom:   Atom  AN      X      Y      Z        X      Y      Z        X      Y      Z   
After scan for Atom:   Atom  AN      X      Y      Z        X      Y      Z        X      Y      Z   
After scan for Atom:   Atom  AN      X      Y      Z        X      Y      Z        X      Y      Z   
After scan for Atom:   Atom  AN      X      Y      Z        X      Y      Z        X      Y      Z   
After scan for Atom:   Atom  AN      X      Y      Z        X      Y      Z        X      Y      Z   
After scan for Atom:   Atom  AN      X      Y      Z        X      Y      Z        X      Y      Z   
After scan for Atom:   Atom  AN      X      Y      Z        X      Y      Z        X      Y      Z   
After scan for Atom:   Atom  AN      X      Y      Z        X      Y      Z        X      Y      Z   
After scan for Atom:   Atom  AN      X      Y      Z        X      Y      Z        X      Y      Z   
After scan for Atom:   Atom  AN      X      Y      Z        X      Y      Z        X      Y      Z   
After scan for Atom:   Atom  AN      X      Y      Z        X      Y      Z        X      Y      Z   
After scan for Atom:   Atom  AN      X      Y      Z        X      Y      Z        X      Y      Z   
After scan for Atom:   Atom  AN      X      Y      Z        X      Y      Z        X      Y      Z   
After scan for Atom:   Atom  AN      X      Y      Z        X      Y      Z        X      Y      Z   
After scan for Atom:   Atom  AN      X      Y      Z        X      Y      Z        X      Y      Z   
After scan for Atom:   Atom  AN      X      Y      Z        X      Y      Z        X      Y      Z   
After scan for Atom:   Atom  AN      X      Y      Z        X      Y      Z        X      Y      Z   
After scan for Atom:   Atom  AN      X      Y      Z        X      Y      Z        X      Y      Z   
After scan for Atom:   Atom  AN      X      Y      Z        X      Y      Z        X      Y      Z   
After scan for Atom:   Atom  AN      X      Y      Z        X      Y      Z        X      Y      Z   
After scan for Atom:   Atom  AN      X      Y      Z        X      Y      Z        X      Y      Z   
After scan for Atom:   Atom  AN      X      Y      Z        X      Y      Z        X      Y      Z   
After scan for Atom:   Atom  AN      X      Y      Z        X      Y      Z        X      Y      Z   
After scan for Atom:   Atom  AN      X      Y      Z        X      Y      Z        X      Y      Z   
After scan for Atom:   Atom  AN      X      Y      Z        X      Y      Z        X      Y      Z   
 g94    frequencies=
     0.0    0.0    0.0    0.0    0.0    0.0   10.3   14.3   21.4   27.1
    46.8   52.0   66.5   71.9   90.6  104.0  106.4  112.3  118.5  129.2
   142.6  154.5  161.2  187.9  197.8  210.2  222.8  227.1  234.5  244.9
   248.5  249.5  267.2  274.4  282.9  292.0  295.8  306.7  319.3  333.9
   351.8  373.3  379.7  411.0  417.1  418.8  427.0  429.9  440.5  454.4
   456.6  467.5  485.0  492.5  502.5  513.0  518.9  527.8  528.9  546.3
   555.0  563.6  573.6  575.5  582.3  612.5  625.5  636.5  640.9  649.6
   664.2  678.0  678.0  684.4  703.6  710.8  716.1  723.3  728.4  744.0
[...]
   -1.   -0.   -0.    0.    0.    0.    3.   -1.    1.   -0.   -0.    0.   -0.    0.    0.    1.    0.   -0.   -1.    0.
   -0.    0.    0.    2.   -0.   -0.    0.    0.    0.   -0.   -0.    0.   -0.   -0.    0.    1.    0.    0.   -0.    1.
   -2.   -1.    1.    1.   -1.   -1.    0.    0.    1.   -0.    0.   -0.   -0.    1.    1.   -1.   -0.    1.    0.    0.
   -1.    1.    1.    0.    0.    0.   -0.    0.    0.   -0.    1.    0.   -0.    3.   -0.    0.   -1.    2.    0.    0.
    1.   -0.    3.   -0.    1.    2.   -0.   -0.    0.   -0.    1.    0.    1.    0.    0.   -0.   -2.   -0.   -1.   -1.
    4.   -1.   -1.   -3.   -1.   -0.   -1.   -0.    2.   -2.    4.    2.    0.   -0.   -0.   -0.   -0.    0.    0.    0.
    0.   -0.   -0.    0.   -0.   -0.    0.    0.   -0.   -0.    0.   -0.    0.   -0.   -0.   -0.   -0.   -1.   -0.    0.
    0.   -0.

 Displacement: in terms of nc of 1 THEN of nc of 2

   1     freq=    -0. Q= -0.000 lam=    -0.0     freq=    -0. Q= -0.000 lam=    -0.0
   2     freq=    -0. Q= -0.000 lam=    -0.0     freq=    -0. Q= -0.000 lam=    -0.0
   3     freq=    -0. Q= -0.000 lam=    -0.0     freq=     0. Q= -0.000 lam=     0.0
   4     freq=    -0. Q= -0.000 lam=    -0.0     freq=     0. Q= -0.000 lam=     0.0
   5     freq=     0. Q=  0.000 lam=     0.0     freq=     0. Q=  0.000 lam=     0.0
   6     freq=     0. Q=  0.000 lam=     0.0     freq=     0. Q=  0.000 lam=     0.0
   7     freq=    11. Q= -0.309 lam=     0.5     freq=    10. Q= -0.330 lam=     0.6
   8     freq=    12. Q= -3.046 lam=    56.1     freq=    14. Q= -3.103 lam=    68.9
   9     freq=    18. Q= -1.242 lam=    13.9     freq=    21. Q= -2.260 lam=    54.6
  10     freq=    30. Q=  2.045 lam=    63.0     freq=    27. Q=  1.434 lam=    27.8
  11     freq=    50. Q= -0.746 lam=    13.9     freq=    47. Q= -1.467 lam=    50.4
  12     freq=    53. Q=  1.879 lam=    94.2     freq=    52. Q=  0.871 lam=    19.7
  13     freq=    55. Q= -3.263 lam=   292.5     freq=    66. Q= -1.919 lam=   122.3
  14     freq=    70. Q=  1.258 lam=    55.1     freq=    72. Q=  2.697 lam=   261.6
  15     freq=    97. Q=  0.672 lam=    21.8     freq=    91. Q=  1.800 lam=   146.8
  16     freq=    99. Q= -0.248 lam=     3.1     freq=   104. Q= -0.016 lam=     0.0
  17     freq=   106. Q= -0.926 lam=    45.4     freq=   106. Q= -0.835 lam=    37.1
  18     freq=   109. Q=  1.204 lam=    79.0     freq=   112. Q=  0.057 lam=     0.2
  19     freq=   118. Q= -0.465 lam=    12.7     freq=   118. Q= -2.571 lam=   391.6
  20     freq=   122. Q= -0.678 lam=    28.0     freq=   129. Q= -0.253 lam=     4.1
  21     freq=   146. Q=  0.001 lam=     0.0     freq=   143. Q=  0.119 lam=     1.0
  22     freq=   154. Q=  0.155 lam=     1.8     freq=   154. Q=  0.339 lam=     8.9
  23     freq=   166. Q=  0.156 lam=     2.0     freq=   161. Q=  0.122 lam=     1.2
  24     freq=   181. Q=  0.047 lam=     0.2     freq=   188. Q=  0.252 lam=     6.0
  25     freq=   210. Q= -0.183 lam=     3.5     freq=   198. Q= -0.048 lam=     0.2
  26     freq=   212. Q=  0.262 lam=     7.3     freq=   210. Q=  0.200 lam=     4.2
  27     freq=   223. Q=  0.248 lam=     6.8     freq=   223. Q=  0.094 lam=     1.0
  28     freq=   228. Q= -0.218 lam=     5.4     freq=   227. Q= -0.190 lam=     4.1
  29     freq=   246. Q=  0.083 lam=     0.8     freq=   235. Q=  0.089 lam=     0.9
  30     freq=   251. Q=  0.044 lam=     0.2     freq=   245. Q=  0.003 lam=     0.0
  31     freq=   251. Q= -0.032 lam=     0.1     freq=   249. Q= -0.223 lam=     6.2
  32     freq=   252. Q=  0.360 lam=    16.4     freq=   250. Q=  0.025 lam=     0.1
  33     freq=   267. Q=  0.218 lam=     6.3     freq=   267. Q=  0.403 lam=    21.6
  34     freq=   276. Q= -0.056 lam=     0.4     freq=   274. Q= -0.031 lam=     0.1
  35     freq=   288. Q=  0.046 lam=     0.3     freq=   283. Q=  0.001 lam=     0.0
  36     freq=   294. Q=  0.178 lam=     4.7     freq=   292. Q=  0.016 lam=     0.0
  37     freq=   299. Q= -0.022 lam=     0.1     freq=   296. Q= -0.080 lam=     0.9
  38     freq=   320. Q= -0.110 lam=     1.9     freq=   307. Q= -0.130 lam=     2.6
  39     freq=   329. Q= -0.006 lam=     0.0     freq=   319. Q= -0.266 lam=    11.3
  40     freq=   339. Q=  0.496 lam=    41.6     freq=   334. Q=  0.508 lam=    43.2
  41     freq=   362. Q=  0.078 lam=     1.1     freq=   352. Q=  0.158 lam=     4.4
  42     freq=   379. Q= -0.066 lam=     0.8     freq=   373. Q= -0.069 lam=     0.9
  43     freq=   384. Q=  0.049 lam=     0.5     freq=   380. Q=  0.239 lam=    10.8
  44     freq=   406. Q= -0.018 lam=     0.1     freq=   411. Q= -0.023 lam=     0.1
  45     freq=   423. Q= -0.067 lam=     1.0     freq=   417. Q= -0.002 lam=     0.0
  46     freq=   425. Q= -0.076 lam=     1.2     freq=   419. Q= -0.152 lam=     4.8
  47     freq=   428. Q=  0.048 lam=     0.5     freq=   427. Q=  0.080 lam=     1.4
  48     freq=   438. Q=  0.060 lam=     0.8     freq=   430. Q=  0.039 lam=     0.3
  49     freq=   442. Q=  0.120 lam=     3.2     freq=   441. Q=  0.127 lam=     3.6
  50     freq=   458. Q= -0.216 lam=    10.7     freq=   454. Q= -0.026 lam=     0.2
  51     freq=   463. Q= -0.032 lam=     0.2     freq=   457. Q= -0.278 lam=    17.7
  52     freq=   478. Q=  0.035 lam=     0.3     freq=   467. Q=  0.051 lam=     0.6
  53     freq=   486. Q=  0.050 lam=     0.6     freq=   485. Q=  0.105 lam=     2.7
  54     freq=   508. Q= -0.246 lam=    15.3     freq=   493. Q= -0.240 lam=    14.2
  55     freq=   512. Q=  0.035 lam=     0.3     freq=   502. Q=  0.484 lam=    58.8
  56     freq=   519. Q=  0.093 lam=     2.2     freq=   513. Q=  0.032 lam=     0.3
  57     freq=   524. Q=  0.065 lam=     1.1     freq=   519. Q=  0.102 lam=     2.7
  58     freq=   528. Q=  0.039 lam=     0.4     freq=   528. Q=  0.004 lam=     0.0
  59     freq=   531. Q= -0.057 lam=     0.9     freq=   529. Q= -0.174 lam=     8.0
  60     freq=   562. Q=  0.222 lam=    13.9     freq=   546. Q=  0.240 lam=    15.8
  61     freq=   565. Q= -0.046 lam=     0.6     freq=   555. Q= -0.269 lam=    20.1
  62     freq=   566. Q=  0.068 lam=     1.3     freq=   564. Q=  0.040 lam=     0.5
  63     freq=   584. Q=  0.114 lam=     3.8     freq=   574. Q=  0.088 lam=     2.2
  64     freq=   585. Q=  0.229 lam=    15.3     freq=   575. Q=  0.477 lam=    65.5
  65     freq=   595. Q=  0.133 lam=     5.3     freq=   582. Q=  0.289 lam=    24.3
  66     freq=   613. Q= -0.033 lam=     0.3     freq=   613. Q= -0.088 lam=     2.4
  67     freq=   632. Q=  0.091 lam=     2.6     freq=   626. Q=  0.319 lam=    31.7
  68     freq=   642. Q= -0.000 lam=     0.0     freq=   637. Q= -0.113 lam=     4.1
  69     freq=   645. Q= -0.293 lam=    27.7     freq=   641. Q= -0.586 lam=   110.0
  70     freq=   663. Q=  0.162 lam=     8.7     freq=   650. Q=  0.023 lam=     0.2
  71     freq=   671. Q=  0.106 lam=     3.8     freq=   664. Q=  0.109 lam=     4.0
  72     freq=   680. Q=  0.012 lam=     0.0     freq=   678. Q=  0.058 lam=     1.1
  73     freq=   687. Q=  0.284 lam=    27.6     freq=   678. Q=  0.129 lam=     5.6
  74     freq=   708. Q=  0.046 lam=     0.7     freq=   684. Q=  0.122 lam=     5.1
  75     freq=   710. Q= -0.070 lam=     1.7     freq=   704. Q= -0.034 lam=     0.4
  76     freq=   713. Q=  0.044 lam=     0.7     freq=   711. Q=  0.007 lam=     0.0
  77     freq=   737. Q= -0.055 lam=     1.1     freq=   716. Q= -0.014 lam=     0.1
  78     freq=   738. Q= -0.429 lam=    68.0     freq=   723. Q= -0.045 lam=     0.7
  79     freq=   744. Q=  0.182 lam=    12.3     freq=   728. Q=  0.581 lam=   123.1
  80     freq=   749. Q= -0.127 lam=     6.1     freq=   744. Q= -0.014 lam=     0.1
  81     freq=   753. Q=  0.167 lam=    10.5     freq=   747. Q=  0.055 lam=     1.1
  82     freq=   765. Q=  0.024 lam=     0.2     freq=   755. Q=  0.021 lam=     0.2
  83     freq=   774. Q= -0.051 lam=     1.0     freq=   759. Q= -0.021 lam=     0.2
  84     freq=   785. Q= -0.062 lam=     1.5     freq=   781. Q= -0.046 lam=     0.8
  85     freq=   787. Q= -0.105 lam=     4.3     freq=   783. Q= -0.056 lam=     1.2
  86     freq=   803. Q= -0.002 lam=     0.0     freq=   790. Q= -0.003 lam=     0.0
  87     freq=   825. Q=  0.023 lam=     0.2     freq=   815. Q=  0.351 lam=    50.2
  88     freq=   829. Q=  0.099 lam=     4.1     freq=   819. Q=  0.088 lam=     3.2
  89     freq=   843. Q=  0.019 lam=     0.2     freq=   821. Q=  0.099 lam=     4.0
  90     freq=   854. Q= -0.036 lam=     0.5     freq=   830. Q= -0.020 lam=     0.2
  91     freq=   857. Q=  0.007 lam=     0.0     freq=   840. Q=  0.015 lam=     0.1
  92     freq=   866. Q= -0.042 lam=     0.8     freq=   843. Q= -0.003 lam=     0.0
  93     freq=   868. Q= -0.052 lam=     1.2     freq=   847. Q= -0.041 lam=     0.7
  94     freq=   870. Q=  0.008 lam=     0.0     freq=   857. Q=  0.024 lam=     0.2
  95     freq=   875. Q=  0.054 lam=     1.3     freq=   865. Q=  0.023 lam=     0.2
  96     freq=   883. Q= -0.081 lam=     2.9     freq=   869. Q= -0.088 lam=     3.3
  97     freq=   892. Q=  0.042 lam=     0.8     freq=   878. Q=  0.030 lam=     0.4
  98     freq=   895. Q=  0.195 lam=    17.0     freq=   882. Q=  0.008 lam=     0.0
  99     freq=   912. Q=  0.001 lam=     0.0     freq=   889. Q=  0.066 lam=     1.9
 100     freq=   915. Q=  0.003 lam=     0.0     freq=   909. Q=  0.004 lam=     0.0
 101     freq=   919. Q=  0.100 lam=     4.6     freq=   912. Q=  0.000 lam=     0.0
 102     freq=   922. Q=  0.001 lam=     0.0     freq=   916. Q=  0.043 lam=     0.9
 103     freq=   937. Q= -0.002 lam=     0.0     freq=   930. Q= -0.002 lam=     0.0
 104     freq=   962. Q=  0.001 lam=     0.0     freq=   951. Q=  0.209 lam=    20.8
 105     freq=   962. Q= -0.002 lam=     0.0     freq=   962. Q= -0.008 lam=     0.0
 106     freq=   970. Q= -0.044 lam=     0.9     freq=   963. Q= -0.006 lam=     0.0
 107     freq=   991. Q= -0.019 lam=     0.2     freq=   985. Q= -0.027 lam=     0.4
 108     freq=   997. Q= -0.037 lam=     0.7     freq=   993. Q= -0.041 lam=     0.8
 109     freq=  1000. Q=  0.031 lam=     0.5     freq=   995. Q=  0.039 lam=     0.8
 110     freq=  1002. Q=  0.051 lam=     1.3     freq=   999. Q=  0.062 lam=     1.9
 111     freq=  1005. Q= -0.019 lam=     0.2     freq=  1000. Q= -0.052 lam=     1.3
 112     freq=  1008. Q=  0.079 lam=     3.2     freq=  1002. Q=  0.005 lam=     0.0
 113     freq=  1014. Q= -0.016 lam=     0.1     freq=  1009. Q= -0.003 lam=     0.0
 114     freq=  1022. Q= -0.041 lam=     0.9     freq=  1011. Q= -0.058 lam=     1.7
 115     freq=  1023. Q= -0.020 lam=     0.2     freq=  1015. Q= -0.044 lam=     1.0
 116     freq=  1026. Q=  0.109 lam=     6.1     freq=  1017. Q=  0.111 lam=     6.3
 117     freq=  1035. Q= -0.155 lam=    12.5     freq=  1022. Q= -0.011 lam=     0.1
 118     freq=  1039. Q= -0.001 lam=     0.0     freq=  1037. Q= -0.002 lam=     0.0
 119     freq=  1040. Q= -0.001 lam=     0.0     freq=  1038. Q= -0.001 lam=     0.0
 120     freq=  1057. Q=  0.066 lam=     2.3     freq=  1039. Q=  0.158 lam=    12.9
 121     freq=  1097. Q= -0.190 lam=    19.7     freq=  1085. Q= -0.235 lam=    30.1
 122     freq=  1112. Q=  0.041 lam=     0.9     freq=  1108. Q=  0.099 lam=     5.4
 123     freq=  1117. Q=  0.095 lam=     5.0     freq=  1111. Q=  0.117 lam=     7.6
 124     freq=  1119. Q= -0.074 lam=     3.1     freq=  1114. Q= -0.081 lam=     3.7
 125     freq=  1137. Q= -0.014 lam=     0.1     freq=  1140. Q= -0.135 lam=    10.4
 126     freq=  1145. Q= -0.011 lam=     0.1     freq=  1142. Q= -0.193 lam=    21.3
 127     freq=  1150. Q= -0.091 lam=     4.8     freq=  1152. Q= -0.009 lam=     0.0
 128     freq=  1170. Q=  0.085 lam=     4.3     freq=  1170. Q=  0.056 lam=     1.8
 129     freq=  1172. Q=  0.026 lam=     0.4     freq=  1176. Q=  0.092 lam=     5.0
 130     freq=  1184. Q= -0.002 lam=     0.0     freq=  1184. Q= -0.007 lam=     0.0
 131     freq=  1190. Q= -0.024 lam=     0.3     freq=  1190. Q= -0.014 lam=     0.1
 132     freq=  1191. Q= -0.001 lam=     0.0     freq=  1191. Q= -0.005 lam=     0.0
 133     freq=  1192. Q= -0.002 lam=     0.0     freq=  1191. Q= -0.017 lam=     0.2
 134     freq=  1211. Q=  0.001 lam=     0.0     freq=  1192. Q=  0.100 lam=     6.0
 135     freq=  1219. Q=  0.287 lam=    50.2     freq=  1212. Q=  0.094 lam=     5.3
 136     freq=  1227. Q= -0.118 lam=     8.6     freq=  1219. Q= -0.210 lam=    26.8
 137     freq=  1236. Q=  0.173 lam=    18.5     freq=  1225. Q=  0.017 lam=     0.2
 138     freq=  1255. Q=  0.009 lam=     0.1     freq=  1242. Q=  0.126 lam=     9.8
 139     freq=  1260. Q= -0.004 lam=     0.0     freq=  1251. Q= -0.057 lam=     2.0
 140     freq=  1262. Q=  0.119 lam=     8.9     freq=  1256. Q=  0.048 lam=     1.5
 141     freq=  1267. Q= -0.168 lam=    17.8     freq=  1259. Q= -0.195 lam=    23.9
 142     freq=  1272. Q=  0.049 lam=     1.5     freq=  1267. Q=  0.153 lam=    14.9
 143     freq=  1277. Q=  0.121 lam=     9.4     freq=  1275. Q=  0.075 lam=     3.6
 144     freq=  1282. Q=  0.047 lam=     1.4     freq=  1282. Q=  0.002 lam=     0.0
 145     freq=  1282. Q=  0.046 lam=     1.4     freq=  1291. Q=  0.014 lam=     0.1
 146     freq=  1295. Q= -0.061 lam=     2.4     freq=  1301. Q= -0.040 lam=     1.0
 147     freq=  1298. Q= -0.058 lam=     2.2     freq=  1303. Q= -0.033 lam=     0.7
 148     freq=  1315. Q= -0.198 lam=    25.8     freq=  1318. Q= -0.050 lam=     1.7
 149     freq=  1323. Q=  0.063 lam=     2.6     freq=  1338. Q=  0.044 lam=     1.3
 150     freq=  1345. Q=  0.038 lam=     1.0     freq=  1345. Q=  0.029 lam=     0.6
 151     freq=  1360. Q= -0.035 lam=     0.8     freq=  1367. Q= -0.143 lam=    13.9
 152     freq=  1377. Q=  0.089 lam=     5.5     freq=  1381. Q=  0.034 lam=     0.8
 153     freq=  1386. Q=  0.305 lam=    64.5     freq=  1386. Q=  0.070 lam=     3.4
 154     freq=  1401. Q=  0.006 lam=     0.0     freq=  1399. Q=  0.423 lam=   125.1
 155     freq=  1409. Q=  0.000 lam=     0.0     freq=  1407. Q=  0.003 lam=     0.0
 156     freq=  1409. Q=  0.001 lam=     0.0     freq=  1409. Q=  0.002 lam=     0.0
 157     freq=  1422. Q= -0.067 lam=     3.2     freq=  1409. Q= -0.223 lam=    34.9
 158     freq=  1428. Q= -0.075 lam=     4.0     freq=  1416. Q= -0.364 lam=    93.8
 159     freq=  1432. Q= -0.044 lam=     1.4     freq=  1426. Q= -0.003 lam=     0.0
 160     freq=  1437. Q= -0.021 lam=     0.3     freq=  1430. Q= -0.010 lam=     0.1
 161     freq=  1444. Q= -0.274 lam=    54.1     freq=  1431. Q= -0.219 lam=    34.2
 162     freq=  1451. Q=  0.018 lam=     0.2     freq=  1449. Q=  0.074 lam=     4.0
 163     freq=  1461. Q=  0.092 lam=     6.2     freq=  1458. Q=  0.436 lam=   138.3
 164     freq=  1468. Q= -0.087 lam=     5.5     freq=  1460. Q= -0.037 lam=     1.0
 165     freq=  1476. Q= -0.168 lam=    20.7     freq=  1474. Q= -0.202 lam=    30.0
 166     freq=  1485. Q=  0.025 lam=     0.5     freq=  1482. Q=  0.290 lam=    62.5
 167     freq=  1490. Q= -0.000 lam=     0.0     freq=  1490. Q= -0.001 lam=     0.0
 168     freq=  1490. Q= -0.003 lam=     0.0     freq=  1490. Q= -0.003 lam=     0.0
 169     freq=  1495. Q= -0.036 lam=     1.0     freq=  1492. Q= -0.001 lam=     0.0
 170     freq=  1495. Q= -0.011 lam=     0.1     freq=  1494. Q= -0.001 lam=     0.0
 171     freq=  1496. Q=  0.721 lam=   388.3     freq=  1499. Q=  0.143 lam=    15.4
 172     freq=  1510. Q= -0.003 lam=     0.0     freq=  1508. Q= -0.068 lam=     3.5
 173     freq=  1511. Q=  0.102 lam=     7.8     freq=  1508. Q=  0.151 lam=    17.2
 174     freq=  1512. Q=  0.073 lam=     4.1     freq=  1510. Q=  0.037 lam=     1.0
 175     freq=  1515. Q= -0.231 lam=    40.3     freq=  1515. Q= -0.066 lam=     3.3
 176     freq=  1517. Q= -0.439 lam=   146.4     freq=  1515. Q= -0.021 lam=     0.3
 177     freq=  1525. Q=  0.306 lam=    71.6     freq=  1530. Q=  0.276 lam=    58.3
 178     freq=  1538. Q=  0.458 lam=   161.3     freq=  1537. Q=  0.031 lam=     0.7
 179     freq=  1558. Q=  0.094 lam=     6.9     freq=  1541. Q=  0.089 lam=     6.2
 180     freq=  1560. Q=  0.390 lam=   118.6     freq=  1542. Q=  0.085 lam=     5.5
 181     freq=  1580. Q=  0.026 lam=     0.5     freq=  1551. Q=  0.587 lam=   266.7
 182     freq=  1594. Q=  0.100 lam=     8.0     freq=  1558. Q=  0.096 lam=     7.2
 183     freq=  1609. Q= -0.142 lam=    16.3     freq=  1566. Q= -0.184 lam=    26.6
 184     freq=  1616. Q=  0.079 lam=     5.0     freq=  1578. Q=  0.539 lam=   229.2
 185     freq=  1633. Q= -0.054 lam=     2.4     freq=  1591. Q= -0.223 lam=    39.5
 186     freq=  1635. Q=  0.125 lam=    12.8     freq=  1600. Q=  0.069 lam=     3.8
 187     freq=  1664. Q= -0.012 lam=     0.1     freq=  1629. Q= -0.170 lam=    23.5
 188     freq=  1676. Q= -0.110 lam=    10.1     freq=  1653. Q= -0.027 lam=     0.6
 189     freq=  1690. Q= -0.566 lam=   270.5     freq=  1669. Q= -0.247 lam=    51.1
 190     freq=  1691. Q=  0.201 lam=    34.1     freq=  1677. Q=  0.399 lam=   133.7
 191     freq=  1693. Q= -0.315 lam=    84.0     freq=  1682. Q= -0.586 lam=   288.7
 192     freq=  1719. Q=  0.111 lam=    10.6     freq=  1695. Q=  0.271 lam=    62.0
 193     freq=  3048. Q=  0.000 lam=     0.0     freq=  3048. Q=  0.006 lam=     0.0
 194     freq=  3048. Q=  0.000 lam=     0.0     freq=  3048. Q=  0.005 lam=     0.0
 195     freq=  3052. Q=  0.001 lam=     0.0     freq=  3052. Q=  0.040 lam=     2.4
 196     freq=  3052. Q=  0.001 lam=     0.0     freq=  3052. Q=  0.051 lam=     4.0
 197     freq=  3113. Q= -0.000 lam=     0.0     freq=  3115. Q= -0.000 lam=     0.0
 198     freq=  3114. Q=  0.000 lam=     0.0     freq=  3115. Q=  0.001 lam=     0.0
 199     freq=  3119. Q= -0.000 lam=     0.0     freq=  3120. Q= -0.005 lam=     0.0
 200     freq=  3119. Q=  0.002 lam=     0.0     freq=  3120. Q=  0.004 lam=     0.0
 201     freq=  3131. Q=  0.000 lam=     0.0     freq=  3132. Q=  0.005 lam=     0.0
 202     freq=  3131. Q=  0.000 lam=     0.0     freq=  3132. Q=  0.006 lam=     0.1
 203     freq=  3133. Q= -0.000 lam=     0.0     freq=  3134. Q= -0.032 lam=     1.6
 204     freq=  3133. Q=  0.002 lam=     0.0     freq=  3135. Q=  0.032 lam=     1.6
 205     freq=  3181. Q= -0.001 lam=     0.0     freq=  3180. Q= -0.027 lam=     1.1
 206     freq=  3183. Q=  0.001 lam=     0.0     freq=  3182. Q=  0.003 lam=     0.0
 207     freq=  3185. Q=  0.004 lam=     0.0     freq=  3185. Q=  0.022 lam=     0.8
 208     freq=  3186. Q= -0.004 lam=     0.0     freq=  3187. Q= -0.024 lam=     0.9
 209     freq=  3187. Q=  0.012 lam=     0.2     freq=  3187. Q=  0.027 lam=     1.2
 210     freq=  3187. Q= -0.001 lam=     0.0     freq=  3191. Q= -0.004 lam=     0.0
 211     freq=  3191. Q= -0.001 lam=     0.0     freq=  3191. Q= -0.004 lam=     0.0
 212     freq=  3192. Q= -0.002 lam=     0.0     freq=  3192. Q= -0.036 lam=     2.1
 213     freq=  3192. Q=  0.002 lam=     0.0     freq=  3194. Q=  0.026 lam=     1.1
 214     freq=  3200. Q=  0.001 lam=     0.0     freq=  3200. Q=  0.019 lam=     0.6
 215     freq=  3204. Q=  0.005 lam=     0.0     freq=  3207. Q=  0.049 lam=     3.9
 216     freq=  3207. Q= -0.007 lam=     0.1     freq=  3208. Q= -0.069 lam=     7.7
 217     freq=  3208. Q= -0.001 lam=     0.0     freq=  3213. Q= -0.030 lam=     1.5
 218     freq=  3209. Q=  0.012 lam=     0.2     freq=  3215. Q=  0.124 lam=    24.7
 219     freq=  3222. Q=  0.003 lam=     0.0     freq=  3222. Q=  0.022 lam=     0.8
 220     freq=  3222. Q= -0.020 lam=     0.6     freq=  3232. Q= -0.001 lam=     0.0
 221     freq=  3226. Q= -0.002 lam=     0.0     freq=  3238. Q= -0.010 lam=     0.2
 222     freq=  3263. Q= -0.000 lam=     0.0     freq=  3263. Q= -0.003 lam=     0.0

 total reorg energy (cm**-1, kcal/mol)=     2962.     3992.      8.47     11.41
 Nber of molecules processed=           2
