 Entering Gaussian System, Link 0=g16
 Input=phenothiazine-pyrene_0_C0S1.gjf
 Output=phenothiazine-pyrene_0_C0S1.log
 Initial command:
 /apps/gaussian/g16-c01-avx/g16/l1.exe "/var/tmp/pbs.6467006.pbs/Gau-1351180.inp" -scrdir="/var/tmp/pbs.6467006.pbs/"
 Entering Link 1 = /apps/gaussian/g16-c01-avx/g16/l1.exe PID=   1351882.
  
 Copyright (c) 1988-2019, Gaussian, Inc.  All Rights Reserved.
  
 This is part of the Gaussian(R) 16 program.  It is based on
 the Gaussian(R) 09 system (copyright 2009, Gaussian, Inc.),
 the Gaussian(R) 03 system (copyright 2003, Gaussian, Inc.),
 the Gaussian(R) 98 system (copyright 1998, Gaussian, Inc.),
 the Gaussian(R) 94 system (copyright 1995, Gaussian, Inc.),
 the Gaussian 92(TM) system (copyright 1992, Gaussian, Inc.),
 the Gaussian 90(TM) system (copyright 1990, Gaussian, Inc.),
 the Gaussian 88(TM) system (copyright 1988, Gaussian, Inc.),
 the Gaussian 86(TM) system (copyright 1986, Carnegie Mellon
 University), and the Gaussian 82(TM) system (copyright 1983,
 Carnegie Mellon University). Gaussian is a federally registered
 trademark of Gaussian, Inc.
  
 This software contains proprietary and confidential information,
 including trade secrets, belonging to Gaussian, Inc.
  
 This software is provided under written license and may be
 used, copied, transmitted, or stored only in accord with that
 written license.
  
 The following legend is applicable only to US Government
 contracts under FAR:
  
                    RESTRICTED RIGHTS LEGEND
  
 Use, reproduction and disclosure by the US Government is
 subject to restrictions as set forth in subparagraphs (a)
 and (c) of the Commercial Computer Software - Restricted
 Rights clause in FAR 52.227-19.
  
 Gaussian, Inc.
 340 Quinnipiac St., Bldg. 40, Wallingford CT 06492
  
  
 ---------------------------------------------------------------
 Warning -- This program may not be used in any manner that
 competes with the business of Gaussian, Inc. or will provide
 assistance to any competitor of Gaussian, Inc.  The licensee
 of this program is prohibited from giving any competitor of
 Gaussian, Inc. access to this program.  By using this program,
 the user acknowledges that Gaussian, Inc. is engaged in the
 business of creating and licensing software in the field of
 computational chemistry and represents and warrants to the
 licensee that it is not a competitor of Gaussian, Inc. and that
 it will not use this program in any manner prohibited above.
 ---------------------------------------------------------------
  

 Cite this work as:
 Gaussian 16, Revision C.01,
 M. J. Frisch, G. W. Trucks, H. B. Schlegel, G. E. Scuseria, 
 M. A. Robb, J. R. Cheeseman, G. Scalmani, V. Barone, 
 G. A. Petersson, H. Nakatsuji, X. Li, M. Caricato, A. V. Marenich, 
 J. Bloino, B. G. Janesko, R. Gomperts, B. Mennucci, H. P. Hratchian, 
 J. V. Ortiz, A. F. Izmaylov, J. L. Sonnenberg, D. Williams-Young, 
 F. Ding, F. Lipparini, F. Egidi, J. Goings, B. Peng, A. Petrone, 
 T. Henderson, D. Ranasinghe, V. G. Zakrzewski, J. Gao, N. Rega, 
 G. Zheng, W. Liang, M. Hada, M. Ehara, K. Toyota, R. Fukuda, 
 J. Hasegawa, M. Ishida, T. Nakajima, Y. Honda, O. Kitao, H. Nakai, 
 T. Vreven, K. Throssell, J. A. Montgomery, Jr., J. E. Peralta, 
 F. Ogliaro, M. J. Bearpark, J. J. Heyd, E. N. Brothers, K. N. Kudin, 
 V. N. Staroverov, T. A. Keith, R. Kobayashi, J. Normand, 
 K. Raghavachari, A. P. Rendell, J. C. Burant, S. S. Iyengar, 
 J. Tomasi, M. Cossi, J. M. Millam, M. Klene, C. Adamo, R. Cammi, 
 J. W. Ochterski, R. L. Martin, K. Morokuma, O. Farkas, 
 J. B. Foresman, and D. J. Fox, Gaussian, Inc., Wallingford CT, 2019.
 
 ******************************************
 Gaussian 16:  ES64L-G16RevC.01  3-Jul-2019
                 8-Nov-2022 
 ******************************************
 %chk=phenothiazine-pyrene_0_C0S1.chk
 %mem=5GB
 %nprocshared=32
 Will use up to   32 processors via shared memory.
 ---------------------------------------------------
 #p opt freq td(NStates=20,Root=1) b3lyp/6-311g(d,p)
 ---------------------------------------------------
 1/18=20,19=15,26=3,38=1/1,3;
 2/9=110,12=2,17=6,18=5,40=1/2;
 3/5=4,6=6,7=101,11=9,25=1,30=1,71=1,74=-5/1,2,3,8;
 4//1;
 5/5=2,38=5/2;
 8/6=1,10=2,107=1,108=20/1;
 9/8=1,15=2,41=20,42=1,70=2/14;
 10/5=4,28=1/2;
 6/7=2,8=2,9=2,10=2/1;
 7/12=6,13=5,14=1/1,2,3,16;
 1/18=20,19=15,26=3/3(2);
 2/9=110/2;
 99//99;
 2/9=110/2;
 3/5=4,6=6,7=101,11=9,25=1,30=1,71=1,74=-5/1,2,3,8;
 4/5=5,16=3,69=1/1;
 5/5=2,38=5/2;
 8/6=1,10=2,107=1,108=20/1;
 9/8=1,15=2,41=20,42=1,49=4,70=2/14;
 10/5=4,28=1/2;
 7/12=6,13=5,14=1/1,2,3,16;
 1/18=20,19=15,26=3/3(-8);
 2/9=110/2;
 6/7=2,8=2,9=2,10=2/1;
 99/9=10/99;
 Leave Link    1 at Tue Nov  8 20:12:05 2022, MaxMem=   671088640 cpu:               0.9 elap:               0.0
 (Enter /apps/gaussian/g16-c01-avx/g16/l101.exe)
 -----------------------------
 phenothiazine-pyrene_0 S1 opt
 -----------------------------
 Symbolic Z-matrix:
 Charge =  0 Multiplicity = 1
 C                    -4.44542   3.89711   0. 
 C                    -2.94542   3.89711   0. 
 C                    -2.19542   2.59808   0. 
 C                    -2.94542   1.29904   0. 
 C                    -4.44542   1.29904   0. 
 C                    -5.19542   2.59808   0. 
 S                    -5.19542   0.        0. 
 C                    -4.44542  -1.29904   0. 
 C                    -5.19542  -2.59808   0. 
 C                    -4.44542  -3.89711   0. 
 C                    -2.94542  -3.89711   0. 
 C                    -2.19542  -2.59808   0. 
 C                    -2.94542  -1.29904   0. 
 N                    -2.19542   0.        0. 
 C                    -0.69542  0.         0. 
 C                     0.05458  -1.29904   0. 
 C                     1.55458  -1.29904   0. 
 C                     2.30458  -2.59808   0. 
 C                     3.80458  -2.59808   0. 
 C                     4.55458  -1.29904   0. 
 C                     6.05458  -1.29904   0. 
 C                     6.80458  0.         0. 
 C                     6.05458   1.29904   0. 
 C                     4.55458   1.29904   0. 
 C                     3.80458   2.59808   0. 
 C                     2.30458   2.59808   0. 
 C                     1.55458   1.29904   0. 
 C                     0.05458   1.29904   0. 
 C                     2.30458  0.         0. 
 C                     3.80458  0.         0. 
 H                    -5.19542   5.19615   0. 
 H                    -2.19542   5.19615   0. 
 H                    -1.21861   2.71804   0. 
 H                    -6.69542   2.59808   0. 
 H                    -6.69542  -2.59808   0. 
 H                    -5.19542  -5.19615   0. 
 H                    -2.19542  -5.19615   0. 
 H                    -1.21861  -2.71804   0. 
 H                    -0.32993  -2.20496   0. 
 H                     1.55458  -3.89711   0. 
 H                     4.55458  -3.89711   0. 
 H                     6.80458  -2.59808   0. 
 H                     8.30458  0.         0. 
 H                     6.80458   2.59808   0. 
 H                     4.55458   3.89711   0. 
 H                     1.55458   3.89711   0. 
 H                    -0.32993   2.20496   0. 
 
 Add virtual bond connecting atoms H31        and C1         Dist= 2.83D+00.
 Add virtual bond connecting atoms H36        and C10        Dist= 2.83D+00.
 Add virtual bond connecting atoms H37        and C11        Dist= 2.83D+00.
 Add virtual bond connecting atoms H34        and C6         Dist= 2.83D+00.
 Add virtual bond connecting atoms H43        and C22        Dist= 2.83D+00.
 Add virtual bond connecting atoms H44        and C23        Dist= 2.83D+00.
 Add virtual bond connecting atoms H45        and C25        Dist= 2.83D+00.
 Add virtual bond connecting atoms H46        and C26        Dist= 2.83D+00.
 Add virtual bond connecting atoms H41        and C19        Dist= 2.83D+00.
 Add virtual bond connecting atoms H32        and C2         Dist= 2.83D+00.
 Add virtual bond connecting atoms H40        and C18        Dist= 2.83D+00.
 Add virtual bond connecting atoms H42        and C21        Dist= 2.83D+00.
 Add virtual bond connecting atoms H35        and C9         Dist= 2.83D+00.
 ITRead=  0  0  0  0  0  0  0  0  0  0  0  0  0  0  0  0  0  0  0  0
 ITRead=  0  0  0  0  0  0  0  0  0  0  0  0  0  0  0  0  0  0  0  0
 ITRead=  0  0  0  0  0  0  0
 MicOpt= -1 -1 -1 -1 -1 -1 -1 -1 -1 -1 -1 -1 -1 -1 -1 -1 -1 -1 -1 -1
 MicOpt= -1 -1 -1 -1 -1 -1 -1 -1 -1 -1 -1 -1 -1 -1 -1 -1 -1 -1 -1 -1
 MicOpt= -1 -1 -1 -1 -1 -1 -1
 NAtoms=     47 NQM=       47 NQMF=       0 NMMI=      0 NMMIF=      0
                NMic=       0 NMicF=      0.
                    Isotopes and Nuclear Properties:
 (Nuclear quadrupole moments (NQMom) in fm**2, nuclear magnetic moments (NMagM)
  in nuclear magnetons)

  Atom         1           2           3           4           5           6           7           8           9          10
 IAtWgt=          12          12          12          12          12          12          32          12          12          12
 AtmWgt=  12.0000000  12.0000000  12.0000000  12.0000000  12.0000000  12.0000000  31.9720718  12.0000000  12.0000000  12.0000000
 NucSpn=           0           0           0           0           0           0           0           0           0           0
 AtZEff=  -0.0000000  -0.0000000  -0.0000000  -0.0000000  -0.0000000  -0.0000000  -0.0000000  -0.0000000  -0.0000000  -0.0000000
 NQMom=    0.0000000   0.0000000   0.0000000   0.0000000   0.0000000   0.0000000   0.0000000   0.0000000   0.0000000   0.0000000
 NMagM=    0.0000000   0.0000000   0.0000000   0.0000000   0.0000000   0.0000000   0.0000000   0.0000000   0.0000000   0.0000000
 AtZNuc=   6.0000000   6.0000000   6.0000000   6.0000000   6.0000000   6.0000000  16.0000000   6.0000000   6.0000000   6.0000000

  Atom        11          12          13          14          15          16          17          18          19          20
 IAtWgt=          12          12          12          14          12          12          12          12          12          12
 AtmWgt=  12.0000000  12.0000000  12.0000000  14.0030740  12.0000000  12.0000000  12.0000000  12.0000000  12.0000000  12.0000000
 NucSpn=           0           0           0           2           0           0           0           0           0           0
 AtZEff=  -0.0000000  -0.0000000  -0.0000000  -0.0000000  -0.0000000  -0.0000000  -0.0000000  -0.0000000  -0.0000000  -0.0000000
 NQMom=    0.0000000   0.0000000   0.0000000   2.0440000   0.0000000   0.0000000   0.0000000   0.0000000   0.0000000   0.0000000
 NMagM=    0.0000000   0.0000000   0.0000000   0.4037610   0.0000000   0.0000000   0.0000000   0.0000000   0.0000000   0.0000000
 AtZNuc=   6.0000000   6.0000000   6.0000000   7.0000000   6.0000000   6.0000000   6.0000000   6.0000000   6.0000000   6.0000000

  Atom        21          22          23          24          25          26          27          28          29          30
 IAtWgt=          12          12          12          12          12          12          12          12          12          12
 AtmWgt=  12.0000000  12.0000000  12.0000000  12.0000000  12.0000000  12.0000000  12.0000000  12.0000000  12.0000000  12.0000000
 NucSpn=           0           0           0           0           0           0           0           0           0           0
 AtZEff=  -0.0000000  -0.0000000  -0.0000000  -0.0000000  -0.0000000  -0.0000000  -0.0000000  -0.0000000  -0.0000000  -0.0000000
 NQMom=    0.0000000   0.0000000   0.0000000   0.0000000   0.0000000   0.0000000   0.0000000   0.0000000   0.0000000   0.0000000
 NMagM=    0.0000000   0.0000000   0.0000000   0.0000000   0.0000000   0.0000000   0.0000000   0.0000000   0.0000000   0.0000000
 AtZNuc=   6.0000000   6.0000000   6.0000000   6.0000000   6.0000000   6.0000000   6.0000000   6.0000000   6.0000000   6.0000000

  Atom        31          32          33          34          35          36          37          38          39          40
 IAtWgt=           1           1           1           1           1           1           1           1           1           1
 AtmWgt=   1.0078250   1.0078250   1.0078250   1.0078250   1.0078250   1.0078250   1.0078250   1.0078250   1.0078250   1.0078250
 NucSpn=           1           1           1           1           1           1           1           1           1           1
 AtZEff=  -0.0000000  -0.0000000  -0.0000000  -0.0000000  -0.0000000  -0.0000000  -0.0000000  -0.0000000  -0.0000000  -0.0000000
 NQMom=    0.0000000   0.0000000   0.0000000   0.0000000   0.0000000   0.0000000   0.0000000   0.0000000   0.0000000   0.0000000
 NMagM=    2.7928460   2.7928460   2.7928460   2.7928460   2.7928460   2.7928460   2.7928460   2.7928460   2.7928460   2.7928460
 AtZNuc=   1.0000000   1.0000000   1.0000000   1.0000000   1.0000000   1.0000000   1.0000000   1.0000000   1.0000000   1.0000000

  Atom        41          42          43          44          45          46          47
 IAtWgt=           1           1           1           1           1           1           1
 AtmWgt=   1.0078250   1.0078250   1.0078250   1.0078250   1.0078250   1.0078250   1.0078250
 NucSpn=           1           1           1           1           1           1           1
 AtZEff=  -0.0000000  -0.0000000  -0.0000000  -0.0000000  -0.0000000  -0.0000000  -0.0000000
 NQMom=    0.0000000   0.0000000   0.0000000   0.0000000   0.0000000   0.0000000   0.0000000
 NMagM=    2.7928460   2.7928460   2.7928460   2.7928460   2.7928460   2.7928460   2.7928460
 AtZNuc=   1.0000000   1.0000000   1.0000000   1.0000000   1.0000000   1.0000000   1.0000000
 Leave Link  101 at Tue Nov  8 20:12:05 2022, MaxMem=   671088640 cpu:               3.1 elap:               0.1
 (Enter /apps/gaussian/g16-c01-avx/g16/l103.exe)

 GradGradGradGradGradGradGradGradGradGradGradGradGradGradGradGradGradGrad
 Berny optimization.
 Initialization pass.
                           ----------------------------
                           !    Initial Parameters    !
                           ! (Angstroms and Degrees)  !
 --------------------------                            --------------------------
 ! Name  Definition              Value          Derivative Info.                !
 --------------------------------------------------------------------------------
 ! R1    R(1,2)                  1.5            estimate D2E/DX2                !
 ! R2    R(1,6)                  1.5            estimate D2E/DX2                !
 ! R3    R(1,31)                 1.5            estimate D2E/DX2                !
 ! R4    R(2,3)                  1.5            estimate D2E/DX2                !
 ! R5    R(2,32)                 1.5            estimate D2E/DX2                !
 ! R6    R(3,4)                  1.5            estimate D2E/DX2                !
 ! R7    R(3,33)                 0.9841         estimate D2E/DX2                !
 ! R8    R(4,5)                  1.5            estimate D2E/DX2                !
 ! R9    R(4,14)                 1.5            estimate D2E/DX2                !
 ! R10   R(5,6)                  1.5            estimate D2E/DX2                !
 ! R11   R(5,7)                  1.5            estimate D2E/DX2                !
 ! R12   R(6,34)                 1.5            estimate D2E/DX2                !
 ! R13   R(7,8)                  1.5            estimate D2E/DX2                !
 ! R14   R(8,9)                  1.5            estimate D2E/DX2                !
 ! R15   R(8,13)                 1.5            estimate D2E/DX2                !
 ! R16   R(9,10)                 1.5            estimate D2E/DX2                !
 ! R17   R(9,35)                 1.5            estimate D2E/DX2                !
 ! R18   R(10,11)                1.5            estimate D2E/DX2                !
 ! R19   R(10,36)                1.5            estimate D2E/DX2                !
 ! R20   R(11,12)                1.5            estimate D2E/DX2                !
 ! R21   R(11,37)                1.5            estimate D2E/DX2                !
 ! R22   R(12,13)                1.5            estimate D2E/DX2                !
 ! R23   R(12,38)                0.9841         estimate D2E/DX2                !
 ! R24   R(13,14)                1.5            estimate D2E/DX2                !
 ! R25   R(14,15)                1.5            estimate D2E/DX2                !
 ! R26   R(15,16)                1.5            estimate D2E/DX2                !
 ! R27   R(15,28)                1.5            estimate D2E/DX2                !
 ! R28   R(16,17)                1.5            estimate D2E/DX2                !
 ! R29   R(16,39)                0.9841         estimate D2E/DX2                !
 ! R30   R(17,18)                1.5            estimate D2E/DX2                !
 ! R31   R(17,29)                1.5            estimate D2E/DX2                !
 ! R32   R(18,19)                1.5            estimate D2E/DX2                !
 ! R33   R(18,40)                1.5            estimate D2E/DX2                !
 ! R34   R(19,20)                1.5            estimate D2E/DX2                !
 ! R35   R(19,41)                1.5            estimate D2E/DX2                !
 ! R36   R(20,21)                1.5            estimate D2E/DX2                !
 ! R37   R(20,30)                1.5            estimate D2E/DX2                !
 ! R38   R(21,22)                1.5            estimate D2E/DX2                !
 ! R39   R(21,42)                1.5            estimate D2E/DX2                !
 ! R40   R(22,23)                1.5            estimate D2E/DX2                !
 ! R41   R(22,43)                1.5            estimate D2E/DX2                !
 ! R42   R(23,24)                1.5            estimate D2E/DX2                !
 ! R43   R(23,44)                1.5            estimate D2E/DX2                !
 ! R44   R(24,25)                1.5            estimate D2E/DX2                !
 ! R45   R(24,30)                1.5            estimate D2E/DX2                !
 ! R46   R(25,26)                1.5            estimate D2E/DX2                !
 ! R47   R(25,45)                1.5            estimate D2E/DX2                !
 ! R48   R(26,27)                1.5            estimate D2E/DX2                !
 ! R49   R(26,46)                1.5            estimate D2E/DX2                !
 ! R50   R(27,28)                1.5            estimate D2E/DX2                !
 ! R51   R(27,29)                1.5            estimate D2E/DX2                !
 ! R52   R(28,47)                0.9841         estimate D2E/DX2                !
 ! R53   R(29,30)                1.5            estimate D2E/DX2                !
 ! A1    A(2,1,6)              120.0            estimate D2E/DX2                !
 ! A2    A(2,1,31)             120.0            estimate D2E/DX2                !
 ! A3    A(6,1,31)             120.0            estimate D2E/DX2                !
 ! A4    A(1,2,3)              120.0            estimate D2E/DX2                !
 ! A5    A(1,2,32)             120.0            estimate D2E/DX2                !
 ! A6    A(3,2,32)             120.0            estimate D2E/DX2                !
 ! A7    A(2,3,4)              120.0            estimate D2E/DX2                !
 ! A8    A(2,3,33)             112.9985         estimate D2E/DX2                !
 ! A9    A(4,3,33)             127.0015         estimate D2E/DX2                !
 ! A10   A(3,4,5)              120.0            estimate D2E/DX2                !
 ! A11   A(3,4,14)             120.0            estimate D2E/DX2                !
 ! A12   A(5,4,14)             120.0            estimate D2E/DX2                !
 ! A13   A(4,5,6)              120.0            estimate D2E/DX2                !
 ! A14   A(4,5,7)              120.0            estimate D2E/DX2                !
 ! A15   A(6,5,7)              120.0            estimate D2E/DX2                !
 ! A16   A(1,6,5)              120.0            estimate D2E/DX2                !
 ! A17   A(1,6,34)             120.0            estimate D2E/DX2                !
 ! A18   A(5,6,34)             120.0            estimate D2E/DX2                !
 ! A19   A(5,7,8)              120.0            estimate D2E/DX2                !
 ! A20   A(7,8,9)              120.0            estimate D2E/DX2                !
 ! A21   A(7,8,13)             120.0            estimate D2E/DX2                !
 ! A22   A(9,8,13)             120.0            estimate D2E/DX2                !
 ! A23   A(8,9,10)             120.0            estimate D2E/DX2                !
 ! A24   A(8,9,35)             120.0            estimate D2E/DX2                !
 ! A25   A(10,9,35)            120.0            estimate D2E/DX2                !
 ! A26   A(9,10,11)            120.0            estimate D2E/DX2                !
 ! A27   A(9,10,36)            120.0            estimate D2E/DX2                !
 ! A28   A(11,10,36)           120.0            estimate D2E/DX2                !
 ! A29   A(10,11,12)           120.0            estimate D2E/DX2                !
 ! A30   A(10,11,37)           120.0            estimate D2E/DX2                !
 ! A31   A(12,11,37)           120.0            estimate D2E/DX2                !
 ! A32   A(11,12,13)           120.0            estimate D2E/DX2                !
 ! A33   A(11,12,38)           112.9985         estimate D2E/DX2                !
 ! A34   A(13,12,38)           127.0015         estimate D2E/DX2                !
 ! A35   A(8,13,12)            120.0            estimate D2E/DX2                !
 ! A36   A(8,13,14)            120.0            estimate D2E/DX2                !
 ! A37   A(12,13,14)           120.0            estimate D2E/DX2                !
 ! A38   A(4,14,13)            120.0            estimate D2E/DX2                !
 ! A39   A(4,14,15)            120.0            estimate D2E/DX2                !
 ! A40   A(13,14,15)           120.0            estimate D2E/DX2                !
 ! A41   A(14,15,16)           120.0            estimate D2E/DX2                !
 ! A42   A(14,15,28)           120.0            estimate D2E/DX2                !
 ! A43   A(16,15,28)           120.0            estimate D2E/DX2                !
 ! A44   A(15,16,17)           120.0            estimate D2E/DX2                !
 ! A45   A(15,16,39)           127.0015         estimate D2E/DX2                !
 ! A46   A(17,16,39)           112.9985         estimate D2E/DX2                !
 ! A47   A(16,17,18)           120.0            estimate D2E/DX2                !
 ! A48   A(16,17,29)           120.0            estimate D2E/DX2                !
 ! A49   A(18,17,29)           120.0            estimate D2E/DX2                !
 ! A50   A(17,18,19)           120.0            estimate D2E/DX2                !
 ! A51   A(17,18,40)           120.0            estimate D2E/DX2                !
 ! A52   A(19,18,40)           120.0            estimate D2E/DX2                !
 ! A53   A(18,19,20)           120.0            estimate D2E/DX2                !
 ! A54   A(18,19,41)           120.0            estimate D2E/DX2                !
 ! A55   A(20,19,41)           120.0            estimate D2E/DX2                !
 ! A56   A(19,20,21)           120.0            estimate D2E/DX2                !
 ! A57   A(19,20,30)           120.0            estimate D2E/DX2                !
 ! A58   A(21,20,30)           120.0            estimate D2E/DX2                !
 ! A59   A(20,21,22)           120.0            estimate D2E/DX2                !
 ! A60   A(20,21,42)           120.0            estimate D2E/DX2                !
 ! A61   A(22,21,42)           120.0            estimate D2E/DX2                !
 ! A62   A(21,22,23)           120.0            estimate D2E/DX2                !
 ! A63   A(21,22,43)           120.0            estimate D2E/DX2                !
 ! A64   A(23,22,43)           120.0            estimate D2E/DX2                !
 ! A65   A(22,23,24)           120.0            estimate D2E/DX2                !
 ! A66   A(22,23,44)           120.0            estimate D2E/DX2                !
 ! A67   A(24,23,44)           120.0            estimate D2E/DX2                !
 ! A68   A(23,24,25)           120.0            estimate D2E/DX2                !
 ! A69   A(23,24,30)           120.0            estimate D2E/DX2                !
 ! A70   A(25,24,30)           120.0            estimate D2E/DX2                !
 ! A71   A(24,25,26)           120.0            estimate D2E/DX2                !
 ! A72   A(24,25,45)           120.0            estimate D2E/DX2                !
 ! A73   A(26,25,45)           120.0            estimate D2E/DX2                !
 ! A74   A(25,26,27)           120.0            estimate D2E/DX2                !
 ! A75   A(25,26,46)           120.0            estimate D2E/DX2                !
 ! A76   A(27,26,46)           120.0            estimate D2E/DX2                !
 ! A77   A(26,27,28)           120.0            estimate D2E/DX2                !
 ! A78   A(26,27,29)           120.0            estimate D2E/DX2                !
 ! A79   A(28,27,29)           120.0            estimate D2E/DX2                !
 ! A80   A(15,28,27)           120.0            estimate D2E/DX2                !
 ! A81   A(15,28,47)           127.0015         estimate D2E/DX2                !
 ! A82   A(27,28,47)           112.9985         estimate D2E/DX2                !
 ! A83   A(17,29,27)           120.0            estimate D2E/DX2                !
 ! A84   A(17,29,30)           120.0            estimate D2E/DX2                !
 ! A85   A(27,29,30)           120.0            estimate D2E/DX2                !
 ! A86   A(20,30,24)           120.0            estimate D2E/DX2                !
 ! A87   A(20,30,29)           120.0            estimate D2E/DX2                !
 ! A88   A(24,30,29)           120.0            estimate D2E/DX2                !
 ! D1    D(6,1,2,3)              0.0            estimate D2E/DX2                !
 ! D2    D(6,1,2,32)           180.0            estimate D2E/DX2                !
 ! D3    D(31,1,2,3)           180.0            estimate D2E/DX2                !
 ! D4    D(31,1,2,32)            0.0            estimate D2E/DX2                !
 ! D5    D(2,1,6,5)              0.0            estimate D2E/DX2                !
 ! D6    D(2,1,6,34)           180.0            estimate D2E/DX2                !
 ! D7    D(31,1,6,5)           180.0            estimate D2E/DX2                !
 ! D8    D(31,1,6,34)            0.0            estimate D2E/DX2                !
 ! D9    D(1,2,3,4)              0.0            estimate D2E/DX2                !
 ! D10   D(1,2,3,33)           180.0            estimate D2E/DX2                !
 ! D11   D(32,2,3,4)           180.0            estimate D2E/DX2                !
 ! D12   D(32,2,3,33)            0.0            estimate D2E/DX2                !
 ! D13   D(2,3,4,5)              0.0            estimate D2E/DX2                !
 ! D14   D(2,3,4,14)           180.0            estimate D2E/DX2                !
 ! D15   D(33,3,4,5)           180.0            estimate D2E/DX2                !
 ! D16   D(33,3,4,14)            0.0            estimate D2E/DX2                !
 ! D17   D(3,4,5,6)              0.0            estimate D2E/DX2                !
 ! D18   D(3,4,5,7)            180.0            estimate D2E/DX2                !
 ! D19   D(14,4,5,6)           180.0            estimate D2E/DX2                !
 ! D20   D(14,4,5,7)             0.0            estimate D2E/DX2                !
 ! D21   D(3,4,14,13)          180.0            estimate D2E/DX2                !
 ! D22   D(3,4,14,15)            0.0            estimate D2E/DX2                !
 ! D23   D(5,4,14,13)            0.0            estimate D2E/DX2                !
 ! D24   D(5,4,14,15)          180.0            estimate D2E/DX2                !
 ! D25   D(4,5,6,1)              0.0            estimate D2E/DX2                !
 ! D26   D(4,5,6,34)           180.0            estimate D2E/DX2                !
 ! D27   D(7,5,6,1)            180.0            estimate D2E/DX2                !
 ! D28   D(7,5,6,34)             0.0            estimate D2E/DX2                !
 ! D29   D(4,5,7,8)              0.0            estimate D2E/DX2                !
 ! D30   D(6,5,7,8)            180.0            estimate D2E/DX2                !
 ! D31   D(5,7,8,9)            180.0            estimate D2E/DX2                !
 ! D32   D(5,7,8,13)             0.0            estimate D2E/DX2                !
 ! D33   D(7,8,9,10)           180.0            estimate D2E/DX2                !
 ! D34   D(7,8,9,35)             0.0            estimate D2E/DX2                !
 ! D35   D(13,8,9,10)            0.0            estimate D2E/DX2                !
 ! D36   D(13,8,9,35)          180.0            estimate D2E/DX2                !
 ! D37   D(7,8,13,12)          180.0            estimate D2E/DX2                !
 ! D38   D(7,8,13,14)            0.0            estimate D2E/DX2                !
 ! D39   D(9,8,13,12)            0.0            estimate D2E/DX2                !
 ! D40   D(9,8,13,14)          180.0            estimate D2E/DX2                !
 ! D41   D(8,9,10,11)            0.0            estimate D2E/DX2                !
 ! D42   D(8,9,10,36)          180.0            estimate D2E/DX2                !
 ! D43   D(35,9,10,11)         180.0            estimate D2E/DX2                !
 ! D44   D(35,9,10,36)           0.0            estimate D2E/DX2                !
 ! D45   D(9,10,11,12)           0.0            estimate D2E/DX2                !
 ! D46   D(9,10,11,37)         180.0            estimate D2E/DX2                !
 ! D47   D(36,10,11,12)        180.0            estimate D2E/DX2                !
 ! D48   D(36,10,11,37)          0.0            estimate D2E/DX2                !
 ! D49   D(10,11,12,13)          0.0            estimate D2E/DX2                !
 ! D50   D(10,11,12,38)        180.0            estimate D2E/DX2                !
 ! D51   D(37,11,12,13)        180.0            estimate D2E/DX2                !
 ! D52   D(37,11,12,38)          0.0            estimate D2E/DX2                !
 ! D53   D(11,12,13,8)           0.0            estimate D2E/DX2                !
 ! D54   D(11,12,13,14)        180.0            estimate D2E/DX2                !
 ! D55   D(38,12,13,8)         180.0            estimate D2E/DX2                !
 ! D56   D(38,12,13,14)          0.0            estimate D2E/DX2                !
 ! D57   D(8,13,14,4)            0.0            estimate D2E/DX2                !
 ! D58   D(8,13,14,15)         180.0            estimate D2E/DX2                !
 ! D59   D(12,13,14,4)         180.0            estimate D2E/DX2                !
 ! D60   D(12,13,14,15)          0.0            estimate D2E/DX2                !
 ! D61   D(4,14,15,16)         180.0            estimate D2E/DX2                !
 ! D62   D(4,14,15,28)           0.0            estimate D2E/DX2                !
 ! D63   D(13,14,15,16)          0.0            estimate D2E/DX2                !
 ! D64   D(13,14,15,28)        180.0            estimate D2E/DX2                !
 ! D65   D(14,15,16,17)        180.0            estimate D2E/DX2                !
 ! D66   D(14,15,16,39)          0.0            estimate D2E/DX2                !
 ! D67   D(28,15,16,17)          0.0            estimate D2E/DX2                !
 ! D68   D(28,15,16,39)        180.0            estimate D2E/DX2                !
 ! D69   D(14,15,28,27)        180.0            estimate D2E/DX2                !
 ! D70   D(14,15,28,47)          0.0            estimate D2E/DX2                !
 ! D71   D(16,15,28,27)          0.0            estimate D2E/DX2                !
 ! D72   D(16,15,28,47)        180.0            estimate D2E/DX2                !
 ! D73   D(15,16,17,18)        180.0            estimate D2E/DX2                !
 ! D74   D(15,16,17,29)          0.0            estimate D2E/DX2                !
 ! D75   D(39,16,17,18)          0.0            estimate D2E/DX2                !
 ! D76   D(39,16,17,29)        180.0            estimate D2E/DX2                !
 ! D77   D(16,17,18,19)        180.0            estimate D2E/DX2                !
 ! D78   D(16,17,18,40)          0.0            estimate D2E/DX2                !
 ! D79   D(29,17,18,19)          0.0            estimate D2E/DX2                !
 ! D80   D(29,17,18,40)        180.0            estimate D2E/DX2                !
 ! D81   D(16,17,29,27)          0.0            estimate D2E/DX2                !
 ! D82   D(16,17,29,30)        180.0            estimate D2E/DX2                !
 ! D83   D(18,17,29,27)        180.0            estimate D2E/DX2                !
 ! D84   D(18,17,29,30)          0.0            estimate D2E/DX2                !
 ! D85   D(17,18,19,20)          0.0            estimate D2E/DX2                !
 ! D86   D(17,18,19,41)        180.0            estimate D2E/DX2                !
 ! D87   D(40,18,19,20)        180.0            estimate D2E/DX2                !
 ! D88   D(40,18,19,41)          0.0            estimate D2E/DX2                !
 ! D89   D(18,19,20,21)        180.0            estimate D2E/DX2                !
 ! D90   D(18,19,20,30)          0.0            estimate D2E/DX2                !
 ! D91   D(41,19,20,21)          0.0            estimate D2E/DX2                !
 ! D92   D(41,19,20,30)        180.0            estimate D2E/DX2                !
 ! D93   D(19,20,21,22)        180.0            estimate D2E/DX2                !
 ! D94   D(19,20,21,42)          0.0            estimate D2E/DX2                !
 ! D95   D(30,20,21,22)          0.0            estimate D2E/DX2                !
 ! D96   D(30,20,21,42)        180.0            estimate D2E/DX2                !
 ! D97   D(19,20,30,24)        180.0            estimate D2E/DX2                !
 ! D98   D(19,20,30,29)          0.0            estimate D2E/DX2                !
 ! D99   D(21,20,30,24)          0.0            estimate D2E/DX2                !
 ! D100  D(21,20,30,29)        180.0            estimate D2E/DX2                !
 ! D101  D(20,21,22,23)          0.0            estimate D2E/DX2                !
 ! D102  D(20,21,22,43)        180.0            estimate D2E/DX2                !
 ! D103  D(42,21,22,23)        180.0            estimate D2E/DX2                !
 ! D104  D(42,21,22,43)          0.0            estimate D2E/DX2                !
 ! D105  D(21,22,23,24)          0.0            estimate D2E/DX2                !
 ! D106  D(21,22,23,44)        180.0            estimate D2E/DX2                !
 ! D107  D(43,22,23,24)        180.0            estimate D2E/DX2                !
 ! D108  D(43,22,23,44)          0.0            estimate D2E/DX2                !
 ! D109  D(22,23,24,25)        180.0            estimate D2E/DX2                !
 ! D110  D(22,23,24,30)          0.0            estimate D2E/DX2                !
 ! D111  D(44,23,24,25)          0.0            estimate D2E/DX2                !
 ! D112  D(44,23,24,30)        180.0            estimate D2E/DX2                !
 ! D113  D(23,24,25,26)        180.0            estimate D2E/DX2                !
 ! D114  D(23,24,25,45)          0.0            estimate D2E/DX2                !
 ! D115  D(30,24,25,26)          0.0            estimate D2E/DX2                !
 ! D116  D(30,24,25,45)        180.0            estimate D2E/DX2                !
 ! D117  D(23,24,30,20)          0.0            estimate D2E/DX2                !
 ! D118  D(23,24,30,29)        180.0            estimate D2E/DX2                !
 ! D119  D(25,24,30,20)        180.0            estimate D2E/DX2                !
 ! D120  D(25,24,30,29)          0.0            estimate D2E/DX2                !
 ! D121  D(24,25,26,27)          0.0            estimate D2E/DX2                !
 ! D122  D(24,25,26,46)        180.0            estimate D2E/DX2                !
 ! D123  D(45,25,26,27)        180.0            estimate D2E/DX2                !
 ! D124  D(45,25,26,46)          0.0            estimate D2E/DX2                !
 ! D125  D(25,26,27,28)        180.0            estimate D2E/DX2                !
 ! D126  D(25,26,27,29)          0.0            estimate D2E/DX2                !
 ! D127  D(46,26,27,28)          0.0            estimate D2E/DX2                !
 ! D128  D(46,26,27,29)        180.0            estimate D2E/DX2                !
 ! D129  D(26,27,28,15)        180.0            estimate D2E/DX2                !
 ! D130  D(26,27,28,47)          0.0            estimate D2E/DX2                !
 ! D131  D(29,27,28,15)          0.0            estimate D2E/DX2                !
 ! D132  D(29,27,28,47)        180.0            estimate D2E/DX2                !
 ! D133  D(26,27,29,17)        180.0            estimate D2E/DX2                !
 ! D134  D(26,27,29,30)          0.0            estimate D2E/DX2                !
 ! D135  D(28,27,29,17)          0.0            estimate D2E/DX2                !
 ! D136  D(28,27,29,30)        180.0            estimate D2E/DX2                !
 ! D137  D(17,29,30,20)          0.0            estimate D2E/DX2                !
 ! D138  D(17,29,30,24)        180.0            estimate D2E/DX2                !
 ! D139  D(27,29,30,20)        180.0            estimate D2E/DX2                !
 ! D140  D(27,29,30,24)          0.0            estimate D2E/DX2                !
 --------------------------------------------------------------------------------
 Trust Radius=3.00D-01 FncErr=1.00D-07 GrdErr=1.00D-06 EigMax=2.50D+02 EigMin=1.00D-04
 Number of steps in this run=    282 maximum allowed number of steps=    282.
 GradGradGradGradGradGradGradGradGradGradGradGradGradGradGradGradGradGrad

 Leave Link  103 at Tue Nov  8 20:12:05 2022, MaxMem=   671088640 cpu:               0.5 elap:               0.0
 (Enter /apps/gaussian/g16-c01-avx/g16/l202.exe)
                          Input orientation:                          
 ---------------------------------------------------------------------
 Center     Atomic      Atomic             Coordinates (Angstroms)
 Number     Number       Type             X           Y           Z
 ---------------------------------------------------------------------
      1          6           0       -4.445417    3.897114    0.000000
      2          6           0       -2.945417    3.897114    0.000000
      3          6           0       -2.195417    2.598076    0.000000
      4          6           0       -2.945417    1.299038    0.000000
      5          6           0       -4.445417    1.299038    0.000000
      6          6           0       -5.195417    2.598076    0.000000
      7         16           0       -5.195417    0.000000    0.000000
      8          6           0       -4.445417   -1.299038    0.000000
      9          6           0       -5.195417   -2.598076    0.000000
     10          6           0       -4.445417   -3.897114    0.000000
     11          6           0       -2.945417   -3.897114    0.000000
     12          6           0       -2.195417   -2.598076    0.000000
     13          6           0       -2.945417   -1.299038    0.000000
     14          7           0       -2.195417    0.000000    0.000000
     15          6           0       -0.695417    0.000000    0.000000
     16          6           0        0.054583   -1.299038    0.000000
     17          6           0        1.554583   -1.299038    0.000000
     18          6           0        2.304583   -2.598076    0.000000
     19          6           0        3.804583   -2.598076    0.000000
     20          6           0        4.554583   -1.299038    0.000000
     21          6           0        6.054583   -1.299038    0.000000
     22          6           0        6.804583    0.000000    0.000000
     23          6           0        6.054583    1.299038    0.000000
     24          6           0        4.554583    1.299038    0.000000
     25          6           0        3.804583    2.598076    0.000000
     26          6           0        2.304583    2.598076    0.000000
     27          6           0        1.554583    1.299038    0.000000
     28          6           0        0.054583    1.299038    0.000000
     29          6           0        2.304583    0.000000    0.000000
     30          6           0        3.804583    0.000000    0.000000
     31          1           0       -5.195417    5.196152    0.000000
     32          1           0       -2.195417    5.196152    0.000000
     33          1           0       -1.218606    2.718040    0.000000
     34          1           0       -6.695417    2.598076    0.000000
     35          1           0       -6.695417   -2.598076    0.000000
     36          1           0       -5.195417   -5.196152    0.000000
     37          1           0       -2.195417   -5.196152    0.000000
     38          1           0       -1.218606   -2.718040    0.000000
     39          1           0       -0.329931   -2.204963    0.000000
     40          1           0        1.554583   -3.897114    0.000000
     41          1           0        4.554583   -3.897114    0.000000
     42          1           0        6.804583   -2.598076    0.000000
     43          1           0        8.304583    0.000000    0.000000
     44          1           0        6.804583    2.598076    0.000000
     45          1           0        4.554583    3.897114    0.000000
     46          1           0        1.554583    3.897114    0.000000
     47          1           0       -0.329931    2.204963    0.000000
 ---------------------------------------------------------------------
                    Distance matrix (angstroms):
                    1          2          3          4          5
     1  C    0.000000
     2  C    1.500000   0.000000
     3  C    2.598076   1.500000   0.000000
     4  C    3.000000   2.598076   1.500000   0.000000
     5  C    2.598076   3.000000   2.598076   1.500000   0.000000
     6  C    1.500000   2.598076   3.000000   2.598076   1.500000
     7  S    3.968627   4.500000   3.968627   2.598076   1.500000
     8  C    5.196152   5.408327   4.500000   3.000000   2.598076
     9  C    6.538348   6.873864   6.000000   4.500000   3.968627
    10  C    7.794229   7.937254   6.873864   5.408327   5.196152
    11  C    7.937254   7.794229   6.538348   5.196152   5.408327
    12  C    6.873864   6.538348   5.196152   3.968627   4.500000
    13  C    5.408327   5.196152   3.968627   2.598076   3.000000
    14  N    4.500000   3.968627   2.598076   1.500000   2.598076
    15  C    5.408327   4.500000   3.000000   2.598076   3.968627
    16  C    6.873864   6.000000   4.500000   3.968627   5.196152
    17  C    7.937254   6.873864   5.408327   5.196152   6.538348
    18  C    9.367497   8.351647   6.873864   6.538348   7.794229
    19  C   10.500000   9.367497   7.937254   7.794229   9.124144
    20  C   10.392305   9.124144   7.794229   7.937254   9.367497
    21  C   11.715375  10.392305   9.124144   9.367497  10.816654
    22  C   11.905881  10.500000   9.367497   9.836158  11.324752
    23  C   10.816654   9.367497   8.351647   9.000000  10.500000
    24  C    9.367497   7.937254   6.873864   7.500000   9.000000
    25  C    8.351647   6.873864   6.000000   6.873864   8.351647
    26  C    6.873864   5.408327   4.500000   5.408327   6.873864
    27  C    6.538348   5.196152   3.968627   4.500000   6.000000
    28  C    5.196152   3.968627   2.598076   3.000000   4.500000
    29  C    7.794229   6.538348   5.196152   5.408327   6.873864
    30  C    9.124144   7.794229   6.538348   6.873864   8.351647
    31  H    1.500000   2.598076   3.968627   4.500000   3.968627
    32  H    2.598076   1.500000   2.598076   3.968627   4.500000
    33  H    3.435480   2.090955   0.984150   2.235049   3.525036
    34  H    2.598076   3.968627   4.500000   3.968627   2.598076
    35  H    6.873864   7.500000   6.873864   5.408327   4.500000
    36  H    9.124144   9.367497   8.351647   6.873864   6.538348
    37  H    9.367497   9.124144   7.794229   6.538348   6.873864
    38  H    7.360202   6.836823   5.405114   4.372504   5.152594
    39  H    7.360202   6.638985   5.152594   4.372504   5.405114
    40  H    9.836158   9.000000   7.500000   6.873864   7.937254
    41  H   11.905881  10.816654   9.367497   9.124144  10.392305
    42  H   12.990381  11.715375  10.392305  10.500000  11.905881
    43  H   13.332292  11.905881  10.816654  11.324752  12.816006
    44  H   11.324752   9.836158   9.000000   9.836158  11.324752
    45  H    9.000000   7.500000   6.873864   7.937254   9.367497
    46  H    6.000000   4.500000   3.968627   5.196152   6.538348
    47  H    4.449787   3.115148   1.906457   2.767936   4.214016
                    6          7          8          9         10
     6  C    0.000000
     7  S    2.598076   0.000000
     8  C    3.968627   1.500000   0.000000
     9  C    5.196152   2.598076   1.500000   0.000000
    10  C    6.538348   3.968627   2.598076   1.500000   0.000000
    11  C    6.873864   4.500000   3.000000   2.598076   1.500000
    12  C    6.000000   3.968627   2.598076   3.000000   2.598076
    13  C    4.500000   2.598076   1.500000   2.598076   3.000000
    14  N    3.968627   3.000000   2.598076   3.968627   4.500000
    15  C    5.196152   4.500000   3.968627   5.196152   5.408327
    16  C    6.538348   5.408327   4.500000   5.408327   5.196152
    17  C    7.794229   6.873864   6.000000   6.873864   6.538348
    18  C    9.124144   7.937254   6.873864   7.500000   6.873864
    19  C   10.392305   9.367497   8.351647   9.000000   8.351647
    20  C   10.500000   9.836158   9.000000   9.836158   9.367497
    21  C   11.905881  11.324752  10.500000  11.324752  10.816654
    22  C   12.278029  12.000000  11.324752  12.278029  11.905881
    23  C   11.324752  11.324752  10.816654  11.905881  11.715375
    24  C    9.836158   9.836158   9.367497  10.500000  10.392305
    25  C    9.000000   9.367497   9.124144  10.392305  10.500000
    26  C    7.500000   7.937254   7.794229   9.124144   9.367497
    27  C    6.873864   6.873864   6.538348   7.794229   7.937254
    28  C    5.408327   5.408327   5.196152   6.538348   6.873864
    29  C    7.937254   7.500000   6.873864   7.937254   7.794229
    30  C    9.367497   9.000000   8.351647   9.367497   9.124144
    31  H    2.598076   5.196152   6.538348   7.794229   9.124144
    32  H    3.968627   6.000000   6.873864   8.351647   9.367497
    33  H    3.978620   4.816925   5.152594   6.638985   7.360202
    34  H    1.500000   3.000000   4.500000   5.408327   6.873864
    35  H    5.408327   3.000000   2.598076   1.500000   2.598076
    36  H    7.794229   5.196152   3.968627   2.598076   1.500000
    37  H    8.351647   6.000000   4.500000   3.968627   2.598076
    38  H    6.638985   4.816925   3.525036   3.978620   3.435480
    39  H    6.836823   5.341799   4.214016   4.881342   4.449787
    40  H    9.367497   7.794229   6.538348   6.873864   6.000000
    41  H   11.715375  10.500000   9.367497   9.836158   9.000000
    42  H   13.076697  12.278029  11.324752  12.000000  11.324752
    43  H   13.747727  13.500000  12.816006  13.747727  13.332292
    44  H   12.000000  12.278029  11.905881  13.076697  12.990381
    45  H    9.836158  10.500000  10.392305  11.715375  11.905881
    46  H    6.873864   7.794229   7.937254   9.367497   9.836158
    47  H    4.881342   5.341799   5.405114   6.836823   7.360202
                   11         12         13         14         15
    11  C    0.000000
    12  C    1.500000   0.000000
    13  C    2.598076   1.500000   0.000000
    14  N    3.968627   2.598076   1.500000   0.000000
    15  C    4.500000   3.000000   2.598076   1.500000   0.000000
    16  C    3.968627   2.598076   3.000000   2.598076   1.500000
    17  C    5.196152   3.968627   4.500000   3.968627   2.598076
    18  C    5.408327   4.500000   5.408327   5.196152   3.968627
    19  C    6.873864   6.000000   6.873864   6.538348   5.196152
    20  C    7.937254   6.873864   7.500000   6.873864   5.408327
    21  C    9.367497   8.351647   9.000000   8.351647   6.873864
    22  C   10.500000   9.367497   9.836158   9.000000   7.500000
    23  C   10.392305   9.124144   9.367497   8.351647   6.873864
    24  C    9.124144   7.794229   7.937254   6.873864   5.408327
    25  C    9.367497   7.937254   7.794229   6.538348   5.196152
    26  C    8.351647   6.873864   6.538348   5.196152   3.968627
    27  C    6.873864   5.408327   5.196152   3.968627   2.598076
    28  C    6.000000   4.500000   3.968627   2.598076   1.500000
    29  C    6.538348   5.196152   5.408327   4.500000   3.000000
    30  C    7.794229   6.538348   6.873864   6.000000   4.500000
    31  H    9.367497   8.351647   6.873864   6.000000   6.873864
    32  H    9.124144   7.794229   6.538348   5.196152   5.408327
    33  H    6.836823   5.405114   4.372504   2.888235   2.767936
    34  H    7.500000   6.873864   5.408327   5.196152   6.538348
    35  H    3.968627   4.500000   3.968627   5.196152   6.538348
    36  H    2.598076   3.968627   4.500000   6.000000   6.873864
    37  H    1.500000   2.598076   3.968627   5.196152   5.408327
    38  H    2.090955   0.984150   2.235049   2.888235   2.767936
    39  H    3.115148   1.906457   2.767936   2.888235   2.235049
    40  H    4.500000   3.968627   5.196152   5.408327   4.500000
    41  H    7.500000   6.873864   7.937254   7.794229   6.538348
    42  H    9.836158   9.000000   9.836158   9.367497   7.937254
    43  H   11.905881  10.816654  11.324752  10.500000   9.000000
    44  H   11.715375  10.392305  10.500000   9.367497   7.937254
    45  H   10.816654   9.367497   9.124144   7.794229   6.538348
    46  H    9.000000   7.500000   6.873864   5.408327   4.500000
    47  H    6.638985   5.152594   4.372504   2.888235   2.235049
                   16         17         18         19         20
    16  C    0.000000
    17  C    1.500000   0.000000
    18  C    2.598076   1.500000   0.000000
    19  C    3.968627   2.598076   1.500000   0.000000
    20  C    4.500000   3.000000   2.598076   1.500000   0.000000
    21  C    6.000000   4.500000   3.968627   2.598076   1.500000
    22  C    6.873864   5.408327   5.196152   3.968627   2.598076
    23  C    6.538348   5.196152   5.408327   4.500000   3.000000
    24  C    5.196152   3.968627   4.500000   3.968627   2.598076
    25  C    5.408327   4.500000   5.408327   5.196152   3.968627
    26  C    4.500000   3.968627   5.196152   5.408327   4.500000
    27  C    3.000000   2.598076   3.968627   4.500000   3.968627
    28  C    2.598076   3.000000   4.500000   5.408327   5.196152
    29  C    2.598076   1.500000   2.598076   3.000000   2.598076
    30  C    3.968627   2.598076   3.000000   2.598076   1.500000
    31  H    8.351647   9.367497  10.816654  11.905881  11.715375
    32  H    6.873864   7.500000   9.000000   9.836158   9.367497
    33  H    4.214016   4.881342   6.377614   7.313927   7.033252
    34  H    7.794229   9.124144  10.392305  11.715375  11.905881
    35  H    6.873864   8.351647   9.000000  10.500000  11.324752
    36  H    6.538348   7.794229   7.937254   9.367497  10.500000
    37  H    4.500000   5.408327   5.196152   6.538348   7.794229
    38  H    1.906457   3.115148   3.525231   5.024621   5.945021
    39  H    0.984150   2.090955   2.663682   4.153160   4.967814
    40  H    3.000000   2.598076   1.500000   2.598076   3.968627
    41  H    5.196152   3.968627   2.598076   1.500000   2.598076
    42  H    6.873864   5.408327   4.500000   3.000000   2.598076
    43  H    8.351647   6.873864   6.538348   5.196152   3.968627
    44  H    7.794229   6.538348   6.873864   6.000000   4.500000
    45  H    6.873864   6.000000   6.873864   6.538348   5.196152
    46  H    5.408327   5.196152   6.538348   6.873864   6.000000
    47  H    3.525036   3.978620   5.478125   6.337459   6.011364
                   21         22         23         24         25
    21  C    0.000000
    22  C    1.500000   0.000000
    23  C    2.598076   1.500000   0.000000
    24  C    3.000000   2.598076   1.500000   0.000000
    25  C    4.500000   3.968627   2.598076   1.500000   0.000000
    26  C    5.408327   5.196152   3.968627   2.598076   1.500000
    27  C    5.196152   5.408327   4.500000   3.000000   2.598076
    28  C    6.538348   6.873864   6.000000   4.500000   3.968627
    29  C    3.968627   4.500000   3.968627   2.598076   3.000000
    30  C    2.598076   3.000000   2.598076   1.500000   2.598076
    31  H   12.990381  13.076697  11.905881  10.500000   9.367497
    32  H   10.500000  10.392305   9.124144   7.794229   6.538348
    33  H    8.308802   8.471086   7.410320   5.945021   5.024621
    34  H   13.332292  13.747727  12.816006  11.324752  10.500000
    35  H   12.816006  13.747727  13.332292  11.905881  11.715375
    36  H   11.905881  13.076697  12.990381  11.715375  11.905881
    37  H    9.124144  10.392305  10.500000   9.367497   9.836158
    38  H    7.410320   8.471086   8.308802   7.033252   7.313927
    39  H    6.448466   7.467473   7.282859   6.011364   6.337459
    40  H    5.196152   6.538348   6.873864   6.000000   6.873864
    41  H    3.000000   4.500000   5.408327   5.196152   6.538348
    42  H    1.500000   2.598076   3.968627   4.500000   6.000000
    43  H    2.598076   1.500000   2.598076   3.968627   5.196152
    44  H    3.968627   2.598076   1.500000   2.598076   3.000000
    45  H    5.408327   4.500000   3.000000   2.598076   1.500000
    46  H    6.873864   6.538348   5.196152   3.968627   2.598076
    47  H    7.282859   7.467473   6.448466   4.967814   4.153160
                   26         27         28         29         30
    26  C    0.000000
    27  C    1.500000   0.000000
    28  C    2.598076   1.500000   0.000000
    29  C    2.598076   1.500000   2.598076   0.000000
    30  C    3.000000   2.598076   3.968627   1.500000   0.000000
    31  H    7.937254   7.794229   6.538348   9.124144  10.392305
    32  H    5.196152   5.408327   4.500000   6.873864   7.937254
    33  H    3.525231   3.115148   1.906457   4.449787   5.711407
    34  H    9.000000   8.351647   6.873864   9.367497  10.816654
    35  H   10.392305   9.124144   7.794229   9.367497  10.816654
    36  H   10.816654   9.367497   8.351647   9.124144  10.392305
    37  H    9.000000   7.500000   6.873864   6.873864   7.937254
    38  H    6.377614   4.881342   4.214016   4.449787   5.711407
    39  H    5.478125   3.978620   3.525036   3.435480   4.685730
    40  H    6.538348   5.196152   5.408327   3.968627   4.500000
    41  H    6.873864   6.000000   6.873864   4.500000   3.968627
    42  H    6.873864   6.538348   7.794229   5.196152   3.968627
    43  H    6.538348   6.873864   8.351647   6.000000   4.500000
    44  H    4.500000   5.408327   6.873864   5.196152   3.968627
    45  H    2.598076   3.968627   5.196152   4.500000   3.968627
    46  H    1.500000   2.598076   3.000000   3.968627   4.500000
    47  H    2.663682   2.090955   0.984150   3.435480   4.685730
                   31         32         33         34         35
    31  H    0.000000
    32  H    3.000000   0.000000
    33  H    4.685730   2.663682   0.000000
    34  H    3.000000   5.196152   5.478125   0.000000
    35  H    7.937254   9.000000   7.632598   5.196152   0.000000
    36  H   10.392305  10.816654   8.857171   7.937254   3.000000
    37  H   10.816654  10.392305   7.974246   9.000000   5.196152
    38  H    8.857171   7.974246   5.436081   7.632598   5.478125
    39  H    8.857171   7.632598   5.002570   7.974246   6.377614
    40  H   11.324752   9.836158   7.172925  10.500000   8.351647
    41  H   13.332292  11.324752   8.780090  12.990381  11.324752
    42  H   14.309088  11.905881   9.624586  14.465476  13.500000
    43  H   14.465476  11.715375   9.903478  15.223337  15.223337
    44  H   12.278029   9.367497   8.024086  13.500000  14.465476
    45  H    9.836158   6.873864   5.892362  11.324752  12.990381
    46  H    6.873864   3.968627   3.013435   8.351647  10.500000
    47  H    5.711407   3.525231   1.026154   6.377614   7.974246
                   36         37         38         39         40
    36  H    0.000000
    37  H    3.000000   0.000000
    38  H    4.685730   2.663682   0.000000
    39  H    5.711407   3.525231   1.026154   0.000000
    40  H    6.873864   3.968627   3.013435   2.532739   0.000000
    41  H    9.836158   6.873864   5.892362   5.169318   3.000000
    42  H   12.278029   9.367497   8.024086   7.145336   5.408327
    43  H   14.465476  11.715375   9.903478   8.911604   7.794229
    44  H   14.309088  11.905881   9.624586   8.600609   8.351647
    45  H   13.332292  11.324752   8.780090   7.816254   8.351647
    46  H   11.324752   9.836158   7.172925   6.386450   7.794229
    47  H    8.857171   7.632598   5.002570   4.409927   6.386450
                   41         42         43         44         45
    41  H    0.000000
    42  H    2.598076   0.000000
    43  H    5.408327   3.000000   0.000000
    44  H    6.873864   5.196152   3.000000   0.000000
    45  H    7.794229   6.873864   5.408327   2.598076   0.000000
    46  H    8.351647   8.351647   7.794229   5.408327   3.000000
    47  H    7.816254   8.600609   8.911604   7.145336   5.169318
                   46         47
    46  H    0.000000
    47  H    2.532739   0.000000
 Stoichiometry    C28H17NS
 Framework group  C2V[C2(HCCCCNS),SGV(C24H16)]
 Deg. of freedom    46
 Full point group                 C2V     NOp   4
 Largest Abelian subgroup         C2V     NOp   4
 Largest concise Abelian subgroup C2      NOp   2
                         Standard orientation:                         
 ---------------------------------------------------------------------
 Center     Atomic      Atomic             Coordinates (Angstroms)
 Number     Number       Type             X           Y           Z
 ---------------------------------------------------------------------
      1          6           0        0.000000    3.897114    4.116272
      2          6           0        0.000000    3.897114    2.616272
      3          6           0        0.000000    2.598076    1.866272
      4          6           0        0.000000    1.299038    2.616272
      5          6           0        0.000000    1.299038    4.116272
      6          6           0        0.000000    2.598076    4.866272
      7         16           0       -0.000000    0.000000    4.866272
      8          6           0       -0.000000   -1.299038    4.116272
      9          6           0       -0.000000   -2.598076    4.866272
     10          6           0       -0.000000   -3.897114    4.116272
     11          6           0       -0.000000   -3.897114    2.616272
     12          6           0       -0.000000   -2.598076    1.866272
     13          6           0       -0.000000   -1.299038    2.616272
     14          7           0       -0.000000    0.000000    1.866272
     15          6           0       -0.000000    0.000000    0.366272
     16          6           0        0.000000   -1.299038   -0.383728
     17          6           0        0.000000   -1.299038   -1.883728
     18          6           0        0.000000   -2.598076   -2.633728
     19          6           0        0.000000   -2.598076   -4.133728
     20          6           0        0.000000   -1.299038   -4.883728
     21          6           0        0.000000   -1.299038   -6.383728
     22          6           0        0.000000   -0.000000   -7.133728
     23          6           0        0.000000    1.299038   -6.383728
     24          6           0        0.000000    1.299038   -4.883728
     25          6           0        0.000000    2.598076   -4.133728
     26          6           0        0.000000    2.598076   -2.633728
     27          6           0        0.000000    1.299038   -1.883728
     28          6           0        0.000000    1.299038   -0.383728
     29          6           0        0.000000   -0.000000   -2.633728
     30          6           0        0.000000   -0.000000   -4.133728
     31          1           0        0.000000    5.196152    4.866272
     32          1           0        0.000000    5.196152    1.866272
     33          1           0        0.000000    2.718040    0.889461
     34          1           0        0.000000    2.598076    6.366272
     35          1           0       -0.000000   -2.598076    6.366272
     36          1           0       -0.000000   -5.196152    4.866272
     37          1           0       -0.000000   -5.196152    1.866272
     38          1           0       -0.000000   -2.718040    0.889461
     39          1           0        0.000000   -2.204963    0.000786
     40          1           0        0.000000   -3.897114   -1.883728
     41          1           0        0.000000   -3.897114   -4.883728
     42          1           0        0.000000   -2.598076   -7.133728
     43          1           0        0.000000   -0.000000   -8.633728
     44          1           0        0.000000    2.598076   -7.133728
     45          1           0        0.000000    3.897114   -4.883728
     46          1           0        0.000000    3.897114   -1.883728
     47          1           0        0.000000    2.204963    0.000786
 ---------------------------------------------------------------------
 Rotational constants (GHZ):           0.2743684           0.0830288           0.0637400
 Leave Link  202 at Tue Nov  8 20:12:05 2022, MaxMem=   671088640 cpu:               0.3 elap:               0.0
 (Enter /apps/gaussian/g16-c01-avx/g16/l301.exe)
 Standard basis: 6-311G(d,p) (5D, 7F)
 Ernie: Thresh=  0.10000D-02 Tol=  0.10000D-05 Strict=F.
 There are   276 symmetry adapted cartesian basis functions of A1  symmetry.
 There are    74 symmetry adapted cartesian basis functions of A2  symmetry.
 There are    95 symmetry adapted cartesian basis functions of B1  symmetry.
 There are   235 symmetry adapted cartesian basis functions of B2  symmetry.
 There are   258 symmetry adapted basis functions of A1  symmetry.
 There are    74 symmetry adapted basis functions of A2  symmetry.
 There are    95 symmetry adapted basis functions of B1  symmetry.
 There are   223 symmetry adapted basis functions of B2  symmetry.
   650 basis functions,  1110 primitive gaussians,   680 cartesian basis functions
   104 alpha electrons      104 beta electrons
       nuclear repulsion energy      2608.4063183614 Hartrees.
 IExCor=  402 DFT=T Ex+Corr=B3LYP ExCW=0 ScaHFX=  0.200000
 ScaDFX=  0.800000  0.720000  1.000000  0.810000 ScalE2=  1.000000  1.000000
 IRadAn=      5 IRanWt=     -1 IRanGd=            0 ICorTp=0 IEmpDi=  4
 NAtoms=   47 NActive=   47 NUniq=   27 SFac= 3.03D+00 NAtFMM=   60 NAOKFM=F Big=F
 Integral buffers will be    131072 words long.
 Regular integral format.
 Two-electron integral symmetry is turned on.
 Leave Link  301 at Tue Nov  8 20:12:05 2022, MaxMem=   671088640 cpu:               1.0 elap:               0.0
 (Enter /apps/gaussian/g16-c01-avx/g16/l302.exe)
 NPDir=0 NMtPBC=     1 NCelOv=     1 NCel=       1 NClECP=     1 NCelD=      1
         NCelK=      1 NCelE2=     1 NClLst=     1 CellRange=     0.0.
 One-electron integrals computed using PRISM.
 One-electron integral symmetry used in STVInt
 NBasis=   650 RedAO= T EigKep=  8.52D-05  NBF=   258    74    95   223
 NBsUse=   650 1.00D-06 EigRej= -1.00D+00 NBFU=   258    74    95   223
 Precomputing XC quadrature grid using
 IXCGrd= 4 IRadAn=           5 IRanWt=          -1 IRanGd=           0 AccXCQ= 0.00D+00.
 Generated NRdTot=       0 NPtTot=           0 NUsed=           0 NTot=          32
 NSgBfM=   655   655   655   655   655 MxSgAt=    47 MxSgA2=    47.
 Leave Link  302 at Tue Nov  8 20:12:06 2022, MaxMem=   671088640 cpu:              19.6 elap:               0.6
 (Enter /apps/gaussian/g16-c01-avx/g16/l303.exe)
 DipDrv:  MaxL=1.
 Leave Link  303 at Tue Nov  8 20:12:06 2022, MaxMem=   671088640 cpu:               2.7 elap:               0.1
 (Enter /apps/gaussian/g16-c01-avx/g16/l308.exe)
 Leave Link  308 at Tue Nov  8 20:12:06 2022, MaxMem=   671088640 cpu:               4.0 elap:               0.2
 (Enter /apps/gaussian/g16-c01-avx/g16/l401.exe)
 ExpMin= 7.71D-02 ExpMax= 9.34D+04 ExpMxC= 3.17D+03 IAcc=3 IRadAn=         5 AccDes= 0.00D+00
 Harris functional with IExCor=  402 and IRadAn=       5 diagonalized for initial guess.
 HarFok:  IExCor=  402 AccDes= 0.00D+00 IRadAn=         5 IDoV= 1 UseB2=F ITyADJ=14
 ICtDFT=  3500011 ScaDFX=  1.000000  1.000000  1.000000  1.000000
 FoFCou: FMM=F IPFlag=           0 FMFlag=      100000 FMFlg1=           0
         NFxFlg=           0 DoJE=T BraDBF=F KetDBF=T FulRan=T
         wScrn=  0.000000 ICntrl=       500 IOpCl=  0 I1Cent=   200000004 NGrid=           0
         NMat0=    1 NMatS0=      1 NMatT0=    0 NMatD0=    1 NMtDS0=    0 NMtDT0=    0
 Petite list used in FoFCou.
 Harris En= -1529.05483224530    
 JPrj=0 DoOrth=F DoCkMO=F.
 Initial guess orbital symmetries:
       Occupied  (A1) (A1) (A1) (B2) (B2) (A1) (B2) (A1) (A1) (B2)
                 (A1) (A1) (B2) (A1) (B2) (A1) (B2) (A1) (B2) (A1)
                 (A1) (B2) (A1) (A1) (B2) (B2) (A1) (B2) (A1) (A1)
                 (A1) (B2) (A1) (B1) (A1) (A1) (A1) (B2) (A1) (B2)
                 (A1) (B2) (A1) (B2) (A1) (B2) (A1) (A1) (B2) (A1)
                 (B2) (A1) (B2) (A1) (B2) (A1) (B2) (A1) (B2) (A1)
                 (B2) (A1) (A1) (B2) (B2) (A1) (B2) (A1) (B2) (A1)
                 (B2) (B2) (B1) (A1) (B2) (B1) (A1) (B2) (A1) (B1)
                 (A1) (A2) (B2) (A1) (B1) (A2) (A1) (A1) (B2) (B2)
                 (B2) (A1) (B1) (B2) (A1) (A2) (B1) (A2) (A2) (B1)
                 (B1) (B1) (A2) (B1)
       Virtual   (A2) (A2) (B1) (A2) (B1) (A2) (B1) (A1) (A1) (B2)
                 (B1) (A1) (B2) (B1) (A1) (B2) (A1) (B2) (A1) (B2)
                 (A2) (A1) (B2) (A2) (B1) (A1) (A1) (B2) (B1) (A1)
                 (B2) (B1) (A1) (B2) (A1) (B2) (A1) (A1) (B2) (A1)
                 (B2) (B2) (A1) (A1) (B2) (A1) (B2) (A1) (A1) (B1)
                 (B2) (A1) (B2) (B2) (A1) (A1) (B2) (A1) (A1) (B2)
                 (A1) (B2) (B2) (B2) (A1) (B2) (A1) (B2) (A1) (B2)
                 (A1) (B2) (A1) (A1) (A1) (B2) (B1) (B2) (A1) (A2)
                 (B1) (A1) (B2) (B2) (B2) (A2) (A1) (B1) (A1) (A2)
                 (A1) (B1) (B2) (B2) (A1) (A1) (A1) (B1) (B2) (B1)
                 (A2) (A1) (A2) (B1) (B1) (A1) (B2) (B2) (A1) (B1)
                 (A2) (A1) (B2) (A1) (B2) (A2) (B1) (B1) (A1) (A2)
                 (B2) (A2) (B1) (A1) (B2) (A1) (B2) (A1) (A2) (B1)
                 (A1) (A2) (B1) (A2) (B2) (B2) (A1) (B2) (A1) (B1)
                 (A1) (B2) (A1) (A2) (A1) (B2) (B2) (B1) (A1) (A1)
                 (B2) (B2) (A1) (B1) (B2) (A1) (B2) (A1) (A1) (B2)
                 (A1) (B2) (A1) (B2) (B2) (B1) (A1) (B2) (A1) (A1)
                 (B2) (A1) (B2) (A1) (A1) (B2) (B2) (A2) (B1) (A1)
                 (A1) (B2) (A1) (A2) (B1) (A2) (B2) (A2) (A1) (B2)
                 (A2) (B1) (A1) (B2) (B1) (B1) (A2) (B2) (A1) (B2)
                 (A2) (B1) (A1) (B1) (A2) (B2) (A2) (B1) (A2) (A1)
                 (B1) (B2) (A2) (B1) (A2) (A1) (B2) (A1) (B2) (A1)
                 (B2) (B2) (A1) (A1) (A1) (A1) (B2) (B1) (B2) (A1)
                 (B2) (A1) (A2) (B2) (A1) (B2) (B1) (A1) (B2) (B2)
                 (A1) (A1) (B1) (B2) (A1) (A1) (B2) (A2) (B1) (A1)
                 (A1) (B2) (A2) (B2) (B1) (A2) (A1) (A1) (B1) (B2)
                 (B2) (A2) (B1) (A1) (A2) (B1) (B1) (A1) (A2) (A2)
                 (B1) (B1) (B2) (A1) (A1) (B1) (A1) (A2) (B2) (A1)
                 (B2) (B1) (B2) (A1) (B2) (B2) (A2) (B2) (A1) (A1)
                 (A1) (B2) (B1) (B2) (B1) (A1) (B2) (A1) (A2) (B2)
                 (A1) (B1) (B2) (A2) (B1) (B2) (A2) (A1) (B1) (A2)
                 (A2) (B2) (B1) (A1) (A2) (B1) (A1) (B1) (A1) (B2)
                 (B1) (A1) (B2) (A2) (A2) (B2) (A1) (A1) (B2) (A1)
                 (B1) (A1) (B2) (A2) (A1) (B1) (B2) (B2) (A1) (A1)
                 (B2) (B2) (A1) (B1) (B2) (A1) (A2) (A1) (B2) (A1)
                 (B2) (B2) (B2) (A1) (B2) (A2) (B1) (A2) (B2) (A1)
                 (B1) (A1) (B2) (A1) (B2) (A1) (B2) (A1) (A2) (B2)
                 (A1) (B1) (A1) (B2) (A1) (A2) (B2) (A1) (B2) (A1)
                 (B2) (A1) (A1) (B2) (B2) (A1) (B2) (B2) (B1) (A1)
                 (B2) (A1) (A2) (B1) (A2) (B2) (B1) (A1) (A1) (B2)
                 (A2) (A1) (B1) (A1) (A1) (B2) (B1) (A1) (A1) (B2)
                 (A1) (B2) (B2) (A2) (A1) (B2) (B1) (A2) (A1) (B1)
                 (A2) (B2) (B1) (B1) (A2) (B2) (B1) (A2) (B1) (B1)
                 (A1) (A2) (A2) (A1) (A1) (B1) (A2) (A1) (B1) (B2)
                 (B2) (A1) (A2) (B1) (B2) (A2) (B2) (B1) (A1) (B2)
                 (B2) (A1) (A1) (B1) (B2) (A1) (B2) (A1) (A1) (B2)
                 (B2) (A1) (A1) (B2) (B2) (A1) (A1) (B2) (B2) (B2)
                 (A1) (A1) (B2) (A1) (A1) (B2) (A1) (B2) (A1) (A1)
                 (B2) (A1) (A1) (B2) (A1) (B2) (B2) (A1) (A1) (B2)
                 (A1) (B1) (B2) (A1) (A1) (B2) (A1) (B2) (A1) (B2)
                 (A1) (B2) (B2) (A1) (B2) (A1) (B2) (B2) (A1) (B2)
                 (B2) (A1) (A1) (B1) (A1) (B2) (A1) (A1) (B2) (B2)
                 (A1) (A1) (A1) (B2) (A1) (B2) (A1) (B2) (B2) (A1)
                 (A1) (B2) (A1) (A1) (B2) (A1) (B2) (A1) (B2) (A1)
                 (B2) (A1) (A1) (B2) (A1) (A1)
 The electronic state of the initial guess is 1-A1.
 Leave Link  401 at Tue Nov  8 20:12:08 2022, MaxMem=   671088640 cpu:              39.6 elap:               1.3
 (Enter /apps/gaussian/g16-c01-avx/g16/l502.exe)
 Integral symmetry usage will be decided dynamically.
 Closed shell SCF:
 Using DIIS extrapolation, IDIIS=  1040.
 NGot=   671088640 LenX=   670129838 LenY=   669666758
 Requested convergence on RMS density matrix=1.00D-08 within 128 cycles.
 Requested convergence on MAX density matrix=1.00D-06.
 Requested convergence on             energy=1.00D-06.
 No special actions if energy rises.
 Fock matrices will be formed incrementally for  20 cycles.
 Integral accuracy reduced to 1.0D-05 until final iterations.

 Cycle   1  Pass 0  IDiag  1:
 FoFJK:  IHMeth= 1 ICntrl=       0 DoSepK=F KAlg= 0 I1Cent=           0 FoldK=F
 IRaf= 630000000 NMat=       1 IRICut=       1 DoRegI=T DoRafI=F ISym2E= 1 IDoP0=0 IntGTp=1.
 FoFCou: FMM=F IPFlag=           0 FMFlag=      100000 FMFlg1=           0
         NFxFlg=           0 DoJE=F BraDBF=F KetDBF=F FulRan=T
         wScrn=  0.000000 ICntrl=         0 IOpCl=  0 I1Cent=           0 NGrid=           0
         NMat0=    1 NMatS0=      1 NMatT0=    0 NMatD0=    1 NMtDS0=    0 NMtDT0=    0
 Petite list used in FoFCou.
 E= -1528.74706326925    
 DIIS: error= 2.50D-02 at cycle   1 NSaved=   1.
 NSaved= 1 IEnMin= 1 EnMin= -1528.74706326925     IErMin= 1 ErrMin= 2.50D-02
 ErrMax= 2.50D-02  0.00D+00 EMaxC= 1.00D-01 BMatC= 5.14D-01 BMatP= 5.14D-01
 IDIUse=3 WtCom= 7.50D-01 WtEn= 2.50D-01
 Coeff-Com:  0.100D+01
 Coeff-En:   0.100D+01
 Coeff:      0.100D+01
 Gap=     0.076 Goal=   None    Shift=    0.000
 GapD=    0.076 DampG=0.500 DampE=0.500 DampFc=0.2500 IDamp=-1.
 Damping current iteration by 2.50D-01
 RMSDP=2.40D-03 MaxDP=1.40D-01              OVMax= 3.18D-01

 Cycle   2  Pass 0  IDiag  1:
 RMSU=  5.93D-04    CP:  9.89D-01
 E= -1528.93368777920     Delta-E=       -0.186624509952 Rises=F Damp=T
 DIIS: error= 1.36D-02 at cycle   2 NSaved=   2.
 NSaved= 2 IEnMin= 2 EnMin= -1528.93368777920     IErMin= 2 ErrMin= 1.36D-02
 ErrMax= 1.36D-02  0.00D+00 EMaxC= 1.00D-01 BMatC= 1.18D-01 BMatP= 5.14D-01
 IDIUse=3 WtCom= 8.64D-01 WtEn= 1.36D-01
 Coeff-Com: -0.540D+00 0.154D+01
 Coeff-En:   0.000D+00 0.100D+01
 Coeff:     -0.467D+00 0.147D+01
 Gap=     0.127 Goal=   None    Shift=    0.000
 RMSDP=7.95D-04 MaxDP=5.47D-02 DE=-1.87D-01 OVMax= 3.96D-01

 Cycle   3  Pass 0  IDiag  1:
 RMSU=  7.75D-04    CP:  9.80D-01  1.27D+00
 E= -1529.15535849254     Delta-E=       -0.221670713338 Rises=F Damp=F
 DIIS: error= 2.87D-02 at cycle   3 NSaved=   3.
 NSaved= 3 IEnMin= 3 EnMin= -1529.15535849254     IErMin= 2 ErrMin= 1.36D-02
 ErrMax= 2.87D-02  0.00D+00 EMaxC= 1.00D-01 BMatC= 1.01D-01 BMatP= 1.18D-01
 IDIUse=3 WtCom= 7.13D-01 WtEn= 2.87D-01
 Coeff-Com: -0.415D+00 0.965D+00 0.450D+00
 Coeff-En:   0.000D+00 0.000D+00 0.100D+01
 Coeff:     -0.296D+00 0.688D+00 0.608D+00
 Gap=     0.092 Goal=   None    Shift=    0.000
 RMSDP=9.12D-04 MaxDP=4.46D-02 DE=-2.22D-01 OVMax= 2.57D-01

 Cycle   4  Pass 0  IDiag  1:
 RMSU=  6.00D-04    CP:  9.84D-01  1.73D+00  1.88D-01
 E= -1529.13532580148     Delta-E=        0.020032691065 Rises=F Damp=F
 DIIS: error= 3.46D-02 at cycle   4 NSaved=   4.
 NSaved= 4 IEnMin= 3 EnMin= -1529.15535849254     IErMin= 2 ErrMin= 1.36D-02
 ErrMax= 3.46D-02  0.00D+00 EMaxC= 1.00D-01 BMatC= 1.16D-01 BMatP= 1.01D-01
 IDIUse=2 WtCom= 0.00D+00 WtEn= 1.00D+00
 Coeff-En:   0.000D+00 0.000D+00 0.528D+00 0.472D+00
 Coeff:      0.000D+00 0.000D+00 0.528D+00 0.472D+00
 Gap=     0.081 Goal=   None    Shift=    0.000
 RMSDP=4.98D-04 MaxDP=1.96D-02 DE= 2.00D-02 OVMax= 1.33D-01

 Cycle   5  Pass 0  IDiag  1:
 RMSU=  1.46D-04    CP:  9.81D-01  1.53D+00  5.68D-01  4.11D-01
 E= -1529.26785171170     Delta-E=       -0.132525910225 Rises=F Damp=F
 DIIS: error= 3.55D-03 at cycle   5 NSaved=   5.
 NSaved= 5 IEnMin= 5 EnMin= -1529.26785171170     IErMin= 5 ErrMin= 3.55D-03
 ErrMax= 3.55D-03  0.00D+00 EMaxC= 1.00D-01 BMatC= 2.19D-03 BMatP= 1.01D-01
 IDIUse=3 WtCom= 9.64D-01 WtEn= 3.55D-02
 Coeff-Com:  0.473D-02 0.111D-01 0.273D+00 0.238D+00 0.473D+00
 Coeff-En:   0.000D+00 0.000D+00 0.000D+00 0.000D+00 0.100D+01
 Coeff:      0.456D-02 0.107D-01 0.263D+00 0.229D+00 0.492D+00
 Gap=     0.079 Goal=   None    Shift=    0.000
 RMSDP=9.97D-05 MaxDP=4.54D-03 DE=-1.33D-01 OVMax= 2.90D-02

 Cycle   6  Pass 0  IDiag  1:
 RMSU=  6.03D-05    CP:  9.81D-01  1.48D+00  5.97D-01  4.67D-01  5.62D-01
 E= -1529.26937315183     Delta-E=       -0.001521440132 Rises=F Damp=F
 DIIS: error= 2.44D-03 at cycle   6 NSaved=   6.
 NSaved= 6 IEnMin= 6 EnMin= -1529.26937315183     IErMin= 6 ErrMin= 2.44D-03
 ErrMax= 2.44D-03  0.00D+00 EMaxC= 1.00D-01 BMatC= 7.77D-04 BMatP= 2.19D-03
 IDIUse=3 WtCom= 9.76D-01 WtEn= 2.44D-02
 Coeff-Com:  0.196D-01-0.324D-01 0.701D-01 0.613D-01 0.379D+00 0.502D+00
 Coeff-En:   0.000D+00 0.000D+00 0.000D+00 0.000D+00 0.311D+00 0.689D+00
 Coeff:      0.192D-01-0.316D-01 0.684D-01 0.598D-01 0.378D+00 0.506D+00
 Gap=     0.079 Goal=   None    Shift=    0.000
 RMSDP=4.79D-05 MaxDP=1.86D-03 DE=-1.52D-03 OVMax= 1.96D-02

 Cycle   7  Pass 0  IDiag  1:
 RMSU=  2.46D-05    CP:  9.81D-01  1.49D+00  5.95D-01  4.53D-01  6.96D-01
                    CP:  4.25D-01
 E= -1529.27012221366     Delta-E=       -0.000749061826 Rises=F Damp=F
 DIIS: error= 1.35D-03 at cycle   7 NSaved=   7.
 NSaved= 7 IEnMin= 7 EnMin= -1529.27012221366     IErMin= 7 ErrMin= 1.35D-03
 ErrMax= 1.35D-03  0.00D+00 EMaxC= 1.00D-01 BMatC= 1.53D-04 BMatP= 7.77D-04
 IDIUse=3 WtCom= 9.87D-01 WtEn= 1.35D-02
 Coeff-Com:  0.124D-01-0.213D-01 0.238D-01 0.190D-01 0.228D+00 0.373D+00
 Coeff-Com:  0.365D+00
 Coeff-En:   0.000D+00 0.000D+00 0.000D+00 0.000D+00 0.000D+00 0.185D+00
 Coeff-En:   0.815D+00
 Coeff:      0.122D-01-0.210D-01 0.235D-01 0.187D-01 0.225D+00 0.370D+00
 Coeff:      0.372D+00
 Gap=     0.080 Goal=   None    Shift=    0.000
 RMSDP=2.12D-05 MaxDP=7.54D-04 DE=-7.49D-04 OVMax= 9.21D-03

 Cycle   8  Pass 0  IDiag  1:
 RMSU=  1.03D-05    CP:  9.81D-01  1.49D+00  5.97D-01  4.57D-01  6.73D-01
                    CP:  5.73D-01  3.73D-01
 E= -1529.27030671919     Delta-E=       -0.000184505528 Rises=F Damp=F
 DIIS: error= 3.78D-04 at cycle   8 NSaved=   8.
 NSaved= 8 IEnMin= 8 EnMin= -1529.27030671919     IErMin= 8 ErrMin= 3.78D-04
 ErrMax= 3.78D-04  0.00D+00 EMaxC= 1.00D-01 BMatC= 1.08D-05 BMatP= 1.53D-04
 IDIUse=3 WtCom= 9.96D-01 WtEn= 3.78D-03
 Coeff-Com:  0.340D-02-0.579D-02 0.344D-02 0.733D-03 0.677D-01 0.131D+00
 Coeff-Com:  0.242D+00 0.558D+00
 Coeff-En:   0.000D+00 0.000D+00 0.000D+00 0.000D+00 0.000D+00 0.000D+00
 Coeff-En:   0.780D-01 0.922D+00
 Coeff:      0.339D-02-0.577D-02 0.342D-02 0.730D-03 0.674D-01 0.131D+00
 Coeff:      0.241D+00 0.559D+00
 Gap=     0.079 Goal=   None    Shift=    0.000
 RMSDP=6.12D-06 MaxDP=2.96D-04 DE=-1.85D-04 OVMax= 2.71D-03

 Initial convergence to 1.0D-05 achieved.  Increase integral accuracy.
 Cycle   9  Pass 1  IDiag  1:
 E= -1529.27024110534     Delta-E=        0.000065613843 Rises=F Damp=F
 DIIS: error= 8.53D-04 at cycle   1 NSaved=   1.
 NSaved= 1 IEnMin= 1 EnMin= -1529.27024110534     IErMin= 1 ErrMin= 8.53D-04
 ErrMax= 8.53D-04  0.00D+00 EMaxC= 1.00D-01 BMatC= 3.35D-05 BMatP= 3.35D-05
 IDIUse=3 WtCom= 9.91D-01 WtEn= 8.53D-03
 Coeff-Com:  0.100D+01
 Coeff-En:   0.100D+01
 Coeff:      0.100D+01
 Gap=     0.080 Goal=   None    Shift=    0.000
 RMSDP=6.12D-06 MaxDP=2.96D-04 DE= 6.56D-05 OVMax= 2.18D-03

 Cycle  10  Pass 1  IDiag  1:
 RMSU=  3.14D-04    CP:  9.98D-01
 E= -1529.27025753952     Delta-E=       -0.000016434173 Rises=F Damp=F
 DIIS: error= 2.54D-04 at cycle   2 NSaved=   2.
 NSaved= 2 IEnMin= 2 EnMin= -1529.27025753952     IErMin= 2 ErrMin= 2.54D-04
 ErrMax= 2.54D-04  0.00D+00 EMaxC= 1.00D-01 BMatC= 1.34D-05 BMatP= 3.35D-05
 IDIUse=3 WtCom= 9.97D-01 WtEn= 2.54D-03
 Coeff-Com:  0.325D+00 0.675D+00
 Coeff-En:   0.122D+00 0.878D+00
 Coeff:      0.324D+00 0.676D+00
 Gap=     0.079 Goal=   None    Shift=    0.000
 RMSDP=1.12D-05 MaxDP=5.42D-04 DE=-1.64D-05 OVMax= 4.23D-03

 Cycle  11  Pass 1  IDiag  1:
 RMSU=  1.10D-05    CP:  9.98D-01  1.01D+00
 E= -1529.27024096088     Delta-E=        0.000016578634 Rises=F Damp=F
 DIIS: error= 4.29D-04 at cycle   3 NSaved=   3.
 NSaved= 3 IEnMin= 2 EnMin= -1529.27025753952     IErMin= 2 ErrMin= 2.54D-04
 ErrMax= 4.29D-04  0.00D+00 EMaxC= 1.00D-01 BMatC= 2.66D-05 BMatP= 1.34D-05
 IDIUse=3 WtCom= 3.26D-01 WtEn= 6.74D-01
 Coeff-Com:  0.472D-02 0.584D+00 0.411D+00
 Coeff-En:   0.000D+00 0.624D+00 0.376D+00
 Coeff:      0.154D-02 0.611D+00 0.387D+00
 Gap=     0.080 Goal=   None    Shift=    0.000
 RMSDP=6.40D-06 MaxDP=3.13D-04 DE= 1.66D-05 OVMax= 2.79D-03

 Cycle  12  Pass 1  IDiag  1:
 RMSU=  1.83D-06    CP:  9.98D-01  1.01D+00  4.52D-01
 E= -1529.27027226746     Delta-E=       -0.000031306578 Rises=F Damp=F
 DIIS: error= 6.15D-05 at cycle   4 NSaved=   4.
 NSaved= 4 IEnMin= 4 EnMin= -1529.27027226746     IErMin= 4 ErrMin= 6.15D-05
 ErrMax= 6.15D-05  0.00D+00 EMaxC= 1.00D-01 BMatC= 8.91D-07 BMatP= 1.34D-05
 IDIUse=1 WtCom= 1.00D+00 WtEn= 0.00D+00
 Coeff-Com: -0.390D-02 0.412D+00 0.264D+00 0.327D+00
 Coeff:     -0.390D-02 0.412D+00 0.264D+00 0.327D+00
 Gap=     0.080 Goal=   None    Shift=    0.000
 RMSDP=1.32D-06 MaxDP=5.87D-05 DE=-3.13D-05 OVMax= 2.97D-04

 Cycle  13  Pass 1  IDiag  1:
 RMSU=  5.67D-07    CP:  9.98D-01  1.01D+00  4.15D-01  3.90D-01
 E= -1529.27027325006     Delta-E=       -0.000000982598 Rises=F Damp=F
 DIIS: error= 1.75D-05 at cycle   5 NSaved=   5.
 NSaved= 5 IEnMin= 5 EnMin= -1529.27027325006     IErMin= 5 ErrMin= 1.75D-05
 ErrMax= 1.75D-05  0.00D+00 EMaxC= 1.00D-01 BMatC= 2.54D-08 BMatP= 8.91D-07
 IDIUse=1 WtCom= 1.00D+00 WtEn= 0.00D+00
 Coeff-Com: -0.293D-02 0.275D+00 0.175D+00 0.233D+00 0.320D+00
 Coeff:     -0.293D-02 0.275D+00 0.175D+00 0.233D+00 0.320D+00
 Gap=     0.080 Goal=   None    Shift=    0.000
 RMSDP=2.40D-07 MaxDP=1.01D-05 DE=-9.83D-07 OVMax= 7.10D-05

 Cycle  14  Pass 1  IDiag  1:
 RMSU=  1.87D-07    CP:  9.98D-01  1.01D+00  4.17D-01  4.36D-01  7.83D-01
 E= -1529.27027328069     Delta-E=       -0.000000030628 Rises=F Damp=F
 DIIS: error= 1.51D-06 at cycle   6 NSaved=   6.
 NSaved= 6 IEnMin= 6 EnMin= -1529.27027328069     IErMin= 6 ErrMin= 1.51D-06
 ErrMax= 1.51D-06  0.00D+00 EMaxC= 1.00D-01 BMatC= 5.42D-10 BMatP= 2.54D-08
 IDIUse=1 WtCom= 1.00D+00 WtEn= 0.00D+00
 Coeff-Com: -0.149D-02 0.137D+00 0.870D-01 0.117D+00 0.188D+00 0.474D+00
 Coeff:     -0.149D-02 0.137D+00 0.870D-01 0.117D+00 0.188D+00 0.474D+00
 Gap=     0.080 Goal=   None    Shift=    0.000
[...]
 .00000004,-0.00001754,-0.00000003,0.,0.00002281,0.,-0.00000003,0.00003
 856,0.,0.00000005,0.00022065,0.00000004,0.,-0.00057884,0.,0.,0.0001995
 9,0.00000005,0.,0.00729467,-0.00000005,0.,0.00331464,0.00000003,-0.000
 00005,-0.03740017,-0.00000007,0.00000005,0.00331489,0.00000005,-0.0000
 0002,0.00729378,0.00000003,0.00000003,0.00019956,-0.00000005,-0.000000
 01,-0.00057856,0.00000006,0.,0.00022146,-0.00000003,0.,0.00003822,0.00
 000003,-0.00000003,-0.00110144,-0.00000008,0.,-0.00038948,0.,0.,0.0000
 0079,0.,0.,0.00000192,0.,0.,0.00000331,0.,0.,0.00000037,0.,0.,0.000000
 35,0.,0.,0.00000081,0.,0.,0.00000191,0.,0.,0.00000326,0.,0.,-0.0000046
 9,0.,0.,0.00000574,0.,0.,0.00008335,0.,0.,-0.00392281,0.,0.,0.02557179
 ,0.00001244,0.00000668,0.00000001,-0.00000728,-0.00000846,0.00000001,0
 .00001672,0.00003552,-0.00000007,0.00000853,-0.00008546,0.00000009,-0.
 00001855,0.00002112,-0.00000002,-0.00000130,-0.00001591,-0.00000001,-0
 .00001026,-0.00000351,0.,0.00000723,-0.00001280,-0.00000005,0.00000042
 ,-0.00000241,0.,-0.00001380,-0.00000264,0.,0.00000818,0.00001886,0.000
 00004,-0.00002530,-0.00002698,-0.00000014,-0.00001591,0.00003611,0.000
 00013,-0.00006693,-0.00000661,-0.00000005,0.00004241,0.00036940,-0.000
 00050,0.00023447,-0.00038520,-0.00000002,-0.00064440,0.00041738,0.0000
 0049,0.00005913,-0.00005614,-0.00000006,0.00026304,0.00009319,0.,-0.00
 077531,0.00041808,0.00000018,-0.00074475,0.00306245,-0.00000003,0.0109
 8655,0.01442327,-0.00000003,-0.12929433,-0.12018329,-0.00000007,-0.011
 15010,-0.02806130,0.00000040,0.00167340,-0.00179915,-0.00000017,-0.000
 30310,0.00030386,0.,0.00020985,0.00022941,0.00000037,-0.00013371,-0.00
 007695,0.00000023,0.00002846,-0.00193759,-0.00000035,-0.00540966,0.002
 15341,-0.00000043,-0.00000279,0.00000179,0.,0.00000061,0.00000168,0.,0
 .00000508,-0.00001767,-0.00000002,-0.00000082,-0.00000029,0.,-0.000001
 63,-0.00000002,-0.00000001,-0.00000233,-0.00000160,0.,0.00000236,-0.00
 000096,0.,0.00001434,0.00001463,0.00000005,-0.00003910,-0.00001705,0.0
 0000003,0.00000129,-0.00002720,-0.00000002,-0.00001987,-0.00009435,0.,
 0.00031990,0.00074287,0.00000003,0.00094581,-0.00055875,0.,0.13391928,
 -0.00000673,0.00000265,0.,0.00000747,-0.00001865,0.,-0.00000466,0.0000
 3897,-0.00000003,-0.00001581,-0.00008307,0.00000004,-0.00000180,0.0000
 1717,-0.00000001,-0.00000073,-0.00000208,0.,-0.00001486,0.00000054,0.,
 -0.00001066,-0.00001975,-0.00000002,-0.00000374,0.00000717,0.,-0.00000
 269,0.00000230,0.,0.00001097,0.00001427,0.00000002,0.00000475,-0.00004
 312,-0.00000006,-0.00000858,0.00008119,0.00000005,-0.00006779,0.000016
 66,-0.00000002,0.00003989,0.00002089,-0.00000019,0.00014114,-0.0000460
 5,0.,-0.00024825,0.00001400,0.00000018,0.00004214,-0.00012121,-0.00000
 002,-0.00013775,0.00015141,0.00000001,0.00041665,0.00019404,0.00000006
 ,0.00456350,-0.00191198,0.,-0.01681548,-0.01982661,-0.00000001,-0.1200
 4650,-0.25934133,-0.00000003,0.00158149,0.00184213,0.00000018,0.001145
 00,0.00060736,-0.00000008,-0.00038155,0.00024877,-0.00000002,-0.000024
 90,0.00015976,0.00000015,0.00003410,0.00004722,0.00000009,0.00041219,-
 0.00005461,-0.00000012,0.00049158,0.00122796,-0.00000018,-0.00000295,0
 .00000163,0.,0.00000346,0.00000130,0.,0.00002342,-0.00002036,0.,-0.000
 00093,-0.00000085,0.,-0.00000242,0.00000098,0.,-0.00000302,-0.00000306
 ,0.,0.00000359,0.00000167,0.,0.00002234,0.00001942,0.00000002,0.000015
 98,-0.00001217,0.00000002,-0.00003260,-0.00001780,0.,0.00003547,0.0000
 0727,0.,-0.00074285,-0.00114296,0.00000001,0.00039535,0.00091405,0.,0.
 12982124,0.27660831,-0.00000022,-0.00000019,-0.00000072,0.00000037,-0.
 00000023,-0.00000080,0.,0.00000036,-0.00000835,0.,-0.00000015,0.000004
 63,-0.00000027,-0.00000031,-0.00000108,-0.00000006,0.00000032,-0.00000
 087,0.00000009,0.00000021,0.00000164,0.00000004,0.00000003,-0.00000203
 ,0.00000007,-0.00000001,-0.00000131,0.00000001,0.00000009,0.00000210,0
 .00000006,-0.00000017,-0.00000224,0.00000006,-0.00000014,-0.00000478,0
 .00000005,-0.00000014,0.00000332,-0.00000005,0.00000066,0.00000087,-0.
 00000029,0.00000021,0.00001092,0.00000008,-0.00000055,0.00009713,0.000
 00010,0.00000078,-0.00041237,0.00000060,-0.00000005,0.00006874,-0.0000
 0011,0.00000020,-0.00083295,0.00000058,-0.00000020,-0.00019839,-0.0000
 0049,0.00000016,0.00555742,0.00000028,-0.00000074,0.00071306,-0.000000
 78,0.00000061,-0.02556465,0.00000048,-0.00000013,0.00112177,0.00000037
 ,0.00000049,-0.00211434,-0.00000065,-0.00000029,-0.00039884,0.00000083
 ,-0.00000004,0.00004451,-0.00000052,-0.00000016,-0.00002082,0.00000008
 ,-0.00000039,0.00032988,-0.00000064,-0.00000036,0.00458358,0.,0.,0.000
 00124,0.,0.,0.00000314,-0.00000002,0.00000006,0.00000659,0.,0.,0.00000
 084,0.,0.00000001,0.00000037,-0.00000001,0.,0.00000106,0.,0.,0.0000001
 2,0.,0.00000003,0.00000344,-0.00000002,0.00000005,0.00001862,0.,0.,0.0
 0005660,0.,-0.00000003,0.00009726,0.00000005,-0.00000002,0.00101327,0.
 ,-0.00000002,-0.00392280,-0.00000002,-0.00000001,0.01945876,0.00000750
 ,0.00001357,0.,-0.00000830,-0.00004078,0.,0.00000810,0.00009804,-0.000
 00002,-0.00000647,-0.00016647,0.00000003,-0.00000861,0.00003190,0.,-0.
 00000271,-0.00001314,0.,-0.00002174,-0.00001342,0.,-0.00000863,-0.0000
 3336,-0.00000001,-0.00000837,-0.00000579,0.,-0.00002263,0.00000764,0.,
 0.00003505,0.00002319,0.00000001,-0.00000924,-0.00005226,-0.00000003,-
 0.00007916,0.00012454,0.00000003,-0.00024360,-0.00017475,-0.00000001,-
 0.00016144,0.00052147,-0.00000007,0.00010544,-0.00007240,0.00000004,0.
 00007092,-0.00020158,0.00000003,-0.00023987,-0.00000560,0.00000004,0.0
 0009683,0.00018268,0.00000005,0.00052560,0.00036191,-0.00000003,0.0001
 5803,0.00016801,0.,0.00007465,-0.00035916,0.,0.00112025,0.00120516,-0.
 00000003,0.01032405,0.01392475,0.00000013,-0.12112094,-0.11424594,-0.0
 0000008,-0.01072988,-0.02928872,-0.00000007,-0.00509162,0.00163536,0.0
 0000012,-0.00041675,-0.00144015,0.,-0.00042900,0.00065243,-0.00000003,
 -0.00154433,0.00301891,-0.00000009,-0.00000845,0.00000297,0.,-0.000002
 82,0.00000803,0.,0.00005292,-0.00006542,0.,-0.00000078,0.00000037,0.,-
 0.00000269,-0.00000126,0.,-0.00000276,-0.00000266,0.,0.00000291,-0.000
 00042,0.,0.00002421,0.00001626,0.00000001,0.00001808,-0.00002697,0.000
 00003,0.00000184,-0.00001674,0.,0.00005405,0.00007649,0.,-0.00001979,-
 0.00003539,0.00000001,0.00002482,-0.00002900,0.,-0.00000402,-0.0005670
 1,-0.00000002,0.12654056,-0.00000240,0.00000512,0.00000001,-0.00000072
 ,-0.00001936,0.,0.00000626,0.00004526,-0.00000006,0.00000242,-0.000099
 69,0.00000008,-0.00001720,0.00002135,-0.00000002,-0.00000400,-0.000005
 48,0.,-0.00001098,0.00000457,0.,-0.00000174,-0.00002670,-0.00000004,-0
 .00000258,0.00000641,0.,-0.00000515,-0.00000305,0.,0.00000850,0.000022
 61,0.00000003,-0.00000600,-0.00004769,-0.00000011,-0.00000715,0.000089
 52,0.00000010,-0.00007259,0.00000584,-0.00000004,0.00006179,0.00023948
 ,-0.00000037,0.00004555,-0.00034764,0.00000002,-0.00018834,0.00058673,
 0.00000033,0.00059459,-0.00011766,0.,-0.00008897,-0.00046897,0.0000000
 4,-0.00124597,-0.00032787,0.00000008,-0.00004116,0.00029645,-0.0000000
 2,0.00046483,-0.00037218,-0.00000002,-0.00247614,0.00119952,-0.0000000
 7,-0.01510066,-0.02007587,0.00000035,-0.11428184,-0.26532850,-0.000000
 17,0.00147649,0.00212809,-0.00000006,0.00068061,0.00240733,0.00000032,
 -0.00009735,-0.00026203,0.00000015,0.00082733,-0.00028053,-0.00000024,
 0.00426272,-0.00284869,-0.00000034,-0.00000408,0.00000185,0.,0.0000051
 1,0.00000119,0.,0.00002417,-0.00002638,-0.00000001,-0.00000097,-0.0000
 0067,0.,-0.00000326,0.00000040,-0.00000001,-0.00000417,-0.00000386,0.,
 0.00000356,-0.00000088,0.,0.00002322,0.00002665,0.00000004,0.00000362,
 -0.00001159,0.00000005,-0.00001893,-0.00004160,-0.00000001,-0.00007642
 ,-0.00018446,0.,0.00009456,0.00000737,0.00000003,0.00005768,-0.0000617
 6,0.,0.00118556,0.00038215,-0.00000003,0.12434374,0.28256546,-0.000000
 16,-0.00000009,-0.00000048,0.00000023,-0.00000026,-0.00000126,-0.00000
 003,0.00000018,0.00000112,0.,-0.00000021,0.00000666,-0.00000022,-0.000
 00019,0.00000293,-0.00000008,0.00000022,-0.00000351,0.00000004,0.00000
 025,0.00000164,0.00000016,-0.00000013,0.00000483,0.00000008,0.00000015
 ,0.00000242,0.00000011,-0.00000004,-0.00000289,-0.00000016,-0.00000024
 ,0.00000171,0.00000005,0.00000011,-0.00001985,0.00000004,-0.00000017,0
 .00000339,-0.00000004,0.00000078,-0.00008226,-0.00000004,0.00000028,-0
 .00027555,0.00000034,-0.00000045,0.00017205,-0.00000038,0.00000047,-0.
 00092152,0.00000073,-0.00000018,0.00009310,-0.00000022,0.00000041,-0.0
 0040608,0.00000008,-0.00000025,0.00015278,0.00000015,0.00000044,-0.000
 07159,0.00000001,-0.00000088,-0.00037062,-0.00000025,0.00000048,-0.002
 53194,-0.00000001,-0.00000015,0.00262614,0.00000034,0.00000041,-0.0308
 5786,-0.00000075,-0.00000024,0.00189162,0.00000048,0.00000040,0.006827
 97,-0.00000037,-0.00000042,0.00062451,0.,-0.00000044,-0.00029365,-0.00
 000010,-0.00000044,0.00495481,0.,0.,0.00000221,0.,0.,0.00000670,-0.000
 00002,0.00000005,0.00000616,0.,0.,-0.00000099,0.,0.,0.00000364,0.,0.,0
 .00000118,0.,0.,0.00000140,0.,0.00000005,0.00001559,0.00000002,0.00000
 007,0.00001296,0.,0.00000002,0.00006257,0.00000001,-0.00000004,0.00014
 918,0.00000005,-0.00000002,0.00009740,0.,-0.00000002,0.00008333,-0.000
 00004,-0.00000002,0.00021099,-0.00000001,-0.00000004,0.02190959,0.0000
 0756,-0.00001075,0.,0.00001547,0.00001840,0.,-0.00000032,-0.00011842,0
 .,-0.00005011,0.00014298,0.,0.00004070,-0.00000949,0.,0.00000395,-0.00
 000435,0.,0.00001379,-0.00002104,0.,-0.00002595,0.00004554,0.,0.000005
 12,-0.00001240,0.,0.00000352,-0.00000030,0.,-0.00001116,-0.00001168,0.
 ,0.00000091,0.00002771,-0.00000001,0.00006099,-0.00006617,0.00000002,0
 .00015416,0.00000118,0.,-0.00006687,0.00015923,-0.00000008,0.00032019,
 -0.00012391,-0.00000004,0.00029449,-0.00032032,0.00000012,0.00023658,-
 0.00027493,-0.00000005,-0.00033540,0.00001212,-0.00000003,0.00005349,0
 .00022086,0.00000007,0.00011277,-0.00002606,-0.00000002,-0.00054354,-0
 .00028556,0.,0.00003444,0.00163878,0.,-0.00517261,-0.00225355,0.000000
 01,-0.01159020,0.02978886,0.00000001,-0.12414897,0.11509409,0.00000004
 ,0.00867264,-0.01263892,0.00000003,0.00135653,-0.00161615,0.00000005,-
 0.00128960,-0.00274831,-0.00000009,-0.00035740,-0.00062895,-0.00000005
 ,0.00000832,-0.00000170,0.,-0.00000486,-0.00000698,0.,-0.00015075,0.00
 002899,0.,-0.00000058,0.00000035,0.,0.00000346,0.00000035,0.,0.0000022
 3,0.00000183,0.,-0.00000210,-0.00000181,0.,-0.00002562,-0.00001784,0.,
 -0.00002110,0.00003204,-0.00000001,0.00006270,-0.00006224,0.,0.0000019
 0,0.00001896,0.,0.00000113,0.00003286,0.,-0.00011313,0.00014501,0.,-0.
 00005381,-0.00007814,0.,0.00092837,-0.00044644,0.,0.13142930,-0.000011
 20,0.00005837,0.,-0.00001254,-0.00004165,0.,-0.00011393,0.00012021,0.0
 0000003,-0.00000174,-0.00028231,-0.00000005,0.00003314,0.00004422,0.00
 000001,0.00004707,-0.00000396,0.,-0.00001669,-0.00002203,0.,-0.0000257
 7,-0.00002267,0.00000002,-0.00002886,0.00002254,0.,0.00000056,0.000010
 15,0.,0.00000432,0.00000562,-0.00000002,0.00002322,-0.00002380,0.00000
 005,-0.00003293,0.00005146,-0.00000004,-0.00015731,0.00011355,0.000000
 02,-0.00040039,-0.00074815,0.00000006,-0.00017269,0.00043045,-0.000000
 05,0.00146660,-0.00043284,0.00000002,-0.00010975,-0.00051673,-0.000000
 09,-0.00045328,0.00006001,-0.00000010,0.00000401,0.00045515,0.00000009
 ,0.00010466,-0.00022902,-0.00000002,0.00006056,0.00019097,-0.00000001,
 0.00011912,-0.00033869,0.00000004,-0.00089997,0.00229603,-0.00000021,-
 0.00128526,0.00221351,0.00000015,0.11490748,-0.25752580,0.00000013,0.0
 1632367,-0.01984878,-0.00000017,0.00310919,0.00136885,0.00000004,-0.00
 461558,-0.00309462,0.00000002,-0.00058705,-0.00017482,0.00000009,0.000
 00404,-0.00000152,0.,-0.00003191,0.00005831,0.,-0.00024214,-0.00010629
 ,0.,0.00000413,0.00000730,0.,-0.00000296,-0.00000104,0.,-0.00000343,-0
 .00000051,0.,0.00000226,0.00000581,0.,0.00004643,0.00004248,-0.0000000
 2,-0.00006806,-0.00000397,-0.00000007,0.00006246,-0.00019908,-0.000000
 01,0.00001679,-0.00004188,-0.00000001,0.00002755,-0.00001824,-0.000000
 02,0.00001924,-0.00001829,0.,0.00001323,0.00001715,0.00000003,0.000418
 14,0.00091789,0.00000003,-0.12613140,0.27480282,-0.00000019,-0.0000001
 0,-0.00000744,0.00000025,-0.00000029,-0.00000387,-0.00000004,0.0000002
 2,0.00003052,0.00000001,-0.00000025,0.00001386,-0.00000024,-0.00000021
 ,-0.00003113,-0.00000009,0.00000026,0.00000169,0.00000005,0.00000027,0
 .00001398,0.00000018,-0.00000014,0.00000581,0.00000008,0.00000017,-0.0
 0000448,0.00000011,-0.00000004,0.00000075,-0.00000017,-0.00000026,-0.0
 0000332,0.00000004,0.00000012,0.00000931,0.00000004,-0.00000017,-0.000
 00648,-0.00000006,0.00000084,0.00006613,0.00000003,0.00000022,-0.00051
 937,0.00000029,-0.00000040,-0.00015283,-0.00000041,0.00000049,0.000472
 77,0.00000076,-0.00000018,-0.00048941,-0.00000023,0.00000046,0.0000934
 6,0.00000008,-0.00000028,-0.00097824,0.00000020,0.00000048,0.00015062,
 -0.00000001,-0.00000098,-0.00049430,-0.00000027,0.00000052,0.00049364,
 0.00000001,-0.00000015,0.00709809,0.00000035,0.00000044,0.00146116,-0.
 00000083,-0.00000025,-0.02925614,0.00000063,0.00000041,0.00156008,-0.0
 0000046,-0.00000038,-0.00264610,-0.00000001,-0.00000047,0.00521216,-0.
 00000012,-0.00000048,-0.00020125,0.,0.,0.00000461,0.,0.,0.00003598,0.,
 0.00000005,0.00010630,0.00000001,0.,0.00000415,0.,0.,-0.00000039,0.,0.
 ,0.00000143,0.,0.,0.00000152,0.,0.00000006,-0.00002638,0.00000004,0.00
 000006,0.00015085,0.,0.00000001,0.00017150,0.00000002,-0.00000004,0.00
 006270,0.00000005,-0.00000002,0.00005666,0.,-0.00000002,0.00000575,-0.
 00000005,-0.00000002,0.00005671,-0.00000001,-0.00000004,-0.00411171,0.
 ,0.00000002,0.02112248,0.00009467,0.00035905,0.00000002,-0.00051082,-0
 .00042958,0.,-0.01409087,0.00587019,-0.00000004,0.00018277,-0.00090217
 ,0.00000008,0.00039688,0.00034419,-0.00000002,0.00014128,-0.00014098,-
 0.00000001,0.00005819,-0.00038984,0.,-0.00027258,0.00053322,-0.0000000
 2,-0.00011635,-0.00033113,0.00000001,-0.00029299,0.00022943,-0.0000000
 2,0.00027799,0.00012848,0.00000003,0.00001505,-0.00005919,-0.00000007,
 0.00017631,-0.00031090,0.00000005,0.00206937,0.00108368,-0.00000004,0.
 00662425,-0.01542382,0.,-0.00037700,-0.00456376,0.00000018,-0.00192719
 ,-0.00058413,-0.00000022,0.00046231,-0.00027610,0.00000025,-0.00011047
 ,-0.00007736,0.00000024,-0.00024205,-0.00025018,-0.00000030,-0.0001193
 0,0.00025470,0.00000007,0.00007430,-0.00009908,0.00000001,-0.00008549,
 -0.00000863,-0.00000010,0.00031684,-0.00030275,0.00000042,-0.00051595,
 -0.00028636,-0.00000033,0.00038317,0.00249628,-0.00000033,-0.01802364,
 0.03181499,0.00000030,-0.07700548,0.10747876,-0.00000016,-0.00512457,-
 0.00071905,0.00000011,-0.00006411,0.00171942,-0.00000014,-0.00004668,0
 .00002561,0.,0.00009300,0.00017110,0.,-0.02628680,0.01282981,0.,-0.000
 00036,0.00001207,0.,0.00001206,0.00000779,0.,-0.00001308,0.00000728,0.
 ,0.00001273,0.00002310,0.,0.00033623,0.00018288,0.00000003,0.00060691,
 -0.00086094,0.00000015,-0.00002073,0.00006863,0.00000004,0.00001819,-0
 .00000375,0.00000005,-0.00003923,-0.00001591,0.00000006,0.00001557,-0.
 00000974,0.,-0.00002046,0.00001066,-0.00000007,0.00002041,0.00003289,-
 0.00000003,0.00013932,-0.00141302,-0.00000004,0.13277840,0.00030882,-0
 .00050349,-0.00000002,0.00118516,0.00144829,-0.00000001,0.01228105,-0.
 00381082,0.00000010,-0.00024539,-0.00152665,-0.00000015,-0.00002540,0.
 00031009,0.00000003,0.00014232,-0.00008843,0.00000002,0.00018204,0.000
 03643,0.,-0.00007232,-0.00019709,0.00000007,-0.00013218,0.00012857,0.,
 0.00002370,-0.00000847,0.00000002,-0.00006909,0.00004462,-0.00000006,0
 .00007028,0.00008536,0.00000019,-0.00015899,0.00017620,-0.00000017,-0.
 00023210,0.00119161,0.00000008,0.01486121,-0.01460146,0.00000050,-0.00
 577911,-0.00190955,-0.00000003,0.00076503,0.00053207,-0.00000042,-0.00
 029845,0.00044403,-0.00000002,0.00025487,-0.00001030,-0.00000013,0.000
 07229,-0.00006834,-0.00000009,-0.00001073,0.00006816,0.,0.00004609,-0.
 00011432,0.00000003,-0.00021933,0.00004913,0.00000010,0.00010556,0.000
 01856,-0.00000063,0.00008647,0.00020246,0.00000033,-0.00346038,0.00145
 474,0.00000016,0.00262254,-0.00278622,-0.00000049,0.10173657,-0.355506
 37,-0.00000019,-0.00024015,0.00067736,0.00000031,-0.00023805,-0.000203
 86,0.00000049,0.00024712,-0.00003673,0.,-0.00008608,-0.00034979,0.,0.0
 1281598,0.00349967,0.,0.00001172,0.00001715,0.,-0.00001187,-0.00002178
 ,0.00000002,-0.00001377,0.00000436,0.,0.00000261,0.00001395,0.,0.00026
 553,0.00025958,-0.00000008,0.00086115,-0.00072420,-0.00000009,-0.00003
 235,-0.00000454,0.00000001,0.00002701,-0.00001182,0.,0.00001767,-0.000
 01247,-0.00000005,0.00001571,-0.00000099,0.,0.00001254,0.00001728,0.00
 000006,0.00002281,0.00000188,0.00000008,0.00050769,0.00040387,0.000000
 06,-0.13822582,0.37141230,-0.00000010,-0.00000036,-0.00006236,0.000000
 53,0.00000022,0.00026146,0.00000019,0.00000067,-0.00084190,-0.00000009
 ,0.00000036,0.00060608,-0.00000014,-0.00000040,0.00033448,0.00000013,0
 .00000030,-0.00007971,0.00000016,-0.00000027,-0.00004536,-0.00000066,0
 .00000072,0.00003390,-0.00000003,-0.00000076,0.00003852,-0.00000044,0.
 00000056,0.00001529,0.00000100,0.00000037,-0.00000411,0.00000009,-0.00
 000115,-0.00008873,0.00000003,0.00000017,-0.00038840,0.00000003,-0.000
 00075,-0.00349789,-0.00000122,-0.00000019,-0.00299651,-0.00000112,-0.0
 0000057,0.00080220,0.00000227,0.00000128,-0.00151125,-0.00000076,0.000
 00066,-0.00063397,0.00000049,-0.00000110,0.00019305,0.00000222,0.00000
 031,-0.00045187,-0.00000296,-0.00000141,0.00020140,0.00000119,0.000001
 03,0.00000083,-0.00000224,0.00000037,-0.00003767,0.00000210,0.00000020
 ,0.00043162,0.00000009,0.00000020,-0.00107228,0.00000072,-0.00000019,-
 0.00095289,0.00000116,-0.00000206,0.00526672,-0.00000046,0.00000107,-0
 .01092337,0.00000032,0.00000034,0.00396919,-0.00000223,0.00000042,-0.0
 0037632,-0.00000003,0.00000003,0.00001053,0.00000002,-0.00000001,0.000
 03084,-0.00000004,0.00000003,0.01175759,0.,-0.00000003,0.00001250,0.00
 000003,0.00000003,0.00004656,-0.00000001,-0.00000002,0.00000519,0.0000
 0003,0.00000001,-0.00002050,-0.00000005,-0.00000013,0.00025446,-0.0000
 0022,-0.00000006,0.00485865,0.00000003,-0.00000007,0.00015041,-0.00000
 004,0.00000002,0.00001408,0.00000002,0.,0.00001934,0.,0.00000002,-0.00
 000478,0.00000011,0.00000003,0.00001876,-0.00000001,0.00000006,0.00002
 117,0.00000004,0.00000005,0.00046816,-0.00000015,-0.00000002,-0.005833
 14\\0.00000983,-0.00002876,0.,0.00004731,-0.00000575,0.,-0.00004083,0.
 00006869,0.,-0.00002897,0.00001544,0.,0.00010405,0.00015423,0.,0.00002
 284,-0.00005307,0.,-0.00027100,0.,0.,0.00010405,-0.00015423,0.,0.00002
 284,0.00005307,0.,0.00000983,0.00002876,0.,0.00004731,0.00000575,0.,-0
 .00004083,-0.00006869,0.,-0.00002897,-0.00001544,0.,0.00009958,0.,0.,-
 0.00006024,0.,0.,0.00000257,0.00011723,0.,0.00000193,-0.00000020,0.,-0
 .00002074,0.00000681,0.,-0.00000584,0.00003263,0.,0.00000633,-0.000010
 08,0.,-0.00004185,0.00001521,0.,-0.00000374,0.,0.,-0.00004185,-0.00001
 521,0.,0.00000633,0.00001008,0.,-0.00000584,-0.00003263,0.,-0.00002074
 ,-0.00000681,0.,0.00000193,0.00000020,0.,0.00000257,-0.00011723,0.,0.0
 0000802,0.,0.,0.00000677,0.,0.,-0.00001952,0.00003883,0.,-0.00000305,0
 .00000682,0.,-0.00000230,-0.00004312,0.,-0.00002587,-0.00001026,0.,-0.
 00002587,0.00001026,0.,-0.00001952,-0.00003883,0.,-0.00000305,-0.00000
 682,0.,-0.00000230,0.00004312,0.,0.00003721,-0.00008455,0.,0.00000201,
 0.00000848,0.,0.00002707,-0.00003526,0.,0.00001990,-0.00003275,0.,0.00
 003640,0.,0.,0.00001990,0.00003275,0.,0.00002707,0.00003526,0.,0.00000
 201,-0.00000848,0.,0.00003721,0.00008455,0.\\\@
 The archive entry for this job was punched.


 IMAGINATION WILL OFTEN CARRY US TO WORLDS THAT NEVER WERE.
 BUT WITHOUT IT, WE GO NOWHERE. -- CARL SAGAN (COSMOS)
 Job cpu time:       1 days  1 hours 36 minutes 47.8 seconds.
 Elapsed time:       0 days  0 hours 48 minutes 31.9 seconds.
 File lengths (MBytes):  RWF=   7039 Int=      0 D2E=      0 Chk=    297 Scr=      1
 Normal termination of Gaussian 16 at Tue Nov  8 23:38:42 2022.
